# vtk DataFile Version 2.0
FUN3D:global_image_vtk
ASCII
DATASET UNSTRUCTURED_GRID
POINTS 213 double
   -0.5474685441687832E-02    0.6000590304585902E-38    0.2504941971167291E+01
   -0.5645096240829125E-38    0.8038138598664979E-04    0.1395689121148325E-36
    0.1245419105183472E+01    0.4869881176011581E-38    0.2504941971167291E+01
   -0.5645096240829125E-38    0.1039425058010243E-03    0.1354425087822335E-36
    0.2497696093128780E+01    0.2052845479715510E-38    0.2504941971167291E+01
   -0.5645096240829125E-38    0.1101298164665754E-03    0.1306486081569143E-36
    0.3750590968915824E+01   -0.1764775803947780E-38    0.2504941971167291E+01
   -0.5645096240829125E-38    0.1356499004944167E-03    0.1251729689804378E-36
    0.5003221331742151E+01   -0.5152427795584429E-38    0.2504941971167291E+01
   -0.5645096240829125E-38    0.9668873038903013E-04    0.1195930656564658E-36
    0.5004676687979097E+01   -0.5546741266002232E-38    0.1281291202167039E+01
   -0.3358084458873081E-37    0.1638053019383801E-03    0.8690970580975618E-37
    0.5004772673778115E+01   -0.4378401515062274E-38    0.2775079906482912E-01
   -0.2993262509931679E-37    0.1903478008450474E-03    0.5524921420341400E-37
    0.5003581183341212E+01   -0.2212028618982996E-38   -0.1225853508883529E+01
   -0.2652916494905399E-37    0.1607765204486018E-03    0.2443360481266731E-37
    0.5001952533742187E+01    0.4985198899401644E-40   -0.2496589036641631E+01
   -0.4033092876952089E-38    0.1082258890299200E-03   -0.6201401383146262E-38
    0.3750348111606544E+01    0.1061920816966581E-38   -0.2496589036641631E+01
   -0.4033092876952089E-38    0.1458753696815807E-03   -0.4048985952064841E-38
    0.2498611462994928E+01    0.2230065570150985E-38   -0.2496589036641631E+01
   -0.4033092876952089E-38    0.1008933264248224E-03   -0.2141153393394193E-38
    0.1247175269333276E+01    0.3290667116107069E-38   -0.2496589036641631E+01
   -0.4033092876952089E-38    0.1108587619171348E-03   -0.9969039757325697E-40
   -0.3383959865718378E-02    0.3627520451089113E-38   -0.2496589036641631E+01
   -0.4033092876952089E-38    0.8107259626460552E-04    0.2470203416646839E-38
   -0.4257768979765597E-02    0.4738280344602457E-38   -0.1225734811642591E+01
   -0.2887267332870280E-37    0.3415458742312694E-04    0.3608517239007113E-37
   -0.5251592448509257E-02    0.6055958209653562E-38    0.2619486024420447E-01
   -0.3090140227022212E-37    0.1038724387187884E-03    0.7040142764600790E-37
   -0.5676060312420979E-02    0.6647404824907002E-38    0.1278221569065707E+01
   -0.3329332469208400E-37    0.8224601702131594E-04    0.1050360186527429E-36
    0.9003209617952583E+00    0.6484445912855808E-38    0.1608979112280158E+01
   -0.3526356975488271E-37    0.8704140727694274E-04    0.1112287206133167E-36
    0.3983172210692289E+01    0.3436860995816549E-40   -0.1561211904840279E+01
   -0.2636126030238799E-37    0.1757116720370600E-03    0.1834488918011349E-37
    0.4035602039224469E+01   -0.2181347988309215E-38    0.1486760030415520E+01
   -0.3718896679393851E-37    0.1713312862100296E-03    0.9608777900748283E-37
    0.1036613723302902E+01    0.4272968820112446E-38   -0.1455626429916848E+01
   -0.2869962681327983E-37    0.1047189301534024E-03    0.2720347847779716E-37
    0.1094353480630802E+01    0.5780218998350133E-38   -0.2964622010671853E+00
   -0.3103468728912177E-37    0.1260590236916714E-03    0.5825571065040821E-37
    0.7298400267479994E+00    0.6610073789896451E-38    0.6874684746719120E+00
   -0.3305701021840989E-37    0.1044598640544792E-03    0.8639403128136000E-37
    0.1617018659308945E+01    0.6269867519960776E-38    0.8553208024939365E+00
   -0.3480051330702691E-37    0.1529810904976096E-03    0.8810953859765298E-37
    0.2143199662875790E+01    0.3220613254907026E-38   -0.1627128509216730E+01
   -0.2758214696836149E-37    0.1606170425226816E-03    0.2019883895891228E-37
    0.4088840445400889E+01   -0.1694269896901896E-38   -0.4351047825936264E+00
   -0.2954591851076005E-37    0.2719933294109134E-03    0.4617545823394460E-37
    0.2977916511248925E+01    0.2339218376368481E-38   -0.8334991483094508E+00
   -0.2869313432628606E-37    0.2245596931872751E-03    0.3877343983973946E-37
    0.3044093241383418E+01    0.1822763031737732E-38   -0.1814361225108581E+01
   -0.2682926308071184E-37    0.1617000112420497E-03    0.1372802633027706E-37
    0.3427866614805211E+01    0.8990225335450530E-39    0.3813904839972490E+00
   -0.3468116379639855E-37    0.2936955483427390E-03    0.6906059431963308E-37
    0.4313225355351749E+01   -0.3476541652060939E-38    0.5489133376342495E+00
   -0.3353769583884589E-37    0.2313009573592373E-03    0.7057108382606420E-37
    0.1823032737597358E+01    0.4851426382327404E-38    0.1771265193544255E+01
   -0.3756545592686306E-37    0.1836202887152688E-03    0.1124953649850999E-36
    0.2806311152168375E+01    0.2638626766730963E-38    0.1358629373600680E+01
   -0.3808127427963363E-37    0.1943492163983818E-03    0.9753426803517089E-37
    0.1891860875936711E+01    0.4662139661266838E-38   -0.8481310365607546E+00
   -0.2979882095542709E-37    0.1670645501816170E-03    0.4117331175332586E-37
    0.2268769200166909E+01    0.5166902466225954E-38    0.7723691819196568E-01
   -0.3307516820309098E-37    0.2072307783085869E-03    0.6484285863160921E-37
    0.5000000000000000E+01    0.1676610143683745-197    0.2504941971167291E+01
   -0.5645096240829125E-38    0.1250000000000000E+01    0.1676610143683745-197
    0.5000000000000000E+01    0.1676610143683745-197    0.2504941971167291E+01
   -0.5645096240829125E-38    0.2500000000000000E+01    0.1676610143683745-197
    0.5000000000000000E+01    0.1676610143683745-197    0.2504941971167291E+01
   -0.5645096240829125E-38    0.3750000000000000E+01    0.1676610143683745-197
    0.5000000000000000E+01    0.1676610143683745-197    0.2504941971167291E+01
   -0.5645096240829125E-38    0.5000000000000000E+01    0.1676610143683745-197
    0.3750000000000000E+01    0.1676610143683745-197    0.2504941971167291E+01
   -0.5645096240829125E-38    0.5000000000000000E+01    0.1676610143683745-197
    0.2500000000000000E+01    0.1676610143683745-197    0.2504941971167291E+01
   -0.5645096240829125E-38    0.5000000000000000E+01    0.1676610143683745-197
    0.1250000000000000E+01    0.1676610143683745-197    0.2504941971167291E+01
   -0.5645096240829125E-38    0.5000000000000000E+01    0.1676610143683745-197
   -0.1489360329819973-167    0.1676610143683745-197    0.2504941971167291E+01
   -0.5645096240829125E-38    0.5000000000000000E+01    0.1676610143683745-197
   -0.1489360329819973-167    0.1676610143683745-197    0.2504941971167291E+01
   -0.5645096240829125E-38    0.3750000000000000E+01    0.1676610143683745-197
   -0.1489360329819973-167    0.1676610143683745-197    0.2504941971167291E+01
   -0.5645096240829125E-38    0.2500000000000000E+01    0.1676610143683745-197
   -0.1489360329819973-167    0.1676610143683745-197    0.2504941971167291E+01
   -0.5645096240829125E-38    0.1250000000000000E+01    0.1676610143683745-197
    0.9588956434871092E+00    0.9082666598648818E-38    0.2504941971167291E+01
   -0.5645096240829125E-38    0.9696525519543873E+00    0.9559575460916020E-37
    0.3981953078951402E+01    0.3820303387848539E-38    0.2504941971167291E+01
   -0.5645096240829125E-38    0.4070563854751271E+01    0.1341725204923067E-37
    0.4036122187252336E+01   -0.1129442696680267E-38    0.2504941971167291E+01
   -0.5645096240829125E-38    0.1017567520094671E+01    0.9236788531702649E-37
    0.9637572773153890E+00   -0.3257228757837563E-38    0.2504941971167291E+01
   -0.5645096240829125E-38    0.3973598203142229E+01    0.1464237456254355E-37
    0.1546540136992396E+01   -0.3132900224155401E-38    0.2504941971167291E+01
   -0.5645096240829125E-38    0.2931570169315601E+01    0.4496019283094427E-37
    0.6973799521244313E+00   -0.5354013118836121E-38    0.2504941971167291E+01
   -0.5645096240829125E-38    0.3070319952453756E+01    0.2599190563131145E-37
    0.8903742148356885E+00   -0.4497440090067754E-38    0.2504941971167291E+01
   -0.5645096240829125E-38    0.2056562238187738E+01    0.5266806905849262E-37
    0.2183041995146012E+01   -0.6476703869537345E-39    0.2504941971167291E+01
   -0.5645096240829125E-38    0.3960694449828019E+01    0.2332936323768532E-37
    0.3855844872709870E+01    0.6382047074917576E-38    0.2504941971167291E+01
   -0.5645096240829125E-38    0.2933250588118631E+01    0.3433270047294812E-37
    0.3152611367438029E+01    0.3352172735339413E-38    0.2504941971167291E+01
   -0.5645096240829125E-38    0.3637668388416195E+01    0.2850262886026710E-37
    0.3103307385241870E+01    0.2065231959131736E-38    0.2504941971167291E+01
   -0.5645096240829125E-38    0.4332607813099731E+01    0.1432987852141064E-37
    0.3266711045517939E+01    0.4998348375214868E-38    0.2504941971167291E+01
   -0.5645096240829125E-38    0.1889656617463739E+01    0.7498090471909490E-37
    0.4232537554484796E+01    0.7698651625080249E-38    0.2504941971167291E+01
   -0.5645096240829125E-38    0.1918626969802351E+01    0.4149957187746693E-37
    0.1905522374036519E+01    0.7461052881049377E-38    0.2504941971167291E+01
   -0.5645096240829125E-38    0.7226290832134608E+00    0.1156671593949907E-36
    0.2879767723645805E+01    0.2265354603505767E-38    0.2504941971167291E+01
   -0.5645096240829125E-38    0.9080945892181981E+00    0.1152066784262005E-36
    0.2012711365064515E+01    0.8986260234654089E-39    0.2504941971167291E+01
   -0.5645096240829125E-38    0.1767082390977754E+01    0.8589295966206090E-37
    0.2669681472994637E+01    0.2217040698819398E-38    0.2504941971167291E+01
   -0.5645096240829125E-38    0.2853394335010792E+01    0.5209394663893944E-37
    0.5000000000000000E+01    0.1676610143683745-197    0.1250000000000000E+01
    0.1676610143683745-197    0.5000000000000000E+01    0.1676610143683745-197
    0.5000000000000000E+01    0.1676610143683745-197   -0.1489360329819973-167
[...]
POINT_DATA 213
SCALARS rho double 1
LOOKUP_TABLE default
   0.1346125694796171E+01
  -0.1915301897814946E-31
   0.9572084527647181E+00
  -0.1258430535635773E-31
   0.9461020639078122E+00
  -0.8906237960085059E-32
   0.9421833077514676E+00
  -0.6541489552182501E-32
   0.8436100785905031E+00
  -0.4681789356832617E-32
   0.7742024922725261E+00
  -0.4233010181228560E-32
   0.7627632914204219E+00
  -0.4302308146256931E-32
   0.7661496233415013E+00
  -0.4065601978940269E-32
   0.8310481703367261E+00
  -0.4619645431577296E-32
   0.9353608197671142E+00
  -0.6085742626189895E-32
   0.9344036383958099E+00
  -0.8516258719891486E-32
   0.9615898876470030E+00
  -0.1279982390476883E-31
   0.1448480208888122E+01
  -0.2064761457853419E-31
   0.1495421840745494E+01
  -0.1967273338247042E-31
   0.1646754928386004E+01
  -0.2240365382012948E-31
   0.1426608058877443E+01
  -0.1860884958432174E-31
   0.1009808068720546E+01
  -0.1414576815099703E-31
   0.9511456929613185E+00
  -0.6232742296362734E-32
   0.9438291099370202E+00
  -0.6023066194647034E-32
   0.9574489508572964E+00
  -0.1349599569476369E-31
   0.9414832416640706E+00
  -0.1325587990377901E-31
   0.1037118221425504E+01
  -0.1512918704244943E-31
   0.9258147537148552E+00
  -0.1094968113860177E-31
   0.9322497228173984E+00
  -0.9891001576600898E-32
   0.9538141799783574E+00
  -0.6158294566319555E-32
   0.9520438484218449E+00
  -0.7648418700928114E-32
   0.9350971720205272E+00
  -0.7093310974455805E-32
   0.9565537237118931E+00
  -0.6588428644799662E-32
   0.9378700247680092E+00
  -0.5581989850478907E-32
   0.9303318784868113E+00
  -0.1036765558826584E-31
   0.9446515867126482E+00
  -0.8062946891824299E-32
   0.8862352513653070E+00
  -0.1014680783205421E-31
   0.9424046836435387E+00
  -0.9130192857176468E-32
   0.9637217255546092E+00
  -0.3592453031624359E-32
   0.1008362577771465E+01
  -0.1854421990067105E-32
   0.1006713364979950E+01
  -0.1237169099701287E-32
   0.1001959240549336E+01
  -0.1585810591294703E-32
   0.1003218316276310E+01
  -0.3140473444647130E-32
   0.1004120538082294E+01
  -0.3867059594175631E-32
   0.1005207992650280E+01
  -0.3570599243881581E-32
   0.1004249813847910E+01
  -0.2819044728812030E-32
   0.1008267843881786E+01
  -0.4191060660161390E-32
   0.1023867443067885E+01
  -0.6121769411671758E-32
   0.1063751875324936E+01
  -0.7269725241307724E-32
   0.1019386187162553E+01
  -0.9081395339219560E-32
   0.1001778934113208E+01
  -0.2763116888207279E-32
   0.9645975233959349E+00
  -0.5083855585455030E-32
   0.1005263110528869E+01
  -0.4248157499226362E-32
   0.1000745578316710E+01
  -0.5310900866680057E-32
   0.1008695104813590E+01
  -0.5352762637283659E-32
   0.1008032475142374E+01
  -0.6447798523584863E-32
   0.1002354650880921E+01
  -0.4298756761113285E-32
   0.9980224682790607E+00
  -0.3073509288580458E-32
   0.1000594440604981E+01
  -0.3743877592334303E-32
   0.1001621537589701E+01
  -0.3724606149011563E-32
   0.9828107810948309E+00
  -0.4684379091685650E-32
   0.9844011041687630E+00
  -0.3565657556633596E-32
   0.9834292502931208E+00
  -0.8300390916213799E-32
   0.9790423922415732E+00
  -0.6701577759193272E-32
   0.9904798796909294E+00
  -0.5984070082531528E-32
   0.9935224893886208E+00
  -0.4531364472604158E-32
   0.1002009103475674E+01
  -0.1496070968554299E-32
   0.1002132311998030E+01
  -0.1461487184464520E-32
   0.1002273033582340E+01
  -0.1515852479073181E-32
   0.1001793219489189E+01
  -0.1676588325363955E-32
   0.1009814972833392E+01
  -0.1214986264539762E-32
   0.1006499311746352E+01
  -0.1860177682304162E-32
   0.9560849990714075E+00
  -0.3494758658851835E-32
   0.9252996566846432E+00
  -0.3952413108025844E-32
   0.1007053712651865E+01
  -0.1042746506222741E-32
   0.1004491538498357E+01
  -0.1233205007895791E-32
   0.9144889717497039E+00
  -0.3664886360776211E-32
   0.9091476761027147E+00
  -0.3590127549565367E-32
   0.8752502590928948E+00
  -0.3988161638779543E-32
   0.9768039036525079E+00
  -0.2890189927534821E-32
   0.1000530366597899E+01
  -0.2344191766122160E-32
   0.1005826553460180E+01
  -0.9929322701328215E-33
   0.1012895293779666E+01
  -0.1201901540815090E-32
   0.1011677102427478E+01
  -0.1373481948367946E-32
   0.1010415988351595E+01
  -0.9411467210528559E-33
   0.1005456560095716E+01
  -0.9712445866734257E-33
   0.9909260255110186E+00
  -0.2743829046532414E-32
   0.1005152543423356E+01
  -0.1498976070621046E-32
   0.9860803849583191E+00
  -0.2623734061399965E-32
   0.1005592650627447E+01
  -0.1809681034827523E-32
   0.1004239968494962E+01
  -0.2668732959454045E-32
   0.1002886283632249E+01
  -0.2592289951526066E-32
   0.1003350788888626E+01
  -0.2623573265311805E-32
   0.1003998912068583E+01
  -0.2736019290440072E-32
   0.1005116700254013E+01
  -0.3551688587790374E-32
   0.1003224183257987E+01
  -0.3862203722764323E-32
   0.1002669183700799E+01
  -0.3211299136140608E-32
   0.1002590255848407E+01
  -0.2933932615958876E-32
   0.1004070004659133E+01
  -0.3185320626061570E-32
   0.1004304937933142E+01
  -0.3279457116452275E-32
   0.1001643036025504E+01
  -0.3099868549050740E-32
   0.1002279357321900E+01
  -0.2974245034112291E-32
   0.1002547248781977E+01
  -0.2693234898391586E-32
   0.1003472641567325E+01
  -0.3709208377565648E-32
   0.1003380931080901E+01
  -0.3776696049087895E-32
   0.1003233776571532E+01
  -0.2984013891497846E-32
   0.1004430854293400E+01
  -0.3900292550209334E-32
   0.1004325283197199E+01
  -0.3860334645949779E-32
   0.1003653379478007E+01
  -0.3095888764276939E-32
   0.1003719191863772E+01
  -0.3607049845358296E-32
   0.1004319534138409E+01
  -0.3864915217186040E-32
   0.1004463155501089E+01
  -0.3917613246704453E-32
   0.1003629980599647E+01
  -0.3738816866979685E-32
   0.1064490581493544E+01
  -0.7270452365413867E-32
   0.1028445780971469E+01
  -0.6199721679423429E-32
   0.1009607603147355E+01
  -0.4240180955591565E-32
   0.1006626774102676E+01
  -0.3807770146366447E-32
   0.1163979474301378E+01
  -0.8204122204960455E-32
   0.1086026004530845E+01
  -0.6815401167115280E-32
   0.1007908398971676E+01
  -0.3977754427695935E-32
   0.1007252664643614E+01
  -0.3797130190776596E-32
   0.1006796746946192E+01
  -0.3524044575618405E-32
   0.1013053608644299E+01
  -0.5239342104687421E-32
   0.1019342644427341E+01
  -0.5795460423784908E-32
   0.1235143811205287E+01
  -0.9593014262803418E-32
   0.1032536232933634E+01
  -0.6571898696731500E-32
   0.1046567728934203E+01
  -0.7494060511900796E-32
   0.1201703012923367E+01
  -0.8704049865870544E-32
   0.1014671125332394E+01
  -0.5138959784368751E-32
   0.1032295324199352E+01
  -0.6747155016203399E-32
   0.1028222151031622E+01
  -0.7307980946174837E-32
   0.1014641483573337E+01
  -0.5656384905036223E-32
   0.1029002257770447E+01
  -0.8710322990850568E-32
   0.1002002818476381E+01
  -0.2781501120954323E-32
   0.9607830580820058E+00
  -0.5121024740720931E-32
   0.1006859706957371E+01
  -0.4264510855207715E-32
   0.1001326954010039E+01
  -0.5137787095808595E-32
   0.1010800868392034E+01
  -0.5418389504424527E-32
   0.1012237273234303E+01
  -0.6419042043379386E-32
   0.1000940436429746E+01
  -0.4332596580591099E-32
   0.9979317235317202E+00
  -0.3116756201599706E-32
   0.9980683699440425E+00
  -0.3809088459608125E-32
   0.1001191956733436E+01
  -0.3689138954919369E-32
   0.9841985797708258E+00
  -0.4691507617279215E-32
   0.9815070579349490E+00
  -0.3540627674666722E-32
   0.9648654914695791E+00
  -0.8332578111470719E-32
   0.9680713427302863E+00
  -0.6460014212548623E-32
   0.9914149190810116E+00
  -0.5933967950281337E-32
   0.9910916479216321E+00
  -0.4512917810763564E-32
   0.9925598184525989E+00
  -0.4327615284204680E-32
   0.1001728510387250E+01
  -0.4663996000373714E-32
   0.9993250772469863E+00
  -0.5005327651692804E-32
   0.9941444029265152E+00
  -0.5557075939204067E-32
   0.1006981383545158E+01
  -0.5873611468360752E-32
   0.1022611654050734E+01
  -0.7015791456638916E-32
   0.1001121691833200E+01
  -0.6459898735728040E-32
   0.1008784265586799E+01
  -0.4976914630052025E-32
   0.1004775043985261E+01
  -0.4686684075562872E-32
   0.1009029447306728E+01
  -0.5305760557753216E-32
   0.9967197949768091E+00
  -0.6224568211235510E-32
   0.1005567613152645E+01
  -0.9781729978407104E-32
   0.1003325685873304E+01
  -0.4134030197606900E-32
   0.9949865129967022E+00
  -0.4369480475345613E-32
   0.9833521892790527E+00
  -0.4082335940223539E-32
   0.9944521638504082E+00
  -0.3826305421653340E-32
   0.9973482230863592E+00
  -0.3452750134542881E-32
   0.9932519263849505E+00
  -0.2778817950402348E-32
   0.1001312608249049E+01
  -0.4018614355238599E-32
   0.1003001448725934E+01
  -0.4165896486219686E-32
   0.1002189173482837E+01
  -0.3436760264321244E-32
   0.9947119516184391E+00
  -0.2540548417075028E-32
   0.9937839725485349E+00
  -0.4015507784155665E-32
   0.1004862069432106E+01
  -0.4292928063040195E-32
   0.1020102936709553E+01
  -0.6053983562920393E-32
   0.1005341234391229E+01
  -0.5968957425966644E-32
   0.9817063601277451E+00
  -0.5615513520739119E-32
   0.1004975501327930E+01
  -0.3994120791159007E-32
   0.1012376568815317E+01
  -0.5277648173592945E-32
   0.9873747459242613E+00
  -0.7843820407704570E-32
   0.9551282272141168E+00
  -0.8350323421685922E-32
   0.9865280377056406E+00
  -0.5378876774469765E-32
   0.9865952832622858E+00
  -0.5063248157843002E-32
   0.9920084248960089E+00
  -0.7485002137976967E-32
   0.9934470865439922E+00
  -0.5277719541435546E-32
   0.9960657346530507E+00
  -0.9739518497528207E-32
   0.1037405690909356E+01
  -0.6694040509338892E-32
   0.1033165796316031E+01
  -0.8678568159594390E-32
   0.1001443358073574E+01
  -0.2599360162551338E-32
   0.1001929574473309E+01
  -0.3937259096960151E-32
   0.9912286695852769E+00
  -0.2790246771102847E-32
   0.9911121698768730E+00
  -0.3823041172931221E-32
   0.9649300819288703E+00
  -0.4041450225280356E-32
   0.9933729920342941E+00
  -0.2736798931525769E-32
   0.1006089075111743E+01
  -0.2184978450500974E-32
   0.1001962080811798E+01
  -0.2368728872289103E-32
   0.9908628495068608E+00
  -0.4481103313483888E-32
   0.9742274508734918E+00
  -0.4462037781855080E-32
   0.9420781785086658E+00
  -0.4485990019164275E-32
   0.9821604770833161E+00
  -0.5694350160874908E-32
   0.9794777371334423E+00
  -0.4100977656456563E-32
   0.9704352201667029E+00
  -0.7560626619517036E-32
   0.9720842372276904E+00
  -0.5717680367905014E-32
   0.9557868488075294E+00
  -0.3778160416667529E-32
   0.9497981758175315E+00
  -0.4210671541031119E-32
   0.9529847958461074E+00
  -0.5731104329690482E-32
   0.1002637256815284E+01
  -0.4633376542772890E-32
   0.1002476301970758E+01
  -0.4145067225993868E-32
   0.1000513242287925E+01
  -0.3057156334656008E-32
   0.1001675737919762E+01
  -0.2265050360692775E-32
   0.9610108169557009E+00
  -0.5988027434354287E-32
   0.9492469479940657E+00
  -0.5409111180483089E-32
   0.9586432519906325E+00
  -0.5807820854725271E-32
   0.1001121462568686E+01
  -0.3983725195482535E-32
   0.1000500591166405E+01
  -0.3403770635173239E-32
   0.1001161102485526E+01
  -0.2840455270398928E-32
   0.9807429276960817E+00
  -0.4904356574145464E-32
   0.9805608284045670E+00
  -0.7434919292971847E-32
   0.9629214371681076E+00
  -0.6256264357474918E-32
SCALARS u double 1
LOOKUP_TABLE default
   0.0000000000000000E+00
   0.0000000000000000E+00
   0.0000000000000000E+00
   0.0000000000000000E+00
   0.0000000000000000E+00
   0.0000000000000000E+00
   0.0000000000000000E+00
   0.0000000000000000E+00
   0.0000000000000000E+00
   0.0000000000000000E+00
   0.0000000000000000E+00
   0.0000000000000000E+00
   0.0000000000000000E+00
   0.0000000000000000E+00
   0.0000000000000000E+00
   0.0000000000000000E+00
   0.0000000000000000E+00
   0.0000000000000000E+00
   0.0000000000000000E+00
   0.0000000000000000E+00
   0.0000000000000000E+00
   0.0000000000000000E+00
   0.0000000000000000E+00
   0.0000000000000000E+00
   0.0000000000000000E+00
   0.0000000000000000E+00
   0.0000000000000000E+00
   0.0000000000000000E+00
   0.0000000000000000E+00
   0.0000000000000000E+00
   0.0000000000000000E+00
   0.0000000000000000E+00
   0.0000000000000000E+00
   0.0000000000000000E+00
   0.0000000000000000E+00
   0.0000000000000000E+00
   0.0000000000000000E+00
   0.0000000000000000E+00
   0.0000000000000000E+00
   0.0000000000000000E+00
   0.0000000000000000E+00
   0.0000000000000000E+00
   0.0000000000000000E+00
   0.0000000000000000E+00
   0.0000000000000000E+00
   0.0000000000000000E+00
   0.0000000000000000E+00
   0.0000000000000000E+00
   0.0000000000000000E+00
   0.0000000000000000E+00
   0.0000000000000000E+00
   0.0000000000000000E+00
   0.0000000000000000E+00
   0.0000000000000000E+00
   0.0000000000000000E+00
   0.0000000000000000E+00
   0.0000000000000000E+00
   0.0000000000000000E+00
   0.0000000000000000E+00
   0.0000000000000000E+00
   0.0000000000000000E+00
   0.0000000000000000E+00
   0.0000000000000000E+00
   0.0000000000000000E+00
   0.0000000000000000E+00
   0.0000000000000000E+00
   0.4946084390403304E+00
  -0.3607382472169329E-32
   0.5336296229396241E+00
  -0.2465022510026984E-32
   0.5182737288741374E+00
  -0.6793495491082140E-33
   0.4930696975718007E+00
   0.2805586063510422E-33
   0.4847718119408594E+00
   0.4136102484514407E-32
   0.4868108136215756E+00
   0.5380156585213255E-32
   0.4891429098222738E+00
   0.4875803421505464E-32
   0.4958014376856369E+00
   0.3021816083708190E-32
   0.4899016128305093E+00
   0.4177372677223604E-32
   0.4718097598415657E+00
   0.6037787120626937E-32
   0.4448926899587166E+00
   0.7256591033987022E-32
   0.4844425910270771E+00
   0.3470773505211427E-32
   0.5097672109152620E+00
   0.2751602380943380E-32
   0.4402157107389184E+00
  -0.3320468184495965E-32
   0.4949584587264929E+00
   0.4587852975739000E-32
   0.5222981757400273E+00
   0.5249877174726679E-32
   0.4962761335160897E+00
   0.5256359631454371E-32
   0.5223877814044889E+00
   0.6105980388934741E-32
   0.5038134104987519E+00
   0.4933159668814918E-32
   0.5644352140169042E+00
   0.1633555088117550E-32
   0.5245862239270117E+00
   0.4006046114810320E-32
   0.4990946955700126E+00
   0.4539082996557306E-32
   0.5729384848058994E+00
  -0.1104611564240551E-33
   0.5693720714277630E+00
  -0.1893091371766889E-32
   0.3752129680555525E+00
  -0.9910432703384867E-33
   0.4003935337289329E+00
  -0.2714261768275245E-32
   0.5599622500290229E+00
   0.2587615059629684E-32
   0.5562276759088328E+00
   0.3796526340660675E-32
   0.4942631174083065E+00
   0.1100570450427688E-33
   0.4948654038379443E+00
   0.8061028490140733E-34
   0.4925634782160291E+00
   0.2456607345456295E-33
   0.4913991786278467E+00
   0.2540322781016365E-33
   0.5162611628896508E+00
  -0.7698036341737283E-33
   0.5363588932424885E+00
  -0.2447204013715353E-32
   0.4951213607875168E+00
  -0.3521747058856000E-32
   0.4520531595291026E+00
  -0.3059476086343389E-32
   0.5129024774601977E+00
  -0.6462186313179086E-33
   0.5117690526466550E+00
  -0.3241509602861404E-33
   0.4786251287211846E+00
  -0.3303462006089247E-32
   0.4931155293858623E+00
  -0.3284702404756650E-32
   0.4600306954373311E+00
  -0.2788918234721723E-32
   0.5242629198942664E+00
  -0.3609803321248364E-32
   0.5299866667529146E+00
  -0.2967022462328501E-32
   0.5129711999262114E+00
  -0.5262959441121584E-33
   0.5328938855274170E+00
  -0.1811708379720996E-32
   0.5309772093587922E+00
  -0.1596069789844319E-32
   0.5309771260032680E+00
  -0.1133202611271653E-32
   0.5063651410167973E+00
  -0.5095995638154480E-33
   0.5279605765589301E+00
  -0.3424598601288959E-32
   0.5409254473520722E+00
  -0.1895524009403609E-32
   0.5363677255166452E+00
  -0.3353880385030587E-32
   0.5374194372046837E+00
  -0.2885125802516730E-32
   0.4965359093627151E+00
   0.2760998411853397E-32
   0.4975361620576706E+00
   0.2686070666354179E-32
   0.4963807509447992E+00
   0.2768708407897583E-32
   0.4955144774623503E+00
   0.2969916755684608E-32
   0.4904151887411498E+00
   0.4771575417229003E-32
   0.4902491479027394E+00
   0.5281544224256384E-32
   0.4861626503315321E+00
   0.3913835053781461E-32
   0.4854037739486380E+00
   0.3607705798284709E-32
   0.4931941380558100E+00
   0.4185961556636630E-32
   0.4910329234529701E+00
   0.4433195624737362E-32
   0.4831698316704787E+00
   0.3649963885102422E-32
   0.4872469605539456E+00
   0.3467862153822899E-32
   0.4880010969404932E+00
   0.2930667307239453E-32
   0.4872294036566930E+00
   0.5089283976983047E-32
   0.4882160211825607E+00
   0.5099764600973756E-32
   0.4952567366102099E+00
   0.3766094516137728E-32
   0.4900705809522938E+00
   0.5244610949086946E-32
   0.4903581267311296E+00
   0.5266079502721262E-32
   0.4944346859693041E+00
   0.4084657433817036E-32
   0.4868163397682809E+00
   0.5048038242805139E-32
   0.4892720557096084E+00
   0.5396211398381321E-32
   0.4881455378810500E+00
   0.5393405035304566E-32
   0.4878245184536382E+00
   0.5106889859902033E-32
   0.4449022026406396E+00
   0.7268772419578664E-32
   0.4700099664047581E+00
   0.6046674718191581E-32
   0.4891756201751469E+00
   0.4249558943619784E-32
   0.4885980866227770E+00
   0.3779646163265058E-32
   0.4510286412221155E+00
   0.6971803295505402E-32
   0.4681799610771216E+00
   0.7060117080178733E-32
   0.4876648975240566E+00
   0.3927188958502298E-32
   0.4868253758067002E+00
   0.3666905715003946E-32
   0.4909267533148838E+00
   0.3420309033495314E-32
   0.4793946319363190E+00
   0.5107583310178437E-32
   0.4657884653213599E+00
   0.5862537611394700E-32
   0.3794302312506669E+00
   0.7296152597903251E-32
   0.4903697421167736E+00
   0.7230864069066312E-32
   0.4487929174615823E+00
   0.7024337332277724E-32
   0.4432385355260897E+00
   0.7388120663704265E-32
   0.4845729179217874E+00
   0.5092449165946125E-32
   0.4621884481320295E+00
   0.6649248656334121E-32
   0.4663602298884580E+00
   0.7123693635232621E-32
   0.4747774268406420E+00
   0.5571550518869536E-32
   0.4893613112006179E+00
   0.3054823689557715E-32
   0.5085681474237966E+00
   0.2624512148272609E-32
   0.4304904287089586E+00
  -0.3168527010101435E-32
   0.4927280753895717E+00
   0.4554831340265416E-32
   0.5320316185099452E+00
   0.5237398574017712E-32
   0.4913826501723290E+00
   0.5321048422991928E-32
   0.5209404404684796E+00
   0.5870863752328095E-32
   0.5061319828047660E+00
   0.4869505389495715E-32
   0.5690636320469999E+00
   0.1582839240567311E-32
   0.5275039918422003E+00
   0.3914318463086089E-32
   0.5015047795155800E+00
   0.4327611109196667E-32
   0.5821373618613810E+00
  -0.2805214625575846E-33
   0.5691503700217417E+00
  -0.1848777401756647E-32
   0.3402452490602638E+00
  -0.1556042434892458E-32
   0.3785432685556854E+00
  -0.2577146949166282E-32
   0.5753091283338716E+00
   0.2705170201647024E-32
   0.5668547247073887E+00
   0.3830471725690713E-32
   0.5703055450940470E+00
   0.3986171986348752E-32
   0.5291879661617325E+00
   0.5224543403668278E-32
   0.5449833828652857E+00
   0.5468110172870402E-32
   0.5719093999232528E+00
   0.4826163693825302E-32
   0.5385694587091792E+00
   0.6616335137071570E-32
   0.5475896936889280E+00
   0.5618753217881465E-32
   0.5821565652939825E+00
   0.3600789401000969E-32
   0.4925313046001149E+00
   0.5207969869556816E-32
   0.5041557177772629E+00
   0.5013841112303902E-32
   0.4961299804140892E+00
   0.5364508757583024E-32
   0.5562803684740076E+00
   0.4817565618177150E-32
   0.4757814624157535E+00
   0.1613543922754067E-32
   0.4950174786318898E+00
   0.4928605943732048E-32
   0.5496174672072782E+00
   0.4284599442993227E-32
   0.5889519110818265E+00
   0.6118467470087795E-33
   0.5839568631087251E+00
   0.2241903647008293E-32
   0.5468163498067897E+00
   0.3516097475339757E-32
   0.5803877175569198E+00
  -0.3399719642452742E-33
   0.5106055693788852E+00
   0.4849788354125773E-32
   0.5029532236716212E+00
   0.5118273512423944E-32
   0.5033085380851455E+00
   0.4090057803409033E-32
   0.5676232052870115E+00
   0.6251319129424234E-33
   0.5564629528967067E+00
   0.4139139746128918E-32
   0.4947135441323419E+00
   0.4851212135187640E-32
   0.5506799461326946E+00
   0.6374408468984903E-32
   0.5513545696829872E+00