# vtk DataFile Version 2.0
FUN3D:global_image_vtk
ASCII
DATASET UNSTRUCTURED_GRID
POINTS 213 double
   -0.5474685354673440E-02    0.6000866540831994E-38    0.2504941971120178E+01
   -0.5642438492037295E-38    0.8038152024199333E-04    0.1394757076225960E-36
    0.1245419105255567E+01    0.4870567544110526E-38    0.2504941971120178E+01
   -0.5642438492037295E-38    0.1039426360357621E-03    0.1353510380899473E-36
    0.2497696093165082E+01    0.2054544235749611E-38    0.2504941971120178E+01
   -0.5642438492037295E-38    0.1101299424061264E-03    0.1305591945507180E-36
    0.3750590968902967E+01   -0.1761767373002464E-38    0.2504941971120178E+01
   -0.5642438492037295E-38    0.1356500208995615E-03    0.1250860250278190E-36
    0.5003221331685069E+01   -0.5148319730643578E-38    0.2504941971120178E+01
   -0.5642438492037295E-38    0.9668884646120471E-04    0.1195087650214260E-36
    0.5004676687906325E+01   -0.5543459360684731E-38    0.1281291201874989E+01
   -0.3356631407982696E-37    0.1638053852026750E-03    0.8684815038386235E-37
    0.5004772673713691E+01   -0.4376325032963154E-38    0.2775079881942759E-01
   -0.2991921629624459E-37    0.1903478533101868E-03    0.5520983397912492E-37
    0.5003581183301330E+01   -0.2211249208389101E-38   -0.1225853509085650E+01
   -0.2651679476002921E-37    0.1607765437865481E-03    0.2441585351473676E-37
    0.5001952533727192E+01    0.4942928892618979E-40   -0.2496589036669383E+01
   -0.4031023968234641E-38    0.1082258832325040E-03   -0.6197772580752743E-38
    0.3750348111604984E+01    0.1061230735508392E-38   -0.2496589036669383E+01
   -0.4031023968234641E-38    0.1458753656864982E-03   -0.4046393011061379E-38
    0.2498611463008006E+01    0.2229005891270869E-38   -0.2496589036669383E+01
   -0.4031023968234641E-38    0.1008933243985540E-03   -0.2139411617040678E-38
    0.1247175269358997E+01    0.3289228828059827E-38   -0.2496589036669383E+01
   -0.4031023968234641E-38    0.1108587616795993E-03   -0.9880222412253350E-40
   -0.3383959836417373E-02    0.3625947948688820E-38   -0.2496589036669383E+01
   -0.4031023968234641E-38    0.8107259858541839E-04    0.2470053612814746E-38
   -0.4257768931200891E-02    0.4736829320365152E-38   -0.1225734811831699E+01
   -0.2885687086644234E-37    0.3415462225692433E-04    0.3606220543544360E-37
   -0.5251592377664152E-02    0.6054650987467548E-38    0.2619486003229204E-01
   -0.3088472947070523E-37    0.1038725060845194E-03    0.7035522770632066E-37
   -0.5676060226544880E-02    0.6646613454815123E-38    0.1278221568826043E+01
   -0.3327565393459203E-37    0.8224611811664630E-04    0.1049663321649866E-36
    0.9003209618811938E+00    0.6483923624199489E-38    0.1608979112009521E+01
   -0.3524568756235326E-37    0.8704151435552422E-04    0.1111540943275374E-36
    0.3983172210681063E+01    0.3433116102042652E-40   -0.1561211905032496E+01
   -0.2634840337546594E-37    0.1757116892529021E-03    0.1833186137208449E-37
    0.4035602039196104E+01   -0.2179037722658681E-38    0.1486760030089594E+01
   -0.3717250738473809E-37    0.1713313780272287E-03    0.9602069138876924E-37
    0.1036613723345004E+01    0.4271590259330416E-38   -0.1455626430112184E+01
   -0.2868447176175000E-37    0.1047189560833298E-03    0.2718588012965620E-37
    0.1094353480696708E+01    0.5778840324161061E-38   -0.2964622012897231E+00
   -0.3101861858635890E-37    0.1260590792086018E-03    0.5821696641492279E-37
    0.7298400268293916E+00    0.6608928242427635E-38    0.6874684744290098E+00
   -0.3303990247859658E-37    0.1044599469473640E-03    0.8633644374193408E-37
    0.1617018659386684E+01    0.6268938968277952E-38    0.8553208022224869E+00
   -0.3478328171210489E-37    0.1529811744180970E-03    0.8805008220879362E-37
    0.2143199662905053E+01    0.3219536311027220E-38   -0.1627128509408379E+01
   -0.2756800785868751E-37    0.1606170614000833E-03    0.2018537741530677E-37
    0.4088840445370388E+01   -0.1693284978085644E-38   -0.4351047828261936E+00
   -0.2953204832369307E-37    0.2719933720569168E-03    0.4614299290711358E-37
    0.2977916511269220E+01    0.2338708636865386E-38   -0.8334991485208170E+00
   -0.2867897823004496E-37    0.2245597292968071E-03    0.3874676545946850E-37
    0.3044093241394255E+01    0.1822075114819125E-38   -0.1814361225298813E+01
   -0.2681581689185609E-37    0.1617000240866655E-03    0.1371859908933995E-37
    0.3427866614809518E+01    0.8995587487757732E-39    0.3813904837093363E+00
   -0.3466511941318646E-37    0.2936956127938064E-03    0.6901271231883094E-37
    0.4313225355300894E+01   -0.3474443374642196E-38    0.5489133373497911E+00
   -0.3352266071958177E-37    0.2313010240641651E-03    0.7052147742443117E-37
    0.1823032737662369E+01    0.4851579171278580E-38    0.1771265193236943E+01
   -0.3754731383761565E-37    0.1836203960077343E-03    0.1124190650699376E-36
    0.2806311152201418E+01    0.2639239143174472E-38    0.1358629373277930E+01
   -0.3806359408453581E-37    0.1943493090698188E-03    0.9746731684364371E-37
    0.1891860875986751E+01    0.4660890174275940E-38   -0.8481310367752779E+00
   -0.2978367288167739E-37    0.1670645890422583E-03    0.4114565254844215E-37
    0.2268769200226429E+01    0.5165910195652866E-38    0.7723691793529122E-01
   -0.3305899400823565E-37    0.2072308394559035E-03    0.6479876932641128E-37
    0.5000000000000000E+01    0.1144660977322564-132    0.2504941971120178E+01
   -0.5642438492037295E-38    0.1250000000000000E+01    0.1144660977322564-132
    0.5000000000000000E+01    0.1144660977322564-132    0.2504941971120178E+01
   -0.5642438492037295E-38    0.2500000000000000E+01    0.1144660977322564-132
    0.5000000000000000E+01    0.1144660977322564-132    0.2504941971120178E+01
   -0.5642438492037295E-38    0.3750000000000000E+01    0.1144660977322564-132
    0.5000000000000000E+01    0.1144660977322564-132    0.2504941971120178E+01
   -0.5642438492037295E-38    0.5000000000000000E+01    0.1144660977322564-132
    0.3750000000000000E+01    0.1144660977322564-132    0.2504941971120178E+01
   -0.5642438492037295E-38    0.5000000000000000E+01    0.1144660977322564-132
    0.2500000000000000E+01    0.1144660977322564-132    0.2504941971120178E+01
   -0.5642438492037295E-38    0.5000000000000000E+01    0.1144660977322564-132
    0.1250000000000000E+01    0.1144660977322564-132    0.2504941971120178E+01
   -0.5642438492037295E-38    0.5000000000000000E+01    0.1144660977322564-132
    0.2145585016358277-102    0.1144660977322564-132    0.2504941971120178E+01
   -0.5642438492037295E-38    0.5000000000000000E+01    0.1144660977322564-132
    0.2145585016358277-102    0.1144660977322564-132    0.2504941971120178E+01
   -0.5642438492037295E-38    0.3750000000000000E+01    0.1144660977322564-132
    0.2145585016358277-102    0.1144660977322564-132    0.2504941971120178E+01
   -0.5642438492037295E-38    0.2500000000000000E+01    0.1144660977322564-132
    0.2145585016358277-102    0.1144660977322564-132    0.2504941971120178E+01
   -0.5642438492037295E-38    0.1250000000000000E+01    0.1144660977322564-132
    0.9588956435498146E+00    0.9079664925398855E-38    0.2504941971120178E+01
   -0.5642438492037295E-38    0.9696525519819160E+00    0.9552989976672948E-37
    0.3981953078953990E+01    0.3817785677955455E-38    0.2504941971120178E+01
   -0.5642438492037295E-38    0.4070563854758392E+01    0.1340789458716372E-37
    0.4036122187243473E+01   -0.1127126152871576E-38    0.2504941971120178E+01
   -0.5642438492037295E-38    0.1017567520138455E+01    0.9230200157037178E-37
    0.9637572773160257E+00   -0.3254767339676463E-38    0.2504941971120178E+01
   -0.5642438492037295E-38    0.3973598203147244E+01    0.1463212909079844E-37
    0.1546540137002720E+01   -0.3129790758419170E-38    0.2504941971120178E+01
   -0.5642438492037295E-38    0.2931570169332425E+01    0.4492888882917713E-37
    0.6973799521304602E+00   -0.5349779235650645E-38    0.2504941971120178E+01
   -0.5642438492037295E-38    0.3070319952462183E+01    0.2597378709114870E-37
    0.8903742148597932E+00   -0.4492920513147720E-38    0.2504941971120178E+01
   -0.5642438492037295E-38    0.2056562238205702E+01    0.5263159496824793E-37
    0.2183041995148338E+01   -0.6468815806020765E-39    0.2504941971120178E+01
   -0.5642438492037295E-38    0.3960694449838289E+01    0.2331307594972208E-37
    0.3855844872713528E+01    0.6377993602269538E-38    0.2504941971120178E+01
   -0.5642438492037295E-38    0.2933250588136588E+01    0.3430863053458268E-37
    0.3152611367441827E+01    0.3350240880367531E-38    0.2504941971120178E+01
   -0.5642438492037295E-38    0.3637668388430321E+01    0.2848272267214695E-37
    0.3103307385244049E+01    0.2063983479346145E-38    0.2504941971120178E+01
   -0.5642438492037295E-38    0.4332607813106787E+01    0.1431988381757488E-37
    0.3266711045528354E+01    0.4996319894330147E-38    0.2504941971120178E+01
   -0.5642438492037295E-38    0.1889656617508911E+01    0.7492844626930916E-37
    0.4232537554485216E+01    0.7693687121476722E-38    0.2504941971120178E+01
   -0.5642438492037295E-38    0.1918626969820453E+01    0.4147017419910576E-37
    0.1905522374098332E+01    0.7459734658693011E-38    0.2504941971120178E+01
   -0.5642438492037295E-38    0.7226290832790409E+00    0.1155873105134159E-36
    0.2879767723664922E+01    0.2266592184528157E-38    0.2504941971120178E+01
   -0.5642438492037295E-38    0.9080945893019035E+00    0.1151266030004444E-36
    0.2012711365088211E+01    0.9001817023354929E-39    0.2504941971120178E+01
   -0.5642438492037295E-38    0.1767082391024547E+01    0.8583344811907807E-37
    0.2669681473002636E+01    0.2216439958696616E-38    0.2504941971120178E+01
   -0.5642438492037295E-38    0.2853394335039529E+01    0.5205765145825321E-37
    0.5000000000000000E+01    0.1144660977322564-132    0.1250000000000000E+01
    0.1144660977322564-132    0.5000000000000000E+01    0.1144660977322564-132
    0.5000000000000000E+01    0.1144660977322564-132    0.2145585016358277-102
[...]
POINT_DATA 213
SCALARS rho double 1
LOOKUP_TABLE default
   0.1346121576558850E+01
  -0.1914935401516541E-31
   0.9571948763039415E+00
  -0.1257853984198516E-31
   0.9460886887382145E+00
  -0.8899970095892961E-32
   0.9421893257231418E+00
  -0.6536010668854786E-32
   0.8436069119447059E+00
  -0.4678657876211422E-32
   0.7741799829477405E+00
  -0.4230674409954424E-32
   0.7627470237242852E+00
  -0.4300443985967133E-32
   0.7661154369830571E+00
  -0.4063890024017838E-32
   0.8310406020585249E+00
  -0.4616357079159735E-32
   0.9353548873317087E+00
  -0.6080636129511405E-32
   0.9343789638740214E+00
  -0.8508998415162629E-32
   0.9615770358808982E+00
  -0.1279397899786530E-31
   0.1448481179323003E+01
  -0.2064570464947345E-31
   0.1495413532883148E+01
  -0.1967060564439531E-31
   0.1646745670287281E+01
  -0.2240162964305025E-31
   0.1426609495869454E+01
  -0.1860674463746748E-31
   0.1009796198807903E+01
  -0.1414053799341402E-31
   0.9511289943394339E+00
  -0.6227313197175737E-32
   0.9438275007601802E+00
  -0.6017817546408929E-32
   0.9574421336188301E+00
  -0.1349103226053865E-31
   0.9414707605302081E+00
  -0.1325133940676569E-31
   0.1037107582148464E+01
  -0.1512560737991702E-31
   0.9257988595898701E+00
  -0.1094329380167454E-31
   0.9322328369716564E+00
  -0.9883502065559690E-32
   0.9538049089520337E+00
  -0.6152230491891725E-32
   0.9520309169047884E+00
  -0.7640963350986518E-32
   0.9350748381644725E+00
  -0.7086601590016701E-32
   0.9565442453627809E+00
  -0.6581959750881953E-32
   0.9378629791182139E+00
  -0.5576680386281773E-32
   0.9303174976505383E+00
  -0.1036129654516077E-31
   0.9446384614738863E+00
  -0.8056401918283700E-32
   0.8862202068720297E+00
  -0.1014030481188229E-31
   0.9423972426504729E+00
  -0.9123015502980128E-32
   0.9637583308137885E+00
  -0.3589742138573571E-32
   0.1008372060966472E+01
  -0.1856749010494274E-32
   0.1006747112362773E+01
  -0.1240127558157486E-32
   0.1001852773320970E+01
  -0.1567092011837758E-32
   0.1003123524372104E+01
  -0.3119315488869176E-32
   0.1004082157096742E+01
  -0.3856355038645322E-32
   0.1005202130459737E+01
  -0.3566523230797444E-32
   0.1004248447756227E+01
  -0.2819046404918502E-32
   0.1008252297220501E+01
  -0.4186586575315991E-32
   0.1023856653722944E+01
  -0.6118339631596642E-32
   0.1063735395606178E+01
  -0.7266256319058284E-32
   0.1019377282305353E+01
  -0.9077812083367211E-32
   0.1001769746669104E+01
  -0.2759606155746617E-32
   0.9646660416536716E+00
  -0.5079472971281223E-32
   0.1005244619842778E+01
  -0.4243115111831073E-32
   0.1000724530056471E+01
  -0.5305853143785832E-32
   0.1008677252302019E+01
  -0.5347743160757503E-32
   0.1008015214859581E+01
  -0.6443548854046027E-32
   0.1002340934790782E+01
  -0.4294299816856248E-32
   0.9980238470085290E+00
  -0.3072116394419078E-32
   0.1000591022513368E+01
  -0.3741403519535963E-32
   0.1001604561052643E+01
  -0.3718580943226189E-32
   0.9827935361446111E+00
  -0.4680041782238035E-32
   0.9843909522639532E+00
  -0.3562991725571837E-32
   0.9834199977384932E+00
  -0.8296366061884158E-32
   0.9790755590651993E+00
  -0.6697820099200851E-32
   0.9904655435784977E+00
  -0.5979645854593448E-32
   0.9935082667662959E+00
  -0.4527246224337991E-32
   0.1001924481360624E+01
  -0.1480207570531608E-32
   0.1002057291524185E+01
  -0.1447888436303807E-32
   0.1002228606704992E+01
  -0.1504444285453579E-32
   0.1001730232036599E+01
  -0.1664056335037694E-32
   0.1009832769073364E+01
  -0.1217123206335911E-32
   0.1006491025078242E+01
  -0.1862655999246971E-32
   0.9560567801987161E+00
  -0.3491620167377569E-32
   0.9252974809424023E+00
  -0.3948575500295285E-32
   0.1007055845433466E+01
  -0.1041810684223594E-32
   0.1004494540937365E+01
  -0.1232680267389383E-32
   0.9144879640790595E+00
  -0.3660185838934067E-32
   0.9091702000123614E+00
  -0.3582579041120355E-32
   0.8752686692700559E+00
  -0.3980722756563539E-32
   0.9767694205259140E+00
  -0.2888695356578843E-32
   0.1000496994799588E+01
  -0.2345149986210460E-32
   0.1005828708045143E+01
  -0.9924522660789539E-33
   0.1012913971180141E+01
  -0.1206907140611948E-32
   0.1011698227133625E+01
  -0.1377748156156461E-32
   0.1010446393447148E+01
  -0.9461736902921759E-33
   0.1005436075223643E+01
  -0.9672615729916814E-33
   0.9909015030162603E+00
  -0.2742898822283803E-32
   0.1005173058015762E+01
  -0.1503374522814206E-32
   0.9860582672988552E+00
  -0.2623081873269189E-32
   0.1005574625302522E+01
  -0.1812540454265851E-32
   0.1004234052103121E+01
  -0.2665751653333922E-32
   0.1002867590340653E+01
  -0.2586843087479849E-32
   0.1003332813106283E+01
  -0.2618152170860513E-32
   0.1003992617526204E+01
  -0.2733293139394775E-32
   0.1005102398717398E+01
  -0.3546608316443282E-32
   0.1003213221189371E+01
  -0.3857515992115064E-32
   0.1002637694679031E+01
  -0.3200662844503247E-32
   0.1002503449256871E+01
  -0.2914182442945460E-32
   0.1004058356768754E+01
  -0.3180623950889460E-32
   0.1004282716593362E+01
  -0.3272177257448621E-32
   0.1001609837525727E+01
  -0.3088453846361840E-32
   0.1002218116009336E+01
  -0.2958998133764857E-32
   0.1002468865276109E+01
  -0.2677293870254251E-32
   0.1003439924658134E+01
  -0.3698584151804964E-32
   0.1003371390617400E+01
  -0.3769916415934228E-32
   0.1003221748385615E+01
  -0.2979185432389440E-32
   0.1004424093684759E+01
  -0.3894891418799515E-32
   0.1004319740822324E+01
  -0.3856420836822878E-32
   0.1003643004273082E+01
  -0.3091267949386508E-32
   0.1003656415289677E+01
  -0.3591801362934994E-32
   0.1004293763635560E+01
  -0.3856227105737930E-32
   0.1004444618871642E+01
  -0.3910020532783197E-32
   0.1003598439762884E+01
  -0.3727669090489990E-32
   0.1064484054732203E+01
  -0.7266318688609711E-32
   0.1028435420500416E+01
  -0.6196407155675712E-32
   0.1009591478899163E+01
  -0.4236417340183138E-32
   0.1006618278587617E+01
  -0.3803971961923816E-32
   0.1163959916996524E+01
  -0.8202045074746751E-32
   0.1086026931725001E+01
  -0.6814063013768274E-32
   0.1007890504576060E+01
  -0.3973214055944457E-32
   0.1007236271230065E+01
  -0.3792034923448937E-32
   0.1006788266567724E+01
  -0.3520122968896763E-32
   0.1013043289137213E+01
  -0.5236008281251714E-32
   0.1019327597190116E+01
  -0.5792043227141178E-32
   0.1235137251176379E+01
  -0.9591493677071246E-32
   0.1032532043017573E+01
  -0.6569200852470087E-32
   0.1046550096529177E+01
  -0.7489970466197248E-32
   0.1201690718587642E+01
  -0.8701784280702674E-32
   0.1014663280044715E+01
  -0.5135725094648744E-32
   0.1032279468484534E+01
  -0.6744025771383038E-32
   0.1028207117333523E+01
  -0.7304011836308927E-32
   0.1014627676284807E+01
  -0.5652236536711496E-32
   0.1028994286455402E+01
  -0.8707224983969776E-32
   0.1001995785225797E+01
  -0.2779187098718426E-32
   0.9607926054130963E+00
  -0.5115126053730556E-32
   0.1006846613887248E+01
  -0.4260248004146886E-32
   0.1001309973492678E+01
  -0.5132445461834079E-32
   0.1010786057249756E+01
  -0.5414440688444887E-32
   0.1012227684031053E+01
  -0.6415545106974331E-32
   0.1000928859729345E+01
  -0.4328552884453315E-32
   0.9979241448304280E+00
  -0.3114911446216837E-32
   0.9980607641803600E+00
  -0.3806440747765654E-32
   0.1001176471480260E+01
  -0.3685248620601968E-32
   0.9841698979707382E+00
  -0.4687299066823006E-32
   0.9814804051276713E+00
  -0.3538271980061983E-32
   0.9648643281479247E+00
  -0.8328461676877942E-32
   0.9680609612321366E+00
  -0.6456865551576152E-32
   0.9914117696855821E+00
  -0.5929833158128563E-32
   0.9910787873701126E+00
  -0.4507119528572477E-32
   0.9925448965753493E+00
  -0.4323347176628427E-32
   0.1001711340226468E+01
  -0.4659006576561967E-32
   0.9993074439761915E+00
  -0.5000266439997206E-32
   0.9941315271755039E+00
  -0.5552550820545234E-32
   0.1006967070655377E+01
  -0.5869734851977520E-32
   0.1022600393601617E+01
  -0.7012648295749722E-32
   0.1001120351158186E+01
  -0.6456653706199919E-32
   0.1008768406487527E+01
  -0.4972100672728830E-32
   0.1004758766622642E+01
  -0.4682051173647585E-32
   0.1009008547717899E+01
  -0.5300643509790738E-32
   0.9967065495208078E+00
  -0.6220245022854847E-32
   0.1005559014954740E+01
  -0.9777990171360423E-32
   0.1003316847455897E+01
  -0.4129589843572540E-32
   0.9949760837849300E+00
  -0.4365924747351813E-32
   0.9833354561432931E+00
  -0.4078361441894989E-32
   0.9944366656275864E+00
  -0.3823098088826253E-32
   0.9973430993736441E+00
  -0.3451034210274697E-32
   0.9932324160527990E+00
  -0.2778232685924084E-32
   0.1001303842003248E+01
  -0.4015207518145511E-32
   0.1002993277922565E+01
  -0.4161584262975583E-32
   0.1002173938857653E+01
  -0.3430854742010100E-32
   0.9947102219453671E+00
  -0.2540408512647037E-32
   0.9937779612127637E+00
  -0.4013052944831554E-32
   0.1004847431301374E+01
  -0.4288069310565871E-32
   0.1020089644592711E+01
  -0.6050489201461874E-32
   0.1005330537467722E+01
  -0.5965181327292582E-32
   0.9816977697699183E+00
  -0.5611836186100398E-32
   0.1004963753846305E+01
  -0.3989514358843465E-32
   0.1012360290057163E+01
  -0.5272849652594086E-32
   0.9873646060377769E+00
  -0.7840384351062096E-32
   0.9551232767735834E+00
  -0.8346414607841373E-32
   0.9865189440799114E+00
  -0.5375090956479197E-32
   0.9865837198362198E+00
  -0.5059139851981192E-32
   0.9920019773227595E+00
  -0.7481068313448217E-32
   0.9934353842992879E+00
  -0.5273834746010138E-32
   0.9960558482270921E+00
  -0.9736114619519155E-32
   0.1037397856603626E+01
  -0.6691567545740481E-32
   0.1033153659650278E+01
  -0.8675586560422694E-32
   0.1001426070677502E+01
  -0.2594821686028038E-32
   0.1001911890146645E+01
  -0.3932034858171945E-32
   0.9912130990291417E+00
  -0.2789661404849607E-32
   0.9910991013769513E+00
  -0.3819316492570774E-32
   0.9649004388965450E+00
  -0.4038604023264942E-32
   0.9933606023720923E+00
  -0.2736766509162049E-32
   0.1006089889071255E+01
  -0.2184667846347636E-32
   0.1001960000135506E+01
  -0.2368146501200564E-32
   0.9908499550026290E+00
  -0.4476899016891090E-32
   0.9742085893388269E+00
  -0.4458557895896363E-32
   0.9420699056211262E+00
  -0.4482292896420579E-32
   0.9821425105812556E+00
  -0.5690365223042990E-32
   0.9794643150125305E+00
  -0.4097630360194661E-32
   0.9704377260473865E+00
  -0.7555699448368727E-32
   0.9720603745966581E+00
  -0.5714202528544821E-32
   0.9557738658614674E+00
  -0.3774355585718161E-32
   0.9498025815318466E+00
  -0.4205335214083944E-32
   0.9529959711983382E+00
  -0.5724572425848563E-32
   0.1002619337889283E+01
  -0.4628428308173418E-32
   0.1002471213010402E+01
  -0.4141695826729929E-32
   0.1000505660056360E+01
  -0.3053783525658706E-32
   0.1001689870000799E+01
  -0.2266256589757534E-32
   0.9609871244934782E+00
  -0.5983211435897161E-32
   0.9492879715242603E+00
  -0.5399351271896932E-32
   0.9586546962799211E+00
  -0.5801116536475985E-32
   0.1001115806261027E+01
  -0.3980967667498860E-32
   0.1000496906608008E+01
  -0.3401586600862970E-32
   0.1001173735238860E+01
  -0.2840640933548693E-32
   0.9807337981272700E+00
  -0.4899970836250319E-32
   0.9805510672378792E+00
  -0.7431666062072366E-32
   0.9629253434777753E+00
  -0.6249786710069895E-32
SCALARS u double 1
LOOKUP_TABLE default
   0.0000000000000000E+00
   0.0000000000000000E+00
   0.0000000000000000E+00
   0.0000000000000000E+00
   0.0000000000000000E+00
   0.0000000000000000E+00
   0.0000000000000000E+00
   0.0000000000000000E+00
   0.0000000000000000E+00
   0.0000000000000000E+00
   0.0000000000000000E+00
   0.0000000000000000E+00
   0.0000000000000000E+00
   0.0000000000000000E+00
   0.0000000000000000E+00
   0.0000000000000000E+00
   0.0000000000000000E+00
   0.0000000000000000E+00
   0.0000000000000000E+00
   0.0000000000000000E+00
   0.0000000000000000E+00
   0.0000000000000000E+00
   0.0000000000000000E+00
   0.0000000000000000E+00
   0.0000000000000000E+00
   0.0000000000000000E+00
   0.0000000000000000E+00
   0.0000000000000000E+00
   0.0000000000000000E+00
   0.0000000000000000E+00
   0.0000000000000000E+00
   0.0000000000000000E+00
   0.0000000000000000E+00
   0.0000000000000000E+00
   0.0000000000000000E+00
   0.0000000000000000E+00
   0.0000000000000000E+00
   0.0000000000000000E+00
   0.0000000000000000E+00
   0.0000000000000000E+00
   0.0000000000000000E+00
   0.0000000000000000E+00
   0.0000000000000000E+00
   0.0000000000000000E+00
   0.0000000000000000E+00
   0.0000000000000000E+00
   0.0000000000000000E+00
   0.0000000000000000E+00
   0.0000000000000000E+00
   0.0000000000000000E+00
   0.0000000000000000E+00
   0.0000000000000000E+00
   0.0000000000000000E+00
   0.0000000000000000E+00
   0.0000000000000000E+00
   0.0000000000000000E+00
   0.0000000000000000E+00
   0.0000000000000000E+00
   0.0000000000000000E+00
   0.0000000000000000E+00
   0.0000000000000000E+00
   0.0000000000000000E+00
   0.0000000000000000E+00
   0.0000000000000000E+00
   0.0000000000000000E+00
   0.0000000000000000E+00
   0.4945175768266989E+00
  -0.3602995091732615E-32
   0.5336188458143661E+00
  -0.2463383705779640E-32
   0.5183277074328706E+00
  -0.6797925354784871E-33
   0.4930081223885273E+00
   0.2761500402110185E-33
   0.4845503233281696E+00
   0.4133188676240234E-32
   0.4867797637658167E+00
   0.5361902191211844E-32
   0.4891960255252918E+00
   0.4858999741661393E-32
   0.4958547869588025E+00
   0.3019066224480743E-32
   0.4899048296713391E+00
   0.4174106649104827E-32
   0.4718226239071653E+00
   0.6034333922446480E-32
   0.4449129646692107E+00
   0.7252745519848250E-32
   0.4844488319265086E+00
   0.3467842628973458E-32
   0.5098727220241401E+00
   0.2742402864508542E-32
   0.4401627534662135E+00
  -0.3315262669928083E-32
   0.4949815255100529E+00
   0.4581284678884253E-32
   0.5223217181009051E+00
   0.5245423103550552E-32
   0.4962880727268944E+00
   0.5251992865894120E-32
   0.5224068180351986E+00
   0.6101732526728564E-32
   0.5038781531018395E+00
   0.4920455240160716E-32
   0.5645113048181665E+00
   0.1624132526276667E-32
   0.5246783776477891E+00
   0.3993827921807553E-32
   0.4991763303470262E+00
   0.4522941530086651E-32
   0.5729144681783107E+00
  -0.1112466940217253E-33
   0.5693306685150494E+00
  -0.1894096030493144E-32
   0.3752003459422543E+00
  -0.9921333900332184E-33
   0.4003329166175612E+00
  -0.2711434066001844E-32
   0.5599655098508750E+00
   0.2585778338920568E-32
   0.5562692618776464E+00
   0.3790311830751129E-32
   0.4941815684418416E+00
   0.1080836535155476E-33
   0.4948054579723494E+00
   0.8169696397226298E-34
   0.4924991021421346E+00
   0.2495420160780985E-33
   0.4913591408108166E+00
   0.2556605015088589E-33
   0.5163202332613080E+00
  -0.7698516565509878E-33
   0.5363580119945471E+00
  -0.2445818274531030E-32
   0.4951009798737492E+00
  -0.3517682366666884E-32
   0.4520208662048809E+00
  -0.3057091184670607E-32
   0.5129286666517825E+00
  -0.6462728034141279E-33
   0.5118223051182141E+00
  -0.3258724443399183E-33
   0.4785891091505110E+00
  -0.3301980412333527E-32
   0.4930935261437600E+00
  -0.3287329832881440E-32
   0.4599994212332009E+00
  -0.2790795030998081E-32
   0.5242750899206891E+00
  -0.3606572740662239E-32
   0.5299894267518184E+00
  -0.2964903268941251E-32
   0.5129956166516303E+00
  -0.5258331693195096E-33
   0.5328908005148041E+00
  -0.1808562381680427E-32
   0.5309917238588455E+00
  -0.1594475058148632E-32
   0.5309917304558072E+00
  -0.1132299515308277E-32
   0.5063863123093210E+00
  -0.5104620828403250E-33
   0.5279390690435046E+00
  -0.3421412036534627E-32
   0.5409216607963414E+00
  -0.1893929820386255E-32
   0.5363672231116189E+00
  -0.3351721905115668E-32
   0.5374266737581050E+00
  -0.2882539307162754E-32
   0.4965527080218095E+00
   0.2759709541382866E-32
   0.4975485430109418E+00
   0.2683269570412211E-32
   0.4963889595912221E+00
   0.2766192809168690E-32
   0.4955318625333369E+00
   0.2969105396127500E-32
   0.4904088550568511E+00
   0.4763149004426209E-32
   0.4901940096679893E+00
   0.5272902296540523E-32
   0.4859913977774925E+00
   0.3917062563252753E-32
   0.4851907292107162E+00
   0.3610744573058235E-32
   0.4932025258648576E+00
   0.4179933701613806E-32
   0.4910575516727457E+00
   0.4420835223136639E-32
   0.4830376796677346E+00
   0.3654660808442648E-32
   0.4871037702314926E+00
   0.3472849346756235E-32
   0.4878374753751503E+00
   0.2934386490337367E-32
   0.4871407325563766E+00
   0.5083158956972318E-32
   0.4881057921408494E+00
   0.5094783946523130E-32
   0.4952651999742823E+00
   0.3760898421138383E-32
   0.4900679170542092E+00
   0.5232643687035404E-32
   0.4903375835489198E+00
   0.5256489883336396E-32
   0.4944549179303904E+00
   0.4075890011650603E-32
   0.4867036053659838E+00
   0.5036581902048186E-32
   0.4892672211922032E+00
   0.5379751790079815E-32
   0.4881445071837630E+00
   0.5379670058000168E-32
   0.4877440533102665E+00
   0.5100069963849092E-32
   0.4449090179546760E+00
   0.7263528828041690E-32
   0.4700205505636317E+00
   0.6043653867408722E-32
   0.4891899219560609E+00
   0.4246173150255403E-32
   0.4885812071626436E+00
   0.3778118607283580E-32
   0.4510571511407435E+00
   0.6968475853688761E-32
   0.4681648473351505E+00
   0.7058771375016621E-32
   0.4876715182667147E+00
   0.3924936302191631E-32
   0.4868279302279863E+00
   0.3665892125585483E-32
   0.4909344309241293E+00
   0.3420118245398309E-32
   0.4794075500742366E+00
   0.5103775630772656E-32
   0.4658106292327884E+00
   0.5859288664642478E-32
   0.3794391069214078E+00
   0.7293517943333417E-32
   0.4903719042119322E+00
   0.7228142997306660E-32
   0.4488105782964733E+00
   0.7020480545681206E-32
   0.4432555845284122E+00
   0.7383290752759719E-32
   0.4845821229957455E+00
   0.5089155135692299E-32
   0.4622214654678182E+00
   0.6645359835722775E-32
   0.4663846275556673E+00
   0.7119748440551979E-32
   0.4747945053254524E+00
   0.5567363151982327E-32
   0.4893765485018627E+00
   0.3050978119224646E-32
   0.5086727393658642E+00
   0.2616604809767994E-32
   0.4304701969091435E+00
  -0.3163322559361230E-32
   0.4927419231453649E+00
   0.4550558775434752E-32
   0.5320474113055751E+00
   0.5235014560871093E-32
   0.4913924657531628E+00
   0.5318245183151242E-32
   0.5209510963398402E+00
   0.5866998423689334E-32
   0.5062026694590199E+00
   0.4859721261513572E-32
   0.5691188396061607E+00
   0.1572856523802589E-32
   0.5275886908342962E+00
   0.3904236602757448E-32
   0.5015568079009264E+00
   0.4318259961341953E-32
   0.5821010879240360E+00
  -0.2807671395311908E-33
   0.5691197158940839E+00
  -0.1849630691895453E-32
   0.3402537684045139E+00
  -0.1557407705199232E-32
   0.3785225530258979E+00
  -0.2575055281802885E-32
   0.5753075364495599E+00
   0.2703068953389227E-32
   0.5668700855629504E+00
   0.3826144827482237E-32
   0.5703096999073393E+00
   0.3980248160874017E-32
   0.5292031875059068E+00
   0.5218824692097031E-32
   0.5449942849831149E+00
   0.5463489132108951E-32
   0.5719051851536907E+00
   0.4823120026557311E-32
   0.5385861377461091E+00
   0.6612040146322428E-32
   0.5475984682031286E+00
   0.5614716655769869E-32
   0.5821612445926816E+00
   0.3597346252797696E-32
   0.4925463994466088E+00
   0.5204199405928449E-32
   0.5041925414124167E+00
   0.5006211245411114E-32
   0.4961448505882227E+00
   0.5360381044549129E-32
   0.5562861204929446E+00
   0.4814573994337712E-32
   0.4757908849792577E+00
   0.1610478911535542E-32
   0.4950432715278796E+00
   0.4920829841987051E-32
   0.5496530874036243E+00
   0.4276859037727895E-32
   0.5889373034629822E+00
   0.6085711944379523E-33
   0.5839913359859689E+00
   0.2234018300615312E-32
   0.5468830386053050E+00
   0.3504576382377754E-32
   0.5803823956363938E+00
  -0.3451878225766961E-33
   0.5106729977974614E+00
   0.4836788682019068E-32
   0.5030174990684381E+00
   0.5105266920672273E-32
   0.5033631765788956E+00
   0.4078497087596892E-32
   0.5676464133899367E+00
   0.6197543419743590E-33
   0.5564993216517393E+00
   0.4130422830279981E-32
   0.4947429769813340E+00
   0.4843966712743498E-32
   0.5506873591982795E+00
   0.6370863177884133E-32
   0.5513574989267880E+00