# vtk DataFile Version 2.0
FUN3D:global_image_vtk
ASCII
DATASET UNSTRUCTURED_GRID
POINTS 213 double
   -0.5474685441690944E-02    0.2504941971167291E+01    0.8038138598653883E-04
    0.1245419105183470E+01    0.2504941971167291E+01    0.1039425058010356E-03
    0.2497696093128781E+01    0.2504941971167291E+01    0.1101298164664095E-03
    0.3750590968915823E+01    0.2504941971167291E+01    0.1356499004943064E-03
    0.5003221331742151E+01    0.2504941971167291E+01    0.9668873038853781E-04
    0.5004676687979097E+01    0.1281291202167039E+01    0.1638053019381019E-03
    0.5004772673778115E+01    0.2775079906482898E-01    0.1903478008448147E-03
    0.5003581183341212E+01   -0.1225853508883529E+01    0.1607765204484355E-03
    0.5001952533742189E+01   -0.2496589036641631E+01    0.1082258890299776E-03
    0.3750348111606544E+01   -0.2496589036641631E+01    0.1458753696816364E-03
    0.2498611462994928E+01   -0.2496589036641631E+01    0.1008933264248783E-03
    0.1247175269333275E+01   -0.2496589036641631E+01    0.1108587619168545E-03
   -0.3383959865717039E-02   -0.2496589036641631E+01    0.8107259626499697E-04
   -0.4257768979767376E-02   -0.1225734811642590E+01    0.3415458742295127E-04
   -0.5251592448511476E-02    0.2619486024420446E-01    0.1038724387186775E-03
   -0.5676060312425064E-02    0.1278221569065707E+01    0.8224601702167000E-04
    0.9003209617952568E+00    0.1608979112280158E+01    0.8704140727638895E-04
    0.3983172210692289E+01   -0.1561211904840279E+01    0.1757116720369489E-03
    0.4035602039224468E+01    0.1486760030415519E+01    0.1713312862101634E-03
    0.1036613723302903E+01   -0.1455626429916847E+01    0.1047189301531803E-03
    0.1094353480630802E+01   -0.2964622010671855E+00    0.1260590236915046E-03
    0.7298400267479992E+00    0.6874684746719113E+00    0.1044598640543287E-03
    0.1617018659308945E+01    0.8553208024939360E+00    0.1529810904972170E-03
    0.2143199662875791E+01   -0.1627128509216730E+01    0.1606170425225157E-03
    0.4088840445400889E+01   -0.4351047825936264E+00    0.2719933294107461E-03
    0.2977916511248925E+01   -0.8334991483094498E+00    0.2245596931858547E-03
    0.3044093241383419E+01   -0.1814361225108581E+01    0.1617000112423282E-03
    0.3427866614805211E+01    0.3813904839972496E+00    0.2936955483430760E-03
    0.4313225355351750E+01    0.5489133376342494E+00    0.2313009573592927E-03
    0.1823032737597358E+01    0.1771265193544255E+01    0.1836202887149916E-03
    0.2806311152168375E+01    0.1358629373600681E+01    0.1943492163984373E-03
    0.1891860875936711E+01   -0.8481310365607539E+00    0.1670645501812843E-03
    0.2268769200166910E+01    0.7723691819196565E-01    0.2072307783084762E-03
    0.5000000000000000E+01    0.2504941971167291E+01    0.1250000000000000E+01
    0.5000000000000000E+01    0.2504941971167291E+01    0.2500000000000000E+01
    0.5000000000000000E+01    0.2504941971167291E+01    0.3750000000000000E+01
    0.5000000000000000E+01    0.2504941971167291E+01    0.5000000000000000E+01
    0.3750000000000000E+01    0.2504941971167291E+01    0.5000000000000000E+01
    0.2500000000000000E+01    0.2504941971167291E+01    0.5000000000000000E+01
    0.1250000000000000E+01    0.2504941971167291E+01    0.5000000000000000E+01
    0.0000000000000000E+00    0.2504941971167291E+01    0.5000000000000000E+01
    0.0000000000000000E+00    0.2504941971167291E+01    0.3750000000000000E+01
    0.0000000000000000E+00    0.2504941971167291E+01    0.2500000000000000E+01
    0.0000000000000000E+00    0.2504941971167291E+01    0.1250000000000000E+01
    0.9588956434871083E+00    0.2504941971167291E+01    0.9696525519543872E+00
    0.3981953078951402E+01    0.2504941971167291E+01    0.4070563854751271E+01
    0.4036122187252336E+01    0.2504941971167291E+01    0.1017567520094671E+01
    0.9637572773153888E+00    0.2504941971167291E+01    0.3973598203142229E+01
    0.1546540136992396E+01    0.2504941971167291E+01    0.2931570169315600E+01
    0.6973799521244313E+00    0.2504941971167291E+01    0.3070319952453756E+01
    0.8903742148356882E+00    0.2504941971167291E+01    0.2056562238187738E+01
    0.2183041995146012E+01    0.2504941971167291E+01    0.3960694449828019E+01
    0.3855844872709870E+01    0.2504941971167291E+01    0.2933250588118630E+01
    0.3152611367438029E+01    0.2504941971167291E+01    0.3637668388416195E+01
    0.3103307385241870E+01    0.2504941971167291E+01    0.4332607813099731E+01
    0.3266711045517939E+01    0.2504941971167291E+01    0.1889656617463738E+01
    0.4232537554484796E+01    0.2504941971167291E+01    0.1918626969802351E+01
    0.1905522374036519E+01    0.2504941971167291E+01    0.7226290832134604E+00
    0.2879767723645805E+01    0.2504941971167291E+01    0.9080945892181981E+00
    0.2012711365064515E+01    0.2504941971167291E+01    0.1767082390977754E+01
    0.2669681472994637E+01    0.2504941971167291E+01    0.2853394335010791E+01
    0.5000000000000000E+01    0.1250000000000000E+01    0.5000000000000000E+01
    0.5000000000000000E+01    0.0000000000000000E+00    0.5000000000000000E+01
    0.5000000000000000E+01   -0.1250000000000000E+01    0.5000000000000000E+01
    0.5000000000000000E+01   -0.2496589036641631E+01    0.5000000000000000E+01
    0.5000000000000000E+01   -0.2496589036641631E+01    0.3750000000000000E+01
    0.5000000000000000E+01   -0.2496589036641631E+01    0.2500000000000000E+01
    0.5000000000000000E+01   -0.2496589036641631E+01    0.1250000000000000E+01
    0.5000000000000000E+01    0.1578994732800803E+01    0.9058375365086910E+00
    0.5000000000000000E+01   -0.1583989954232354E+01    0.3982050490726493E+01
    0.5000000000000000E+01    0.1453322699199022E+01    0.4033849428301197E+01
    0.5000000000000000E+01   -0.1479596339503735E+01    0.1040505887381675E+01
    0.5000000000000000E+01   -0.3227322616384110E+00    0.1099454400140349E+01
    0.5000000000000000E+01    0.6593508822075582E+00    0.7354504170366591E+00
    0.5000000000000000E+01    0.8256214013940779E+00    0.1622302608453282E+01
    0.5000000000000000E+01   -0.1650070333782557E+01    0.2145871574390382E+01
    0.5000000000000000E+01   -0.4612828702537229E+00    0.4086422318222992E+01
    0.5000000000000000E+01   -0.8579242121530853E+00    0.2979540174134984E+01
    0.5000000000000000E+01   -0.1836846154397680E+01    0.3045064261640043E+01
    0.5000000000000000E+01    0.3508002863614053E+00    0.3428197553792836E+01
    0.5000000000000000E+01    0.5185680230613409E+00    0.4309693860063405E+01
    0.5000000000000000E+01    0.1738996113203182E+01    0.1827272193562204E+01
    0.5000000000000000E+01    0.1325493893339706E+01    0.2808563282768077E+01
    0.5000000000000000E+01   -0.8731419609589618E+00    0.1895995683864404E+01
    0.5000000000000000E+01    0.4906150219227333E-01    0.2273179336307740E+01
    0.0000000000000000E+00    0.1250000000000000E+01    0.5000000000000000E+01
    0.0000000000000000E+00    0.0000000000000000E+00    0.5000000000000000E+01
    0.0000000000000000E+00   -0.1250000000000000E+01    0.5000000000000000E+01
    0.0000000000000000E+00   -0.2496589036641631E+01    0.5000000000000000E+01
    0.1250000000000000E+01   -0.2496589036641631E+01    0.5000000000000000E+01
    0.2500000000000000E+01   -0.2496589036641631E+01    0.5000000000000000E+01
    0.3750000000000000E+01   -0.2496589036641631E+01    0.5000000000000000E+01
    0.4042003247744892E+01    0.1558308132739014E+01    0.5000000000000000E+01
    0.9304122287900499E+00   -0.1548001304379777E+01    0.5000000000000000E+01
    0.1037243024609388E+01    0.1462892710085612E+01    0.5000000000000000E+01
    0.3946240828834967E+01   -0.1445243809615570E+01    0.5000000000000000E+01
    0.4092527262848217E+01   -0.3455338993778935E+00    0.5000000000000000E+01
    0.4293103109154542E+01    0.6277660831404320E+00    0.5000000000000000E+01
    0.3241512314643519E+01    0.7429886854239611E+00    0.5000000000000000E+01
    0.2844289952419609E+01   -0.1588117879734118E+01    0.5000000000000000E+01
    0.7159905765450471E+00   -0.6002320124191652E+00    0.5000000000000000E+01
    0.1754341919796891E+01   -0.7398147869923652E+00    0.5000000000000000E+01
    0.1870296826774691E+01   -0.1788622905643739E+01    0.5000000000000000E+01
    0.9220614901912976E+00    0.3083720183248586E+00    0.5000000000000000E+01
    0.3101523624086016E+01    0.1777901774806180E+01    0.5000000000000000E+01
    0.2192512063922564E+01    0.1576861561598471E+01    0.5000000000000000E+01
    0.2024793420196460E+01    0.4773861992750707E+00    0.5000000000000000E+01
    0.2990627757741975E+01   -0.4878110785814084E+00    0.5000000000000000E+01
    0.0000000000000000E+00   -0.2496589036641631E+01    0.1250000000000000E+01
    0.0000000000000000E+00   -0.2496589036641631E+01    0.2500000000000000E+01
    0.0000000000000000E+00   -0.2496589036641631E+01    0.3750000000000000E+01
    0.0000000000000000E+00    0.1558308132739014E+01    0.4042003247744892E+01
    0.0000000000000000E+00   -0.1548001304379777E+01    0.9304122287900499E+00
    0.0000000000000000E+00    0.1462892710085612E+01    0.1037243024609388E+01
    0.0000000000000000E+00   -0.1445243809615570E+01    0.3946240828834967E+01
    0.0000000000000000E+00   -0.3455338993778935E+00    0.4092527262848217E+01
    0.0000000000000000E+00    0.6277660831404320E+00    0.4293103109154542E+01
    0.0000000000000000E+00    0.7429886854239611E+00    0.3241512314643519E+01
    0.0000000000000000E+00   -0.1588117879734118E+01    0.2844289952419609E+01
    0.0000000000000000E+00   -0.6002320124191652E+00    0.7159905765450471E+00
    0.0000000000000000E+00   -0.7398147869923652E+00    0.1754341919796891E+01
    0.0000000000000000E+00   -0.1788622905643739E+01    0.1870296826774691E+01
    0.0000000000000000E+00    0.3083720183248586E+00    0.9220614901912976E+00
    0.0000000000000000E+00    0.1777901774806180E+01    0.3101523624086016E+01
    0.0000000000000000E+00    0.1576861561598471E+01    0.2192512063922564E+01
[...]
POINT_DATA 213
SCALARS rho double 1
LOOKUP_TABLE default
   0.1346125694799488E+01
   0.9572084527698856E+00
   0.9461020639211357E+00
   0.9421833078005956E+00
   0.8436100786780300E+00
   0.7742024922847145E+00
   0.7627632914266756E+00
   0.7661496233439397E+00
   0.8310481703386774E+00
   0.9353608197736559E+00
   0.9344036384018163E+00
   0.9615898876554420E+00
   0.1448480208898696E+01
   0.1495421840749721E+01
   0.1646754928392573E+01
   0.1426608058879071E+01
   0.1009808068726071E+01
   0.9511456929649179E+00
   0.9438291099791504E+00
   0.9574489508665579E+00
   0.9414832416692104E+00
   0.1037118221429511E+01
   0.9258147537236350E+00
   0.9322497228234226E+00
   0.9538141799817754E+00
   0.9520438484286474E+00
   0.9350971720266291E+00
   0.9565537237247200E+00
   0.9378700247643846E+00
   0.9303318784960893E+00
   0.9446515867341662E+00
   0.8862352513714586E+00
   0.9424046836504067E+00
   0.9637217258767009E+00
   0.1008362577746411E+01
   0.1006713364964686E+01
   0.1001959240598342E+01
   0.1003218316303131E+01
   0.1004120538097120E+01
   0.1005207992648869E+01
   0.1004249813844999E+01
   0.1008267843887174E+01
   0.1023867443071860E+01
   0.1063751875329063E+01
   0.1019386187167997E+01
   0.1001778934105113E+01
   0.9645975238514620E+00
   0.1005263110533507E+01
   0.1000745578325699E+01
   0.1008695104818922E+01
   0.1008032475148545E+01
   0.1002354650887902E+01
   0.9980224682756361E+00
   0.1000594440613364E+01
   0.1001621537595631E+01
   0.9828107810759765E+00
   0.9844011042080307E+00
   0.9834292502878225E+00
   0.9790423922949222E+00
   0.9904798796879870E+00
   0.9935224893985900E+00
   0.1002009103548679E+01
   0.1002132312054539E+01
   0.1002273033588854E+01
   0.1001793219496491E+01
   0.1009814972853568E+01
   0.1006499311750843E+01
   0.9560849991010073E+00
   0.9252996567744326E+00
   0.1007053712664340E+01
   0.1004491538496514E+01
   0.9144889717410860E+00
   0.9091476761103945E+00
   0.8752502590497055E+00
   0.9768039036236534E+00
   0.1000530366596377E+01
   0.1005826553461340E+01
   0.1012895293772603E+01
   0.1011677102428339E+01
   0.1010415988345228E+01
   0.1005456560094549E+01
   0.9909260254556815E+00
   0.1005152543422404E+01
   0.9860803849557831E+00
   0.1005592650639126E+01
   0.1004239968493897E+01
   0.1002886283630869E+01
   0.1003350788890112E+01
   0.1003998912070561E+01
   0.1005116700255501E+01
   0.1003224183260919E+01
   0.1002669183692499E+01
   0.1002590255900666E+01
   0.1004070004663921E+01
   0.1004304937934242E+01
   0.1001643036014983E+01
   0.1002279357350936E+01
   0.1002547248849730E+01
   0.1003472641583546E+01
   0.1003380931079370E+01
   0.1003233776575619E+01
   0.1004430854294987E+01
   0.1004325283195159E+01
   0.1003653379482932E+01
   0.1003719191866065E+01
   0.1004319534146519E+01
   0.1004463155507311E+01
   0.1003629980588780E+01
   0.1064490581512265E+01
   0.1028445780971712E+01
   0.1009607603151312E+01
   0.1006626774105416E+01
   0.1163979474294730E+01
   0.1086026004524934E+01
   0.1007908398974532E+01
   0.1007252664643175E+01
   0.1006796746944591E+01
   0.1013053608650708E+01
   0.1019342644428733E+01
   0.1235143811208750E+01
   0.1032536232941683E+01
   0.1046567728936132E+01
   0.1201703012929558E+01
   0.1014671125335845E+01
   0.1032295324204661E+01
   0.1028222151039544E+01
   0.1014641483576520E+01
   0.1029002257775232E+01
   0.1002002818487251E+01
   0.9607830581123260E+00
   0.1006859706960943E+01
   0.1001326954017767E+01
   0.1010800868394603E+01
   0.1012237273239349E+01
   0.1000940436430093E+01
   0.9979317235363304E+00
   0.9980683699399019E+00
   0.1001191956731895E+01
   0.9841985797788592E+00
   0.9815070579491287E+00
   0.9648654914823270E+00
   0.9680713427468234E+00
   0.9914149190848990E+00
   0.9910916479258617E+00
   0.9925598184554905E+00
   0.1001728510390164E+01
   0.9993250772522966E+00
   0.9941444029326855E+00
   0.1006981383549103E+01
   0.1022611654055051E+01
   0.1001121691838408E+01
   0.1008784265590432E+01
   0.1004775043990768E+01
   0.1009029447312610E+01
   0.9967197949835588E+00
   0.1005567613157460E+01
   0.1003325685875792E+01
   0.9949865129989314E+00
   0.9833521892985307E+00
   0.9944521638662723E+00
   0.9973482230933386E+00
   0.9932519263826585E+00
   0.1001312608257804E+01
   0.1003001448729934E+01
   0.1002189173489839E+01
   0.9947119516208366E+00
   0.9937839725528603E+00
   0.1004862069434489E+01
   0.1020102936715139E+01
   0.1005341234396261E+01
   0.9817063601323961E+00
   0.1004975501330321E+01
   0.1012376568818133E+01
   0.9873747459367841E+00
   0.9551282272201773E+00
   0.9865280377092389E+00
   0.9865952832725751E+00
   0.9920084248913109E+00
   0.9934470865515083E+00
   0.9960657346574087E+00
   0.1037405690911545E+01
   0.1033165796318661E+01
   0.1001443358076245E+01
   0.1001929574477501E+01
   0.9912286695833533E+00
   0.9911121698791686E+00
   0.9649300819276662E+00
   0.9933729920336427E+00
   0.1006089075114566E+01
   0.1001962080818380E+01
   0.9908628495099959E+00
   0.9742274508258597E+00
   0.9420781785273922E+00
   0.9821604770980679E+00
   0.9794777371330614E+00
   0.9704352201628056E+00
   0.9720842372307915E+00
   0.9557868488255793E+00
   0.9497981758166568E+00
   0.9529847958428813E+00
   0.1002637256815714E+01
   0.1002476301971339E+01
   0.1000513242293296E+01
   0.1001675737927712E+01
   0.9610108169555049E+00
   0.9492469479945090E+00
   0.9586432519823795E+00
   0.1001121462572087E+01
   0.1000500591165822E+01
   0.1001161102498034E+01
   0.9807429277002104E+00
   0.9805608284057312E+00
   0.9629214371749767E+00
SCALARS u double 1
LOOKUP_TABLE default
   0.0000000000000000E+00
   0.0000000000000000E+00
   0.0000000000000000E+00
   0.0000000000000000E+00
   0.0000000000000000E+00
   0.0000000000000000E+00
   0.0000000000000000E+00
   0.0000000000000000E+00
   0.0000000000000000E+00
   0.0000000000000000E+00
   0.0000000000000000E+00
   0.0000000000000000E+00
   0.0000000000000000E+00
   0.0000000000000000E+00
   0.0000000000000000E+00
   0.0000000000000000E+00
   0.0000000000000000E+00
   0.0000000000000000E+00
   0.0000000000000000E+00
   0.0000000000000000E+00
   0.0000000000000000E+00
   0.0000000000000000E+00
   0.0000000000000000E+00
   0.0000000000000000E+00
   0.0000000000000000E+00
   0.0000000000000000E+00
   0.0000000000000000E+00
   0.0000000000000000E+00
   0.0000000000000000E+00
   0.0000000000000000E+00
   0.0000000000000000E+00
   0.0000000000000000E+00
   0.0000000000000000E+00
   0.4946084386993524E+00
   0.5336296229756914E+00
   0.5182737288498381E+00
   0.4930696975865620E+00
   0.4847718119881861E+00
   0.4868108136442078E+00
   0.4891429098093132E+00
   0.4958014376696509E+00
   0.4899016128297540E+00
   0.4718097598371854E+00
   0.4448926899542655E+00
   0.4844425910253514E+00
   0.5097672108167695E+00
   0.4402157107713949E+00
   0.4949584587177299E+00
   0.5222981757325368E+00
   0.4962761335115224E+00
   0.5223877813981997E+00
   0.5038134104745512E+00
   0.5644352140018457E+00
   0.5245862238886801E+00
   0.4990946955319628E+00
   0.5729384847979160E+00
   0.5693720713982601E+00
   0.3752129680642814E+00
   0.4003935337901758E+00
   0.5599622500294615E+00
   0.5562276758869651E+00
   0.4942631174520394E+00
   0.4948654038981132E+00
   0.4925634782339311E+00
   0.4913991786263620E+00
   0.5162611628861949E+00
   0.5363588932426845E+00
   0.4951213607565104E+00
   0.4520531594596799E+00
   0.5129024774485870E+00
   0.5117690526057175E+00
   0.4786251287357776E+00
   0.4931155293895125E+00
   0.4600306954847105E+00
   0.5242629199214057E+00
   0.5299866667556207E+00
   0.5129711999011740E+00
   0.5328938855257167E+00
   0.5309772093607890E+00
   0.5309771259842826E+00
   0.5063651410030046E+00
   0.5279605766316231E+00
   0.5409254473562259E+00
   0.5363677255219782E+00
   0.5374194372006749E+00
   0.4965359093572006E+00
   0.4975361620511641E+00
   0.4963807509414335E+00
   0.4955144774570563E+00
   0.4904151887311852E+00
   0.4902491479130301E+00
   0.4861626503328911E+00
   0.4854037740486240E+00
   0.4931941380540749E+00
   0.4910329234573699E+00
   0.4831698316999535E+00
   0.4872469606633580E+00
   0.4880010970938756E+00
   0.4872294037415690E+00
   0.4882160211846453E+00
   0.4952567366074463E+00
   0.4900705809563707E+00
   0.4903581267292219E+00
   0.4944346859737090E+00
   0.4868163398039215E+00
   0.4892720557337947E+00
   0.4881455379228202E+00
   0.4878245185054130E+00
   0.4449022026058361E+00
   0.4700099664054339E+00
   0.4891756201711639E+00
   0.4885980866242063E+00
   0.4510286412384677E+00
   0.4681799610870992E+00
   0.4876648975168920E+00
   0.4868253758020697E+00
   0.4909267533067794E+00
   0.4793946319309051E+00
   0.4657884653235307E+00
   0.3794302312466283E+00
   0.4903697421068039E+00
   0.4487929174591138E+00
   0.4432385355146536E+00
   0.4845729179180137E+00
   0.4621884481230258E+00
   0.4663602298821450E+00
   0.4747774268384315E+00
   0.4893613111949477E+00
   0.5085681474525523E+00
   0.4304904287052721E+00
   0.4927280753845451E+00
   0.5320316185122080E+00
   0.4913826501723771E+00
   0.5209404404611955E+00
   0.5061319828037628E+00
   0.5690636320484882E+00
   0.5275039918499677E+00
   0.5015047795271238E+00
   0.5821373618550292E+00
   0.5691503700150758E+00
   0.3402452490584020E+00
   0.3785432685513290E+00
   0.5753091283257330E+00
   0.5668547247078701E+00
   0.5703055450884127E+00
   0.5291879661538432E+00
   0.5449833828586483E+00
   0.5719093999180256E+00
   0.5385694587039090E+00
   0.5475896936818103E+00
   0.5821565652872552E+00
   0.4925313045941636E+00
   0.5041557177606208E+00
   0.4961299804084143E+00
   0.5562803684715482E+00
   0.4757814624136989E+00
   0.4950174786287630E+00
   0.5496174671906477E+00
   0.5889519110689351E+00
   0.5839568630927726E+00
   0.5468163497855141E+00
   0.5803877175562164E+00
   0.5106055693623714E+00
   0.5029532236583071E+00
   0.5033085380544348E+00
   0.5676232052848273E+00
   0.5564629528825712E+00
   0.4947135441238647E+00
   0.5506799461272128E+00
   0.5513545696792002E+00
   0.5658254157185995E+00
   0.4919953536772947E+00
   0.4927852057903971E+00
   0.3865438337967252E+00
   0.3687907202028811E+00
   0.5574381187301711E+00
   0.5761778935204247E+00
   0.4194381851592962E+00
   0.5822999347170672E+00
   0.4268238595714787E+00
   0.5397390504891439E+00
   0.5016174621411372E+00
   0.5119228250841902E+00
   0.5048434167804972E+00
   0.5752768158075116E+00
   0.5878367583815461E+00
   0.5382358738597796E+00
   0.5679645541080491E+00
   0.5352016964044969E+00
   0.5338463699411080E+00
   0.5582293100211124E+00
   0.5511563292970185E+00
   0.4256775843158039E+00
   0.5272986084049551E+00
   0.5796794667547098E+00
   0.3318312940171051E+00
   0.4761441131745593E+00
   0.5446494937214386E+00
   0.4800669226999173E+00
   0.3006201115511710E+00
   0.5031625243238610E+00
   0.5017180912986864E+00
   0.5129133729564780E+00
   0.5414117117759619E+00
   0.3435217014693036E+00
   0.3398080158406893E+00
   0.3190194433768539E+00
   0.5066187044992903E+00
   0.5123864689663080E+00
   0.5329068385987616E+00
   0.5881307275852027E+00
   0.4644883168895532E+00
   0.3529622376732489E+00
SCALARS v double 1
LOOKUP_TABLE default
   0.0000000000000000E+00
   0.0000000000000000E+00
   0.0000000000000000E+00
   0.0000000000000000E+00
   0.0000000000000000E+00
   0.0000000000000000E+00
   0.0000000000000000E+00
   0.0000000000000000E+00
   0.0000000000000000E+00
   0.0000000000000000E+00
   0.0000000000000000E+00
   0.0000000000000000E+00
   0.0000000000000000E+00
   0.0000000000000000E+00
   0.0000000000000000E+00
   0.0000000000000000E+00
   0.0000000000000000E+00
   0.0000000000000000E+00
   0.0000000000000000E+00
   0.0000000000000000E+00
   0.0000000000000000E+00
   0.0000000000000000E+00
   0.0000000000000000E+00
   0.0000000000000000E+00
   0.0000000000000000E+00
   0.0000000000000000E+00
   0.0000000000000000E+00
   0.0000000000000000E+00
   0.0000000000000000E+00
   0.0000000000000000E+00
   0.0000000000000000E+00
   0.0000000000000000E+00
   0.0000000000000000E+00
   0.0000000000000000E+00
   0.0000000000000000E+00
   0.0000000000000000E+00
   0.0000000000000000E+00
   0.0000000000000000E+00
   0.0000000000000000E+00
   0.0000000000000000E+00
   0.0000000000000000E+00
   0.0000000000000000E+00
   0.0000000000000000E+00
   0.0000000000000000E+00
   0.0000000000000000E+00
   0.0000000000000000E+00
   0.0000000000000000E+00
   0.0000000000000000E+00
   0.0000000000000000E+00
   0.0000000000000000E+00
   0.0000000000000000E+00
   0.0000000000000000E+00
   0.0000000000000000E+00
   0.0000000000000000E+00
   0.0000000000000000E+00
   0.0000000000000000E+00
   0.0000000000000000E+00
   0.0000000000000000E+00
   0.0000000000000000E+00
   0.0000000000000000E+00
   0.0000000000000000E+00
   0.8513955811862305E-03
  -0.1262645973794358E-02
  -0.1293747166382521E-02
   0.0000000000000000E+00
   0.0000000000000000E+00
   0.0000000000000000E+00
   0.0000000000000000E+00
  -0.1933774508436242E-01
   0.5035656894059442E-03
   0.2213150714502668E-02
   0.1419313535297091E-01
  -0.6753674560649166E-02
  -0.8171004500861662E-02
  -0.1325788721839167E-01
   0.4993929179315655E-02
   0.7358933660184401E-03
   0.3478388746655034E-02
   0.1946723825224481E-02
   0.3168072237641557E-02
   0.1755557768422259E-02
  -0.7295454669116544E-02
  -0.6912294741398112E-04
   0.4552258090853201E-02
  -0.4165983997967632E-03
  -0.6650692316120827E-04
  -0.2024618789877346E-03
   0.8052041918873180E-03
   0.0000000000000000E+00
   0.0000000000000000E+00
   0.0000000000000000E+00
   0.0000000000000000E+00
   0.4747329015415884E-03
   0.1624022890335202E-02
  -0.1273125039758662E-02
  -0.9977717355664792E-03
  -0.2076428489908419E-02
  -0.9960614931515495E-03
  -0.7502640188197698E-03
  -0.7419340521052894E-03
   0.6055382081772264E-04
  -0.5966235828529337E-03
   0.8041021996299413E-03
  -0.1730002246123483E-02
   0.3146405610926868E-03
  -0.5710222946356597E-04
  -0.8890514588980250E-03
  -0.1052087314099955E-02
   0.0000000000000000E+00
   0.0000000000000000E+00
   0.0000000000000000E+00
  -0.1035601499315841E-02
  -0.7789944219966307E-02
   0.1821259126430257E-01
  -0.2902416832243639E-04
  -0.1377098223158198E-02
  -0.2028456949800886E-02
  -0.5613671771399344E-02
  -0.1620474384733294E-02
  -0.6357462323777983E-02
  -0.4327186040470164E-02
   0.1517793742393847E-02
   0.3300594270725422E-01
   0.4394529891664191E-04
  -0.2766565870047882E-02
   0.3629287490323916E-02
   0.3910358759832972E-03
   0.0000000000000000E+00
   0.0000000000000000E+00
   0.0000000000000000E+00
   0.0000000000000000E+00
   0.0000000000000000E+00
   0.0000000000000000E+00
   0.0000000000000000E+00
   0.0000000000000000E+00
   0.0000000000000000E+00
   0.0000000000000000E+00
   0.0000000000000000E+00
   0.0000000000000000E+00
   0.0000000000000000E+00
   0.0000000000000000E+00
   0.0000000000000000E+00
   0.0000000000000000E+00
   0.0000000000000000E+00
   0.5001778194301302E-02
   0.3214065062862518E-02
   0.8126045452904388E-02
   0.6096300950571896E-02
   0.1117411732824438E-01
   0.1403811528301646E-01
  -0.3216221136258775E-03
   0.5161911442166138E-02
   0.2930107582919905E-02
   0.3378096199376220E-02
   0.3728544905164268E-02
  -0.1469573980003358E-01
  -0.6136953940136847E-03
   0.6639776175211458E-02
   0.1457244625617878E-02
   0.1959300742850564E-02
   0.4263980416918468E-02
  -0.2812426141706582E-02
   0.1267609559344399E-02
   0.2851959406488718E-02
   0.1534868024482854E-02
   0.2563344858223730E-02
   0.2013569090149010E-02
   0.2154333993445544E-02
   0.8583998694220106E-02
  -0.3830083254552327E-02
   0.6155698672104647E-02
   0.4725666726739554E-04
  -0.4231582261538232E-03
  -0.1674129340079623E-01
  -0.4996659886774853E-02
  -0.4827349433998110E-02
   0.3399378243965445E-02
  -0.6077437480017746E-02
   0.3194967651226145E-04
  -0.3284948881620151E-01
  -0.3181989492213769E-02
   0.4581319064856352E-02
   0.9682240425777605E-03
   0.2133486655380123E-02
   0.4530687694528387E-02
   0.2692787736068531E-02
   0.3243073205161200E-02
   0.5223605123714535E-02
   0.1957627585406034E-02
   0.7485460432738498E-03
  -0.5693750600006105E-04
  -0.5322690150728009E-02
  -0.6972866683316464E-02
  -0.9635302968118140E-03
   0.1062718468046930E-02
  -0.2106021481895186E-02
  -0.3219291746158942E-02
  -0.2544864643407867E-02
  -0.4131306126131558E-02
  -0.7566170046231787E-02
  -0.2012358478751750E-02
   0.6515130058579802E-03
  -0.1916276745358751E-03
   0.1227816732432547E-02
  -0.3502806487757776E-02
   0.4846684259775805E-02
  -0.8642681612877116E-02
   0.3341928697691565E-04
  -0.3327777782652527E-03
   0.2558606052206272E-02
   0.1615750369082625E-02
   0.2039006090963919E-02
  -0.5641501457436250E-02
SCALARS w double 1
LOOKUP_TABLE default
   0.0000000000000000E+00
   0.0000000000000000E+00
   0.0000000000000000E+00
   0.0000000000000000E+00
   0.0000000000000000E+00
   0.0000000000000000E+00
   0.0000000000000000E+00
   0.0000000000000000E+00
   0.0000000000000000E+00
   0.0000000000000000E+00
   0.0000000000000000E+00
   0.0000000000000000E+00
   0.0000000000000000E+00
   0.0000000000000000E+00
   0.0000000000000000E+00
   0.0000000000000000E+00
   0.0000000000000000E+00
   0.0000000000000000E+00
   0.0000000000000000E+00
   0.0000000000000000E+00
   0.0000000000000000E+00
   0.0000000000000000E+00
   0.0000000000000000E+00
   0.0000000000000000E+00
   0.0000000000000000E+00
   0.0000000000000000E+00
   0.0000000000000000E+00
   0.0000000000000000E+00
   0.0000000000000000E+00
   0.0000000000000000E+00
   0.0000000000000000E+00
   0.0000000000000000E+00
   0.0000000000000000E+00
  -0.1007241857811199E+00
  -0.4245528614456137E-01
   0.7158753342147666E-03
   0.5704943508373793E-02
   0.5684952988005460E-03
   0.1606878236919655E-02
   0.3372604809871583E-02
   0.2364299407727176E-02
   0.4720647231032363E-03
   0.3528387233239912E-02
   0.4533336069993758E-01
   0.6563397479780797E-01
   0.8384124288457450E-03
  -0.2266132320856951E-01
   0.4271064981877569E-02
   0.1341970173203415E-01
   0.1029750710247954E-01
   0.4870834203597357E-01
   0.2381551739849330E-02
  -0.6534999688325503E-02
  -0.7372433809066138E-03
   0.3056375843518414E-03
   0.3846852337443412E-02
  -0.3893635248438045E-01
   0.1820273583950064E-01
   0.1120446067346037E-01
   0.3395774044575668E-01
   0.8380191409743094E-02
   0.4924617809261280E-02
   0.4973761374242041E-02
   0.4900522942014023E-02
   0.6056718439472955E-02
   0.2695309328971399E-02
  -0.4127769733683324E-01
  -0.9927104317521840E-01
  -0.1120360380747825E+00
   0.5144525321908015E-02
   0.4216388373211023E-02
  -0.1002595860498187E+00
  -0.9892594348324169E-01
  -0.9835483711117747E-01
  -0.9443969380244481E-01
  -0.6790972039233618E-01
   0.5196996599531419E-02
  -0.1927315221811556E-01
  -0.1563508313440370E-01
  -0.5964345942557537E-02
   0.6822779742896033E-02
  -0.7999951889478070E-01
  -0.2776431479536585E-01
  -0.8086526756697641E-01
  -0.5863339145969081E-01
   0.3073989813232018E-02
   0.2685175153804808E-02
   0.2644703083899401E-02
   0.3457404378212992E-02
   0.3998529301713053E-02
   0.1199876503920637E-02
  -0.1355432423743563E-03
   0.2028966161415866E-02
   0.4894373679366831E-02
   0.3864560761516646E-02
   0.1126430746217038E-02
   0.1188310616218061E-02
   0.1460245279956556E-02
  -0.2199458705770395E-04
   0.9121998183335024E-04
   0.4387187200568826E-02
   0.2712579861042207E-02
   0.2317255087091945E-02
   0.5007037340839697E-02
   0.1069971415961832E-02
   0.2707114403226815E-02
   0.2010664720080588E-02
   0.3391929619272421E-04
   0.8386260353138100E-01
   0.2832480963933066E-02
  -0.8469296579374423E-03
  -0.1274285268556701E-03
   0.1410903979832559E+00
   0.1236626536424300E+00
  -0.1228867734423885E-02
  -0.4383136242954418E-02
  -0.2804612760071786E-03
  -0.6477826836595327E-02
  -0.1895598713362168E-02
   0.1559394040485170E+00
   0.7528604328465986E-01
   0.2567550695143377E-01
   0.1661313051479512E+00