# vtk DataFile Version 2.0
FUN3D:global_image_vtk
ASCII
DATASET UNSTRUCTURED_GRID
POINTS 213 double
   -0.5474738059504602E-02    0.5000000000000014E-30    0.2504941999961484E+01
    0.1212121212121201E-30    0.8055550996138860E-04    0.5000000000000000E-30
    0.1245419063214956E+01    0.1000000000000003E-29    0.2504941999961484E+01
    0.1212121212121201E-30    0.1041110799572809E-03    0.1000000000000000E-29
    0.2497696076329003E+01    0.5000000000000000E-30    0.2504941999961484E+01
    0.1212121212121201E-30    0.1102916248165164E-03    0.5000000000000000E-30
    0.3750590986574023E+01    0.1000000000000000E-29    0.2504941999961484E+01
    0.1212121212121201E-30    0.1358046305401372E-03    0.1000000000000000E-29
    0.5003221380247613E+01    0.5000000000000000E-30    0.2504941999961484E+01
    0.1212121212121201E-30    0.9683523344461431E-04    0.5000000000000000E-30
    0.5004676745410213E+01    0.1000000000000000E-29    0.1281291377273527E+01
    0.4999999999999934E-30    0.1639128333390527E-03    0.1000000000000000E-29
    0.5004772723164809E+01    0.4999999999999987E-30    0.2775094235895190E-01
    0.9999999999999948E-30    0.1904167401678425E-03    0.5000000000000000E-30
    0.5003581213732991E+01    0.1000000000000000E-29   -0.1225853394964910E+01
    0.4999999999999947E-30    0.1608071321506643E-03    0.1000000000000000E-29
    0.5001952545688034E+01    0.5000000000000000E-30   -0.2496589021166458E+01
    0.1212121212121207E-30    0.1082184661237440E-03    0.5000000000000000E-30
    0.3750348114452023E+01    0.1000000000000000E-29   -0.2496589021166458E+01
    0.1212121212121207E-30    0.1458710028767740E-03    0.1000000000000000E-29
    0.2498611455860786E+01    0.5000000000000000E-30   -0.2496589021166458E+01
    0.1212121212121207E-30    0.1008914036254582E-03    0.5000000000000000E-30
    0.1247175253529147E+01    0.1000000000000000E-29   -0.2496589021166458E+01
    0.1212121212121207E-30    0.1108597702464409E-03    0.1000000000000000E-29
   -0.3383978115785169E-02    0.5000000000000014E-30   -0.2496589021166458E+01
    0.1212121212121207E-30    0.8107707488508309E-04    0.5000000000000000E-30
   -0.4257799575230425E-02    0.1000000000000000E-29   -0.1225734704378883E+01
    0.4999999999999947E-30    0.3420054752112378E-04    0.1000000000000000E-29
   -0.5251637157060784E-02    0.5000000000000014E-30    0.2619498345569626E-01
    0.9999999999999948E-30    0.1039613540431139E-03    0.5000000000000000E-30
   -0.5676113931367688E-02    0.1000000000000003E-29    0.1278221711771627E+01
    0.4999999999999934E-30    0.8237742971856088E-04    0.1000000000000000E-29
    0.9003209086382191E+00    0.5000000000000014E-30    0.1608979275733105E+01
    0.9999999999999920E-30    0.8718012080222159E-04    0.5000000000000000E-30
    0.3983172220881041E+01    0.1000000000000000E-29   -0.1561211796856023E+01
    0.4999999999999947E-30    0.1757351954316810E-03    0.1000000000000000E-29
    0.4035602066125263E+01    0.5000000000000000E-30    0.1486760229513980E+01
    0.9999999999999920E-30    0.1714506678095473E-03    0.5000000000000000E-30
    0.1036613696945808E+01    0.1000000000000000E-29   -0.1455626319023465E+01
    0.4999999999999947E-30    0.1047538994854991E-03    0.1000000000000000E-29
    0.1094353438944835E+01    0.5000000000000014E-30   -0.2964620713744224E+00
    0.9999999999999920E-30    0.1261326919438921E-03    0.5000000000000000E-30
    0.7298399754953697E+00    0.1000000000000003E-29    0.6874686188446064E+00
    0.4999999999999827E-30    0.1045682047596808E-03    0.1000000000000000E-29
    0.1617018610904462E+01    0.5000000000000014E-30    0.8553209657949420E+00
    0.9999999999999813E-30    0.1530917835092516E-03    0.5000000000000000E-30
    0.2143199645120234E+01    0.1000000000000000E-29   -0.1627128401290524E+01
    0.4999999999999947E-30    0.1606433273473873E-03    0.1000000000000000E-29
    0.4088840470379843E+01    0.5000000000000000E-30   -0.4351046471404206E+00
    0.9999999999999948E-30    0.2720522799659064E-03    0.5000000000000000E-30
    0.2977916500432660E+01    0.1000000000000000E-29   -0.8334990271277849E+00
    0.4999999999998998E-30    0.2246092970106250E-03    0.1000000000000000E-29
    0.3044093236197656E+01    0.5000000000000000E-30   -0.1814361118269820E+01
    0.9999999999999975E-30    0.1617179478026198E-03    0.5000000000000000E-30
    0.3427866617085304E+01    0.1000000000000000E-29    0.3813906574464904E+00
    0.4999999999999947E-30    0.2937830712453904E-03    0.1000000000000000E-29
    0.4313225396320023E+01    0.4999999999999987E-30    0.5489135083257440E+00
    0.9999999999999813E-30    0.2313893475642814E-03    0.5000000000000000E-30
    0.1823032699632841E+01    0.1000000000000000E-29    0.1771265381755795E+01
    0.4999999999999934E-30    0.1837610807679524E-03    0.1000000000000000E-29
    0.2806311135978372E+01    0.5000000000000014E-30    0.1358629571504238E+01
    0.9999999999989624E-30    0.1944713312552748E-03    0.5000000000000000E-30
    0.1891860844560957E+01    0.1000000000000000E-29   -0.8481309128925676E+00
    0.4999999999999800E-30    0.1671170219251228E-03    0.1000000000000000E-29
    0.2268769163417530E+01    0.5000000000000014E-30    0.7723707075737757E-01
    0.9999999999999948E-30    0.2073128221063425E-03    0.5000000000000000E-30
    0.5000000000000000E+01    0.4688337953879532E-46    0.2504941999961484E+01
    0.1212121212121201E-30    0.1250000000000000E+01    0.4688337953879532E-46
    0.5000000000000000E+01    0.4688337953879532E-46    0.2504941999961484E+01
    0.1212121212121201E-30    0.2500000000000000E+01    0.4688337953879532E-46
    0.5000000000000000E+01    0.4688337953879532E-46    0.2504941999961484E+01
    0.1212121212121201E-30    0.3750000000000000E+01    0.4688337953879532E-46
    0.5000000000000000E+01    0.4688337953879532E-46    0.2504941999961484E+01
    0.1212121212121201E-30    0.5000000000000000E+01    0.4688337953879532E-46
    0.3750000000000000E+01    0.4688337953879532E-46    0.2504941999961484E+01
    0.1212121212121201E-30    0.5000000000000000E+01    0.4688337953879532E-46
    0.2500000000000000E+01    0.4688337953879532E-46    0.2504941999961484E+01
    0.1212121212121201E-30    0.5000000000000000E+01    0.4688337953879532E-46
    0.1250000000000000E+01    0.4688337953879532E-46    0.2504941999961484E+01
    0.1212121212121201E-30    0.5000000000000000E+01    0.4688337953879532E-46
   -0.4576096165819758E-19    0.4688337953879532E-46    0.2504941999961484E+01
    0.1212121212121201E-30    0.5000000000000000E+01    0.4688337953879532E-46
   -0.4576096165819758E-19    0.4688337953879532E-46    0.2504941999961484E+01
    0.1212121212121201E-30    0.3750000000000000E+01    0.4688337953879532E-46
   -0.4576096165819758E-19    0.4688337953879532E-46    0.2504941999961484E+01
    0.1212121212121201E-30    0.2500000000000000E+01    0.4688337953879532E-46
   -0.4576096165819758E-19    0.4688337953879532E-46    0.2504941999961484E+01
    0.1212121212121201E-30    0.1250000000000000E+01    0.4688337953879532E-46
    0.9588956144355161E+00    0.4088323204880913E-30    0.2504941999961484E+01
    0.1212121212121201E-30    0.9696527279204156E+00    0.8253355966551918E-30
    0.3981953084978402E+01    0.7369699780710426E-31    0.2504941999961484E+01
    0.1212121212121201E-30    0.4070563876500499E+01    0.1516277355836482E-30
    0.4036122198870731E+01    0.5331184872989686E-30    0.2504941999961484E+01
    0.1212121212121201E-30    0.1017567671852929E+01    0.8139234257758125E-30
    0.9637572703692221E+00   -0.9331067766626655E-32    0.2504941999961484E+01
    0.1212121212121201E-30    0.3973598229042282E+01    0.1306014370159984E-30
    0.1546540123352509E+01    0.8002905657939717E-31    0.2504941999961484E+01
    0.1212121212121201E-30    0.2931570247918891E+01    0.3996885550962839E-30
    0.6973799367138886E+00    0.3481309068633594E-32    0.2504941999961484E+01
    0.1212121212121201E-30    0.3070319998906840E+01    0.2100037182687806E-30
    0.8903741869765985E+00    0.7712488796415362E-31    0.2504941999961484E+01
    0.1212121212121201E-30    0.2056562332029389E+01    0.4294668085394731E-30
    0.2183041992443722E+01    0.3782461580893238E-31    0.2504941999961484E+01
    0.1212121212121201E-30    0.3960694489254670E+01    0.2259705361717156E-30
    0.3855844883881474E+01    0.1784932175603475E-30    0.2504941999961484E+01
    0.1212121212121201E-30    0.2933250643805067E+01    0.3558534735542268E-30
    0.3152611372008678E+01    0.1115283363374119E-30    0.2504941999961484E+01
    0.1212121212121201E-30    0.3637668435336390E+01    0.2959845527169848E-30
    0.3103307388029137E+01    0.5185271477161766E-31    0.2504941999961484E+01
    0.1212121212121201E-30    0.4332607836744343E+01    0.1521436499782895E-30
    0.3266711050822213E+01    0.3601961362745225E-30    0.2504941999961484E+01
    0.1212121212121201E-30    0.1889656733417950E+01    0.6353768785676775E-30
    0.4232537571805413E+01    0.2580489315430638E-30    0.2504941999961484E+01
    0.1212121212121201E-30    0.1918627039918501E+01    0.4090791405813446E-30
    0.1905522344842234E+01    0.6572817491140665E-30    0.2504941999961484E+01
    0.1212121212121201E-30    0.7226292666170522E+00    0.8977306600900005E-30
    0.2879767720433331E+01    0.6107141644547490E-30    0.2504941999961484E+01
    0.1212121212121201E-30    0.9080947549972163E+00    0.8180347387425159E-30
    0.2012711351533434E+01    0.3615868018468948E-30    0.2504941999961484E+01
    0.1212121212121201E-30    0.1767082528588959E+01    0.7060364642885433E-30
    0.2669681472765471E+01    0.1849800474545003E-30    0.2504941999961484E+01
    0.1212121212121201E-30    0.2853394418098206E+01    0.4820509466874866E-30
    0.5000000000000000E+01    0.4688337953879532E-46    0.1250000000000000E+01
    0.4688337953879532E-46    0.5000000000000000E+01    0.4688337953879532E-46
    0.5000000000000000E+01    0.4688337953879532E-46   -0.4576096165819758E-19
[...]
POINT_DATA 213
SCALARS rho double 1
LOOKUP_TABLE default
   0.1219599913617177E+01
  -0.6526407565036818E-31
   0.9221793838880249E+00
   0.2217449191231773E-31
   0.9104476812929839E+00
  -0.8034671712238059E-31
   0.8966767976560386E+00
   0.2806558972295970E-31
   0.7819488863886631E+00
  -0.7932711187942462E-32
   0.7116571317215624E+00
   0.2387655997574134E-30
   0.6990709657843203E+00
   0.9048882682256445E-31
   0.7029546921929948E+00
   0.4252343504956880E-31
   0.7687355881556732E+00
  -0.8914836450390331E-31
   0.8895232822289711E+00
   0.3337904119160798E-31
   0.8987464019091777E+00
  -0.7715173528818871E-31
   0.9249601769146797E+00
  -0.1601541228783755E-31
   0.1300246732778229E+01
  -0.1090121099799493E-30
   0.1348040885210589E+01
  -0.5523172658203826E-30
   0.1456338075679602E+01
  -0.2681109969890323E-30
   0.1286719692337438E+01
  -0.4187495198031452E-30
   0.9619642158942159E+00
  -0.4382651064678076E-31
   0.9047653980566170E+00
  -0.1613266002148769E-31
   0.8972301123591855E+00
   0.2238535003438082E-31
   0.9249192778392609E+00
  -0.1345788236266313E-31
   0.9126331843475759E+00
   0.2682093442933703E-32
   0.9866008235395426E+00
  -0.1762656601183879E-30
   0.8974308639202276E+00
  -0.4227030782741173E-31
   0.8999717894748023E+00
  -0.8274863430369450E-31
   0.9067475719166409E+00
  -0.2569583420534655E-31
   0.9112478406999990E+00
  -0.3898940808801450E-31
   0.8943866375889634E+00
  -0.1148926236766918E-31
   0.9125851103369068E+00
  -0.2531585407672896E-31
   0.8902529657865713E+00
   0.7644195701676579E-32
   0.9018652715698499E+00
  -0.3507167670883802E-31
   0.9063596825073477E+00
   0.1370389615782346E-31
   0.8623950846104210E+00
   0.3650674226530236E-31
   0.9078064541469628E+00
   0.9875007119528949E-31
   0.9506821980939932E+00
  -0.3136076128820914E-31
   0.1008490980202857E+01
   0.1583918039188549E-32
   0.1006976758480178E+01
   0.1121690827102614E-32
   0.1000145908665374E+01
  -0.5935625548771979E-33
   0.1000492870001288E+01
  -0.2315211266181052E-32
   0.1001010370654643E+01
  -0.2967943911723710E-32
   0.1002467258125896E+01
  -0.2020740237950708E-32
   0.1001944765553480E+01
  -0.1278945308633482E-33
   0.1004886098317267E+01
  -0.1727124852935025E-33
   0.1016625222136651E+01
   0.7331005506529129E-32
   0.1058313554257932E+01
   0.2243851231844568E-31
   0.1005436788048856E+01
   0.2141650237232124E-31
   0.1000007369537327E+01
  -0.1615738620198286E-32
   0.9457700490478737E+00
  -0.3686342230976555E-31
   0.1002042271947834E+01
  -0.1068146584602693E-32
   0.9982829476285285E+00
  -0.4530960375143650E-34
   0.1004492521308459E+01
   0.4396950787837739E-33
   0.1005371617840377E+01
   0.1984504456305450E-32
   0.9993111978129294E+00
  -0.2178440278301709E-32
   0.9978002667662101E+00
  -0.1220094357899217E-32
   0.9988040172539818E+00
  -0.2610784146390225E-32
   0.9987211972701867E+00
  -0.2487373853881113E-32
   0.9780928918388657E+00
  -0.3877129090161153E-32
   0.9796706142197347E+00
  -0.1919773245849649E-32
   0.9639504863509930E+00
  -0.3058349786291069E-31
   0.9601301310484454E+00
  -0.2019843135071112E-31
   0.9867991728035277E+00
  -0.4870633289720602E-32
   0.9922400513197469E+00
  -0.1350649658759954E-32
   0.1000342977223480E+01
  -0.3833983299576745E-33
   0.1000541450813971E+01
  -0.3981771849467519E-33
   0.1000671133070719E+01
  -0.4379841225454417E-33
   0.9998284135089148E+00
   0.1060462582213085E-33
   0.1009782297109930E+01
   0.2490847479690975E-32
   0.1007174224039054E+01
   0.2487664747230103E-32
   0.9448363517732424E+00
  -0.2612156609802395E-31
   0.9034576848517794E+00
  -0.3727450453015216E-31
   0.1007039898459491E+01
   0.1390286450407334E-32
   0.1004193124635585E+01
   0.3381266249186001E-33
   0.8965165777363562E+00
  -0.3780587187177980E-31
   0.8926680498152919E+00
  -0.1668325802426271E-31
   0.8470449750116096E+00
  -0.1975146523473449E-31
   0.9708429042676042E+00
  -0.6079340293048311E-32
   0.1000202431946869E+01
   0.5143495040380436E-32
   0.1006091577615686E+01
   0.3892032846692421E-33
   0.1015639761998056E+01
   0.4157343792256031E-32
   0.1012987271709634E+01
   0.4333823774378461E-32
   0.1012861697417663E+01
   0.9698617535566097E-33
   0.1005118612467288E+01
   0.5595776296593183E-33
   0.9863622640683658E+00
  -0.5004698860239311E-33
   0.1006593489931520E+01
   0.8183442533344526E-33
   0.9849764702312140E+00
   0.5653279223562448E-32
   0.1008140573348313E+01
   0.3977800909902931E-32
   0.1001902606874114E+01
  -0.2058043485189318E-33
   0.1000777962764646E+01
   0.1673400696307224E-33
   0.1001300678117649E+01
   0.3088276615025643E-33
   0.1001842923437893E+01
   0.8473190182607307E-34
   0.1002348926670445E+01
  -0.1481610327136704E-32
   0.1000286871387712E+01
  -0.2783171951626422E-32
   0.1000192914675893E+01
  -0.1725571143847056E-32
   0.9997755933120910E+00
  -0.2111966349419010E-32
   0.1001746394682107E+01
  -0.1023525128122553E-32
   0.1001907944788008E+01
  -0.1492993800422676E-32
   0.9986523977729107E+00
  -0.1817933805760376E-32
   0.9995364912100634E+00
  -0.1876250905308365E-32
   0.9999232355146830E+00
  -0.1714534417475626E-32
   0.1000198767987061E+01
  -0.2559571731181852E-32
   0.1000442941677132E+01
  -0.2194134335747292E-32
   0.1001058841351802E+01
  -0.5312622849545569E-33
   0.1001457792922562E+01
  -0.2051475352938227E-32
   0.1001331328856416E+01
  -0.2186749278119796E-32
   0.1001525818348996E+01
  -0.1226974366334703E-32
   0.1000861177977852E+01
  -0.2763641357405775E-32
   0.1001344306221305E+01
  -0.2638375942372954E-32
   0.1001108536260471E+01
  -0.2442283065146089E-32
   0.1000543854547249E+01
  -0.2518302191094950E-32
   0.1060180605604232E+01
   0.1169740103804816E-31
   0.1020434851446609E+01
   0.8928188050204668E-32
   0.1005937367251553E+01
   0.7271485047693694E-33
   0.1003463833916341E+01
   0.2295455478482665E-33
   0.1142067394351937E+01
   0.1140888908252204E-31
   0.1083370527282709E+01
   0.1859591936200703E-31
   0.1004378517860454E+01
   0.3923808594652808E-33
   0.1003909103423277E+01
   0.3769269786361513E-33
   0.1003789602179355E+01
  -0.1451410523560928E-33
   0.1006675430344192E+01
   0.3384237833429506E-32
   0.1012240635871935E+01
   0.7141959624873309E-32
   0.1193114846293328E+01
  -0.3842458930970076E-31
   0.1028000791361234E+01
   0.5187124097340578E-32
   0.1034785375862010E+01
   0.1549435806261342E-31
   0.1169417159577727E+01
   0.3150147416146048E-31
   0.1009874385357503E+01
   0.2797336928904612E-32
   0.1023546143335934E+01
   0.1041109189995341E-31
   0.1017121966024168E+01
   0.4404719730935002E-32
   0.1007875017663683E+01
   0.5139201340670438E-32
   0.1013904356827824E+01
   0.1706844760974067E-31
   0.1000120419972763E+01
  -0.1408723362719700E-32
   0.9442367766745208E+00
  -0.3559100433989794E-31
   0.1003512214009016E+01
  -0.4182326431258354E-33
   0.9988676266154475E+00
  -0.4904325449171035E-32
   0.1006433377412970E+01
   0.1903674950629237E-32
   0.1009136818442671E+01
  -0.1469557240702175E-32
   0.9979418413411582E+00
  -0.2566998995658115E-32
   0.9977846798161867E+00
  -0.1760372509680581E-32
   0.9961676217013908E+00
  -0.3077195131608802E-32
   0.9984778160662069E+00
  -0.2263109886220635E-32
   0.9810175331359640E+00
  -0.1170125575298291E-31
   0.9780877552761849E+00
  -0.6293878730395564E-32
   0.9479693804094960E+00
  -0.3581682892586006E-31
   0.9505424156674046E+00
  -0.3988264910918639E-31
   0.9877990056526725E+00
  -0.9720938135363459E-32
   0.9899199084747524E+00
  -0.3810122573240125E-32
   0.9925444357413959E+00
  -0.3909059359611546E-32
   0.9998150160080750E+00
  -0.1908410251472480E-32
   0.9986044256974667E+00
  -0.2999780471669847E-32
   0.9946495923490578E+00
  -0.1973937193462815E-32
   0.1006783294486214E+01
   0.1411107515985111E-32
   0.1021195773710090E+01
   0.1319396358830093E-31
   0.9979991516429436E+00
  -0.7855282695803586E-32
   0.1004785936910708E+01
  -0.6520775847914299E-33
   0.1001443253578706E+01
  -0.1032675189735826E-32
   0.1004870015573929E+01
   0.2203371023864683E-33
   0.9952898773713778E+00
  -0.2108506624384646E-32
   0.9853957099542271E+00
   0.1022427317685871E-31
   0.1000226007444835E+01
  -0.2129396290375280E-32
   0.9938930119371527E+00
  -0.2605816105840922E-32
   0.9819631293087584E+00
  -0.1652761478733517E-32
   0.9943515144921317E+00
  -0.2165788142739303E-32
   0.9968775152976278E+00
  -0.2861316045748141E-32
   0.9937161314907520E+00
  -0.1025756764152684E-32
   0.9987031086240479E+00
  -0.2300654559521712E-32
   0.1000033244278797E+01
  -0.2326261599246736E-32
   0.9996686280107271E+00
  -0.2457351656017859E-32
   0.9958480420587091E+00
  -0.6083663173677151E-33
   0.9933618045053421E+00
  -0.2421505844465899E-32
   0.1001379813514599E+01
  -0.1549540572996923E-32
   0.1018342565079070E+01
  -0.9611925387512363E-33
   0.1002761163883228E+01
  -0.4745910644140027E-32
   0.9806466643452282E+00
  -0.9435873078955994E-32
   0.1001874257979826E+01
  -0.1378597386166066E-32
   0.1008205818684716E+01
   0.1266877174379282E-32
   0.9702345995626994E+00
  -0.1171639865843628E-31
   0.9431323729230950E+00
   0.5982421857593200E-32
   0.9846786353184691E+00
  -0.1087364179721613E-31
   0.9843645601673687E+00
  -0.6787178037665736E-32
   0.9754696721940204E+00
  -0.3226047612330407E-31
   0.9908380426682351E+00
  -0.1396198670818547E-31
   0.9779133561213850E+00
  -0.3237024298716796E-31
   0.1033958406005663E+01
  -0.6944965982925569E-32
   0.1021656796291833E+01
   0.1296883773712838E-31
   0.1000033005346960E+01
  -0.1812216962609043E-32
   0.9991734290873897E+00
  -0.2853893068652968E-32
   0.9919055285384131E+00
   0.2328798064350959E-32
   0.9907248504710664E+00
  -0.3646652331474352E-32
   0.9574014550820388E+00
  -0.8288844714046837E-32
   0.9930506880942142E+00
   0.1301820628258649E-32
   0.1006289131536095E+01
   0.1383799318483725E-32
   0.1002044037553242E+01
  -0.2898692373309493E-33
   0.9896477897162382E+00
  -0.4697641465056529E-32
   0.9652799827154476E+00
  -0.6050958711987379E-32
   0.9203406997248629E+00
  -0.2556434490007177E-31
   0.9724368701982073E+00
  -0.1141397413973505E-31
   0.9781836989276916E+00
  -0.5097391146499619E-32
   0.9559726800661400E+00
  -0.5687178268521704E-32
   0.9617645757545323E+00
  -0.2370017706504431E-31
   0.9490309801048505E+00
  -0.2828139735410882E-32
   0.9366912375348800E+00
  -0.2237095872825886E-31
   0.9303104723267591E+00
  -0.2983688521831766E-31
   0.9992919130672513E+00
  -0.1524656218314043E-32
   0.9994619482034166E+00
  -0.2253216832222361E-32
   0.9988025047109104E+00
  -0.2103362566219681E-32
   0.1002017073946793E+01
  -0.4595015582861598E-33
   0.9391477998922146E+00
  -0.2465414324519176E-31
   0.9239055150469443E+00
  -0.6045660501855370E-31
   0.9359217488829681E+00
  -0.1829278823941687E-31
   0.9984137893782444E+00
  -0.2444003862299346E-32
   0.9983444540240141E+00
  -0.2323900392529009E-32
   0.1000450520513080E+01
  -0.1445676672438624E-32
   0.9793848501606148E+00
  -0.1011283962585694E-31
   0.9713545842930071E+00
  -0.7112131303812200E-32
   0.9447096592561811E+00
  -0.1688391995854285E-31
SCALARS u double 1
LOOKUP_TABLE default
   0.0000000000000000E+00
   0.0000000000000000E+00
   0.0000000000000000E+00
   0.0000000000000000E+00
   0.0000000000000000E+00
   0.0000000000000000E+00
   0.0000000000000000E+00
   0.0000000000000000E+00
   0.0000000000000000E+00
   0.0000000000000000E+00
   0.0000000000000000E+00
   0.0000000000000000E+00
   0.0000000000000000E+00
   0.0000000000000000E+00
   0.0000000000000000E+00
   0.0000000000000000E+00
   0.0000000000000000E+00
   0.0000000000000000E+00
   0.0000000000000000E+00
   0.0000000000000000E+00
   0.0000000000000000E+00
   0.0000000000000000E+00
   0.0000000000000000E+00
   0.0000000000000000E+00
   0.0000000000000000E+00
   0.0000000000000000E+00
   0.0000000000000000E+00
   0.0000000000000000E+00
   0.0000000000000000E+00
   0.0000000000000000E+00
   0.0000000000000000E+00
   0.0000000000000000E+00
   0.0000000000000000E+00
   0.0000000000000000E+00
   0.0000000000000000E+00
   0.0000000000000000E+00
   0.0000000000000000E+00
   0.0000000000000000E+00
   0.0000000000000000E+00
   0.0000000000000000E+00
   0.0000000000000000E+00
   0.0000000000000000E+00
   0.0000000000000000E+00
   0.0000000000000000E+00
   0.0000000000000000E+00
   0.0000000000000000E+00
   0.0000000000000000E+00
   0.0000000000000000E+00
   0.0000000000000000E+00
   0.0000000000000000E+00
   0.0000000000000000E+00
   0.0000000000000000E+00
   0.0000000000000000E+00
   0.0000000000000000E+00
   0.0000000000000000E+00
   0.0000000000000000E+00
   0.0000000000000000E+00
   0.0000000000000000E+00
   0.0000000000000000E+00
   0.0000000000000000E+00
   0.0000000000000000E+00
   0.0000000000000000E+00
   0.0000000000000000E+00
   0.0000000000000000E+00
   0.0000000000000000E+00
   0.0000000000000000E+00
   0.5044657153268925E+00
  -0.2399820266696293E-31
   0.5290125001249635E+00
  -0.6867451506911677E-32
   0.5144832571544187E+00
   0.1984601720818763E-34
   0.4932265007146805E+00
   0.8626232246011528E-33
   0.4881034954292804E+00
   0.5794301726319659E-32
   0.4912132665130836E+00
   0.8335231859259520E-32
   0.4932012104335592E+00
   0.6413923946677216E-32
   0.4982359621910202E+00
  -0.2868132702709413E-33
   0.4935755401449176E+00
   0.2340653781697874E-32
   0.4788817929298110E+00
  -0.6293285920720450E-32
   0.4518340488405861E+00
  -0.1447549915554405E-31
   0.4750761855210994E+00
   0.6754803905544207E-31
   0.5097784009971155E+00
  -0.4173493665363610E-33
   0.4511935386181638E+00
   0.8834227999377680E-31
   0.4980813340877287E+00
   0.2130545399960039E-32
   0.5232695275299897E+00
  -0.6433370822180070E-32
   0.4995198835911444E+00
  -0.2969828971543728E-33
   0.5239976612173908E+00
  -0.1031517268112339E-31
   0.5062462133612059E+00
   0.4343872438098685E-33
   0.5621720090422385E+00
  -0.1834014532132132E-32
   0.5246973183385069E+00
  -0.3531270782471809E-32
   0.5014415355689079E+00
   0.1648607319057291E-32
   0.5724415173380465E+00
   0.1729307966489659E-31
   0.5707004872019616E+00
  -0.1722135592861464E-33
   0.3697808153148939E+00
   0.9900898833829394E-31
   0.4030358778672237E+00
   0.6312364214551283E-31
   0.5559039170490814E+00
   0.3405790681166418E-31
   0.5550071828224553E+00
  -0.7917583094214241E-33
   0.4941866649119889E+00
   0.7228306419566416E-34
   0.4946225571721391E+00
  -0.6238585443158980E-33
   0.4922550880774214E+00
  -0.1841152264716297E-32
   0.4916952757086566E+00
  -0.9786432823072495E-33
   0.5126203612101607E+00
   0.1874927677908804E-32
   0.5320037748259351E+00
   0.3907828668584557E-32
   0.5051851732895014E+00
  -0.1095859839491748E-31
   0.4700274422241663E+00
  -0.3516568924730240E-31
   0.5096958286798218E+00
   0.1225398446358283E-32
   0.5089633499334710E+00
   0.1128474733272378E-33
   0.4955096745857239E+00
  -0.1618672467230600E-31
   0.5091189249436291E+00
  -0.3937827848742187E-31
   0.4859971782617887E+00
  -0.8336597009573215E-31
   0.5290197329654628E+00
  -0.2637264747089441E-31
   0.5276939305556950E+00
  -0.7318221844118751E-32
   0.5095384286339937E+00
  -0.1371374263947385E-32
   0.5265023575269271E+00
   0.2278391580891854E-32
   0.5255836715224435E+00
   0.4218737532978864E-32
   0.5249264246899406E+00
   0.3251773885448533E-33
   0.5039105676555692E+00
  -0.1326635037017470E-32
   0.5284460209982225E+00
  -0.1423130340088549E-31
   0.5353830987664618E+00
  -0.2419354671989064E-32
   0.5371546995990897E+00
  -0.2060571965515323E-31
   0.5324039368582939E+00
  -0.7831320156674792E-32
   0.4987533161461036E+00
  -0.9758305226152409E-33
   0.4995693380799560E+00
  -0.1057148329833847E-32
   0.4985678142319847E+00
  -0.2157787305943686E-33
   0.4978564019020734E+00
  -0.5884297914525053E-33
   0.4945363810553487E+00
   0.4912804558913453E-32
   0.4946354240656766E+00
   0.6725565380476410E-32
   0.4894932186616079E+00
   0.3881160720323902E-32
   0.4881854149293619E+00
   0.4061753023285587E-32
   0.4965709365752302E+00
   0.3341244408055371E-32
   0.4946579467470978E+00
   0.5214654946789299E-32
   0.4860622930852475E+00
   0.1567072786195670E-32
   0.4896816117887496E+00
   0.2934979608522566E-32
   0.4900401236950221E+00
   0.2933754742652466E-32
   0.4911767741913901E+00
   0.6265533827238712E-32
   0.4926166626955846E+00
   0.6828397989035147E-32
   0.4981835085210662E+00
   0.2554612809456479E-32
   0.4946289643977543E+00
   0.7026639578213704E-32
   0.4948394986229689E+00
   0.6539862807344919E-32
   0.4976378086146720E+00
   0.4018726418471058E-32
   0.4907933142526650E+00
   0.6956265686178981E-32
   0.4936012114806610E+00
   0.7223906768134540E-32
   0.4927628912637541E+00
   0.7904541771894159E-32
   0.4920514951908301E+00
   0.7189062011146476E-32
   0.4513309486382108E+00
  -0.1195032766765329E-31
   0.4773809617875267E+00
  -0.7990929718963960E-32
   0.4929577593227740E+00
  -0.7418799337976046E-33
   0.4922016431822718E+00
   0.3939015979091235E-32
   0.4645164622667495E+00
   0.1973112573250662E-31
   0.4729120395439811E+00
  -0.1900824745567378E-31
   0.4915211032815840E+00
   0.1020038903567604E-32
   0.4906741942899431E+00
   0.3157262808454436E-32
   0.4940153701932971E+00
   0.2181100665426669E-32
   0.4854929930745453E+00
   0.3888371035541917E-33
   0.4731445505145254E+00
  -0.7976432925673740E-32
   0.4017685352716375E+00
   0.1333210733475116E-31
   0.4925811127421930E+00
  -0.4403896774967071E-31
   0.4586089377544404E+00
  -0.1536202910825090E-31
   0.4595049325912886E+00
   0.5858780278605099E-32
   0.4895104444366661E+00
  -0.1612114723773873E-32
   0.4701583353009886E+00
  -0.1232581560816527E-31
   0.4742235035200412E+00
  -0.3036004481026490E-31
   0.4816343218385749E+00
  -0.3592022786752706E-32
   0.4809631439133609E+00
   0.6643907027692429E-31
   0.5081955852927078E+00
   0.5791693154884123E-33
   0.4436620420940517E+00
   0.3309808925451999E-31
   0.4960916958401161E+00
   0.1460785415235062E-32
   0.5314783349106654E+00
  -0.3715009620429606E-32
   0.4949806832961925E+00
  -0.1701260840039725E-32
   0.5219301823561219E+00
  -0.1256539281735854E-32
   0.5081293872675793E+00
   0.3276504371927041E-33
   0.5664001670778084E+00
   0.1309700843770863E-31
   0.5269142300078706E+00
   0.1660301970524705E-32
   0.5035387233633992E+00
   0.2170304490735717E-32
   0.5834535199025870E+00
   0.3540610912067633E-31
   0.5720240543058067E+00
   0.1675941667700197E-31
   0.3408859787972322E+00
   0.1056239539743811E-30
   0.3851958352801472E+00
  -0.1647388831022601E-31
   0.5717594931431126E+00
   0.5950089042511356E-31
   0.5645095790363943E+00
   0.1289590016742271E-31
   0.5689243688383533E+00
  -0.3185775640599979E-32
   0.5291696422570086E+00
  -0.7926736138482074E-32
   0.5449155772736225E+00
  -0.1260698354733519E-31
   0.5701879996570504E+00
   0.7396841343834396E-32
   0.5404097314619937E+00
  -0.2256170954454298E-31
   0.5487779046384293E+00
   0.2256841232245055E-31
   0.5790107886360150E+00
   0.3623559817976103E-31
   0.4955235725197893E+00
  -0.6419223246353979E-32
   0.5064965498887206E+00
  -0.1291749031334865E-32
   0.4994484985751391E+00
  -0.5085866633997232E-32
   0.5533092708747753E+00
   0.7510982808641672E-32
   0.4597902452479392E+00
  -0.1937567770112858E-31
   0.4983751332286457E+00
   0.3063501064399620E-32
   0.5489762939829061E+00
  -0.6232024096297246E-32
   0.5894376514252939E+00
   0.1954368481868464E-31
   0.5821700660578017E+00
   0.2856137075026830E-32
   0.5457059880237702E+00
  -0.2701619144253869E-32
   0.5785146403095558E+00
   0.1407569634726060E-32
   0.5122043911193750E+00
  -0.2202916507711941E-32
   0.5055088210335846E+00
  -0.1004805721972926E-32
   0.5048980709610811E+00
   0.2821280580090058E-33
   0.5645297506077123E+00
   0.2903605404110988E-32
   0.5552265536362235E+00
  -0.8090595215022820E-33
   0.4977583767271223E+00
   0.4727660114935717E-33
   0.5488209304667592E+00
  -0.1764487166994205E-31
   0.5486892305189593E+00