# vtk DataFile Version 2.0
FUN3D:global_image_vtk
ASCII
DATASET UNSTRUCTURED_GRID
POINTS 213 double
    0.3278297790279131E-18    0.0000000000000000E+00    0.2500000000000000E+01
    0.0000000000000000E+00    0.3278297790279131E-18    0.0000000000000000E+00
    0.1250000000000000E+01    0.0000000000000000E+00    0.2500000000000000E+01
    0.0000000000000000E+00    0.3278297790279131E-18    0.0000000000000000E+00
    0.2500000000000000E+01    0.0000000000000000E+00    0.2500000000000000E+01
    0.0000000000000000E+00    0.3278297790279131E-18    0.0000000000000000E+00
    0.3750000000000000E+01    0.0000000000000000E+00    0.2500000000000000E+01
    0.0000000000000000E+00    0.3278297790279131E-18    0.0000000000000000E+00
    0.5000000000000000E+01    0.0000000000000000E+00    0.2500000000000000E+01
    0.0000000000000000E+00    0.3278297790279131E-18    0.0000000000000000E+00
    0.5000000000000000E+01    0.0000000000000000E+00    0.1250000000000000E+01
    0.0000000000000000E+00    0.3278297790279131E-18    0.0000000000000000E+00
    0.5000000000000000E+01    0.0000000000000000E+00    0.3278297790279131E-18
    0.0000000000000000E+00    0.3278297790279131E-18    0.0000000000000000E+00
    0.5000000000000000E+01    0.0000000000000000E+00   -0.1250000000000000E+01
    0.0000000000000000E+00    0.3278297790279131E-18    0.0000000000000000E+00
    0.5000000000000000E+01    0.0000000000000000E+00   -0.2500000000000000E+01
    0.0000000000000000E+00    0.3278297790279131E-18    0.0000000000000000E+00
    0.3750000000000000E+01    0.0000000000000000E+00   -0.2500000000000000E+01
    0.0000000000000000E+00    0.3278297790279131E-18    0.0000000000000000E+00
    0.2500000000000000E+01    0.0000000000000000E+00   -0.2500000000000000E+01
    0.0000000000000000E+00    0.3278297790279131E-18    0.0000000000000000E+00
    0.1250000000000000E+01    0.0000000000000000E+00   -0.2500000000000000E+01
    0.0000000000000000E+00    0.3278297790279131E-18    0.0000000000000000E+00
    0.3278297790279131E-18    0.0000000000000000E+00   -0.2500000000000000E+01
    0.0000000000000000E+00    0.3278297790279131E-18    0.0000000000000000E+00
    0.3278297790279131E-18    0.0000000000000000E+00   -0.1250000000000000E+01
    0.0000000000000000E+00    0.3278297790279131E-18    0.0000000000000000E+00
    0.3278297790279131E-18    0.0000000000000000E+00    0.3278297790279131E-18
    0.0000000000000000E+00    0.3278297790279131E-18    0.0000000000000000E+00
    0.3278297790279131E-18    0.0000000000000000E+00    0.1250000000000000E+01
    0.0000000000000000E+00    0.3278297790279131E-18    0.0000000000000000E+00
    0.9058375365086910E+00    0.0000000000000000E+00    0.1578994732800803E+01
    0.0000000000000000E+00    0.3278297790279131E-18    0.0000000000000000E+00
    0.3982050490726493E+01    0.0000000000000000E+00   -0.1583989954232354E+01
    0.0000000000000000E+00    0.3278297790279131E-18    0.0000000000000000E+00
    0.4033849428301197E+01    0.0000000000000000E+00    0.1453322699199022E+01
    0.0000000000000000E+00    0.3278297790279131E-18    0.0000000000000000E+00
    0.1040505887381675E+01    0.0000000000000000E+00   -0.1479596339503735E+01
    0.0000000000000000E+00    0.3278297790279131E-18    0.0000000000000000E+00
    0.1099454400140349E+01    0.0000000000000000E+00   -0.3227322616384110E+00
    0.0000000000000000E+00    0.3278297790279131E-18    0.0000000000000000E+00
    0.7354504170366591E+00    0.0000000000000000E+00    0.6593508822075582E+00
    0.0000000000000000E+00    0.3278297790279131E-18    0.0000000000000000E+00
    0.1622302608453282E+01    0.0000000000000000E+00    0.8256214013940779E+00
    0.0000000000000000E+00    0.3278297790279131E-18    0.0000000000000000E+00
    0.2145871574390382E+01    0.0000000000000000E+00   -0.1650070333782557E+01
    0.0000000000000000E+00    0.3278297790279131E-18    0.0000000000000000E+00
    0.4086422318222992E+01    0.0000000000000000E+00   -0.4612828702537229E+00
    0.0000000000000000E+00    0.3278297790279131E-18    0.0000000000000000E+00
    0.2979540174134984E+01    0.0000000000000000E+00   -0.8579242121530853E+00
    0.0000000000000000E+00    0.3278297790279131E-18    0.0000000000000000E+00
    0.3045064261640043E+01    0.0000000000000000E+00   -0.1836846154397680E+01
    0.0000000000000000E+00    0.3278297790279131E-18    0.0000000000000000E+00
    0.3428197553792836E+01    0.0000000000000000E+00    0.3508002863614053E+00
    0.0000000000000000E+00    0.3278297790279131E-18    0.0000000000000000E+00
    0.4309693860063405E+01    0.0000000000000000E+00    0.5185680230613409E+00
    0.0000000000000000E+00    0.3278297790279131E-18    0.0000000000000000E+00
    0.1827272193562204E+01    0.0000000000000000E+00    0.1738996113203182E+01
    0.0000000000000000E+00    0.3278297790279131E-18    0.0000000000000000E+00
    0.2808563282768077E+01    0.0000000000000000E+00    0.1325493893339706E+01
    0.0000000000000000E+00    0.3278297790279131E-18    0.0000000000000000E+00
    0.1895995683864404E+01    0.0000000000000000E+00   -0.8731419609589618E+00
    0.0000000000000000E+00    0.3278297790279131E-18    0.0000000000000000E+00
    0.2273179336307740E+01    0.0000000000000000E+00    0.4906150219227333E-01
    0.0000000000000000E+00    0.3278297790279131E-18    0.0000000000000000E+00
    0.5000000000000000E+01    0.0000000000000000E+00    0.2500000000000000E+01
    0.0000000000000000E+00    0.1250000000000000E+01    0.0000000000000000E+00
    0.5000000000000000E+01    0.0000000000000000E+00    0.2500000000000000E+01
    0.0000000000000000E+00    0.2500000000000000E+01    0.0000000000000000E+00
    0.5000000000000000E+01    0.0000000000000000E+00    0.2500000000000000E+01
    0.0000000000000000E+00    0.3750000000000000E+01    0.0000000000000000E+00
    0.5000000000000000E+01    0.0000000000000000E+00    0.2500000000000000E+01
    0.0000000000000000E+00    0.5000000000000000E+01    0.0000000000000000E+00
    0.3750000000000000E+01    0.0000000000000000E+00    0.2500000000000000E+01
    0.0000000000000000E+00    0.5000000000000000E+01    0.0000000000000000E+00
    0.2500000000000000E+01    0.0000000000000000E+00    0.2500000000000000E+01
    0.0000000000000000E+00    0.5000000000000000E+01    0.0000000000000000E+00
    0.1250000000000000E+01    0.0000000000000000E+00    0.2500000000000000E+01
    0.0000000000000000E+00    0.5000000000000000E+01    0.0000000000000000E+00
    0.3278297790279131E-18    0.0000000000000000E+00    0.2500000000000000E+01
    0.0000000000000000E+00    0.5000000000000000E+01    0.0000000000000000E+00
    0.3278297790279131E-18    0.0000000000000000E+00    0.2500000000000000E+01
    0.0000000000000000E+00    0.3750000000000000E+01    0.0000000000000000E+00
    0.3278297790279131E-18    0.0000000000000000E+00    0.2500000000000000E+01
    0.0000000000000000E+00    0.2500000000000000E+01    0.0000000000000000E+00
    0.3278297790279131E-18    0.0000000000000000E+00    0.2500000000000000E+01
    0.0000000000000000E+00    0.1250000000000000E+01    0.0000000000000000E+00
    0.9631080833812172E+00    0.0000000000000000E+00    0.2500000000000000E+01
    0.0000000000000000E+00    0.9613285771248219E+00    0.0000000000000000E+00
    0.3981732467264904E+01    0.0000000000000000E+00    0.2500000000000000E+01
    0.0000000000000000E+00    0.4069753913607991E+01    0.0000000000000000E+00
    0.4035525118777670E+01    0.0000000000000000E+00    0.2500000000000000E+01
    0.0000000000000000E+00    0.1012015867579395E+01    0.0000000000000000E+00
    0.9641717640894248E+00    0.0000000000000000E+00    0.2500000000000000E+01
    0.0000000000000000E+00    0.3972455192261839E+01    0.0000000000000000E+00
    0.1547743040396780E+01    0.0000000000000000E+00    0.2500000000000000E+01
    0.0000000000000000E+00    0.2928177746738678E+01    0.0000000000000000E+00
    0.6985170616192014E+00    0.0000000000000000E+00    0.2500000000000000E+01
    0.0000000000000000E+00    0.3068281976055466E+01    0.0000000000000000E+00
    0.8931277594515110E+00    0.0000000000000000E+00    0.2500000000000000E+01
    0.0000000000000000E+00    0.2052465503257726E+01    0.0000000000000000E+00
    0.2183293750162785E+01    0.0000000000000000E+00    0.2500000000000000E+01
    0.0000000000000000E+00    0.3959073795658649E+01    0.0000000000000000E+00
    0.3855333506014705E+01    0.0000000000000000E+00    0.2500000000000000E+01
    0.0000000000000000E+00    0.2931218481500625E+01    0.0000000000000000E+00
    0.3152495579421047E+01    0.0000000000000000E+00    0.2500000000000000E+01
    0.0000000000000000E+00    0.3635850502723324E+01    0.0000000000000000E+00
    0.3103247580566054E+01    0.0000000000000000E+00    0.2500000000000000E+01
    0.0000000000000000E+00    0.4331682712472464E+01    0.0000000000000000E+00
    0.3266837581688852E+01    0.0000000000000000E+00    0.2500000000000000E+01
    0.0000000000000000E+00    0.1886092433583972E+01    0.0000000000000000E+00
    0.4231539241296245E+01    0.0000000000000000E+00    0.2500000000000000E+01
    0.0000000000000000E+00    0.1915865356532799E+01    0.0000000000000000E+00
    0.1909741006522088E+01    0.0000000000000000E+00    0.2500000000000000E+01
    0.0000000000000000E+00    0.7170024419130505E+00    0.0000000000000000E+00
    0.2880784107213163E+01    0.0000000000000000E+00    0.2500000000000000E+01
    0.0000000000000000E+00    0.9046598906449592E+00    0.0000000000000000E+00
    0.2014316024535771E+01    0.0000000000000000E+00    0.2500000000000000E+01
    0.0000000000000000E+00    0.1762464314805728E+01    0.0000000000000000E+00
    0.2670003247036656E+01    0.0000000000000000E+00    0.2500000000000000E+01
    0.0000000000000000E+00    0.2850479545835163E+01    0.0000000000000000E+00
    0.5000000000000000E+01    0.0000000000000000E+00    0.1250000000000000E+01
    0.0000000000000000E+00    0.5000000000000000E+01    0.0000000000000000E+00
    0.5000000000000000E+01    0.0000000000000000E+00    0.3278297790279131E-18
[...]
POINT_DATA 213
SCALARS rho double 1
LOOKUP_TABLE default
   0.1344271449753179E+01
  -0.4945910084919669E-08
   0.9569758915601532E+00
  -0.6674753192845118E-09
   0.9462964201096611E+00
  -0.1434375910913076E-08
   0.9418612719438234E+00
  -0.2613536036523572E-08
   0.8437304901315700E+00
  -0.2281955883664828E-08
   0.7738004326125634E+00
  -0.2223947403999948E-08
   0.7629818923605880E+00
  -0.2395057666185328E-08
   0.7664577919383574E+00
  -0.4101398412858678E-08
   0.8307874046208361E+00
  -0.4496495055745253E-08
   0.9352972565224652E+00
  -0.1263564722057298E-08
   0.9342219822071925E+00
  -0.1310397993013590E-08
   0.9617195286478771E+00
  -0.1922816467501027E-08
   0.1449457451818047E+01
  -0.2864822197415247E-08
   0.1494090644666781E+01
  -0.6306198765478531E-08
   0.1644667277210664E+01
  -0.7545002467600184E-08
   0.1425832049577086E+01
  -0.5418677424293913E-08
   0.1009014435357547E+01
  -0.1239269050440167E-08
   0.9508810865041321E+00
  -0.1018712070437830E-08
   0.9436508502329980E+00
  -0.8878881482751660E-09
   0.9581561034574976E+00
   0.1230643898507043E-09
   0.9415852462593871E+00
   0.3546965148457630E-10
   0.1036377240652662E+01
  -0.9193176615582350E-09
   0.9256161101142339E+00
  -0.2362438154567973E-09
   0.9322349872572950E+00
  -0.1799974633443630E-08
   0.9537479579735055E+00
  -0.2840284940357425E-08
   0.9518769567264617E+00
  -0.1713227453383621E-08
   0.9348583129288142E+00
  -0.2284237494210289E-08
   0.9564028420029370E+00
  -0.1202145327074725E-08
   0.9376098403645553E+00
  -0.1480836450384179E-08
   0.9300661525951580E+00
  -0.1463765175788219E-08
   0.9445157493575779E+00
  -0.5110854160753297E-09
   0.8863506519364557E+00
   0.3608915450214726E-09
   0.9423579969901374E+00
  -0.1843465767317380E-08
   0.9635003083156426E+00
  -0.6068817438112097E-09
   0.1008299039486565E+01
  -0.6253333966088512E-10
   0.1006735291823978E+01
   0.4582662426410004E-11
   0.1001964617672338E+01
  -0.6375665022413423E-10
   0.1003219581578457E+01
  -0.1068264905762512E-09
   0.1004132054006706E+01
  -0.1240612831856091E-09
   0.1005228602963308E+01
  -0.1119468730260863E-09
   0.1004260408273660E+01
  -0.8549095899164497E-10
   0.1008308190008206E+01
  -0.1378722083776565E-09
   0.1023893138005441E+01
  -0.2877217907136235E-09
   0.1063553956100277E+01
  -0.2129697253287208E-09
   0.1019182513309203E+01
  -0.5964231119350759E-09
   0.1001780766435492E+01
  -0.6421919746924640E-10
   0.9643309943818139E+00
  -0.8132472436017554E-09
   0.1005283709015930E+01
  -0.1275244164746606E-09
   0.1000721163311459E+01
  -0.8507034156587783E-10
   0.1008742083845054E+01
  -0.1666486121149573E-09
   0.1008078083676605E+01
  -0.1016434309983880E-09
   0.1002349807143782E+01
  -0.1142779196651827E-09
   0.9979986848156035E+00
  -0.3037775150577428E-10
   0.1000583560962851E+01
  -0.6365683511192842E-10
   0.1001620123683642E+01
  -0.1048596405980348E-09
   0.9826893073698602E+00
  -0.2286227059662646E-09
   0.9842439642966654E+00
  -0.2577788519918876E-09
   0.9833314037059689E+00
  -0.7100495462668947E-09
   0.9788207413554966E+00
  -0.7740790461160727E-09
   0.9902638161478297E+00
  -0.1623192337293331E-09
   0.9934561553348957E+00
  -0.4980183344715758E-10
   0.1002011751749303E+01
  -0.5894270669631608E-10
   0.1002134465741609E+01
  -0.5625284734040164E-10
   0.1002276326556720E+01
  -0.5731979051192096E-10
   0.1001794758398388E+01
  -0.6533170742094170E-10
   0.1009778638905410E+01
  -0.1516773487574132E-10
   0.1006429109021373E+01
   0.9502555434593832E-11
   0.9558786961329168E+00
  -0.3814301562399339E-09
   0.9249398412614404E+00
  -0.7810253386722076E-09
   0.1007036755536457E+01
  -0.1606722955671197E-10
   0.1004504925173333E+01
  -0.1829983191787070E-10
   0.9143642077183970E+00
  -0.6069409019817762E-09
   0.9089667861179878E+00
  -0.6701255948643666E-09
   0.8751688903285966E+00
  -0.8701196357437209E-09
   0.9767271885420257E+00
  -0.2498445907882129E-09
   0.1000452621146783E+01
  -0.1367233674799979E-10
   0.1005831087461677E+01
  -0.1120134781945443E-10
   0.1012882803218260E+01
   0.5746969894362530E-10
   0.1011618951277404E+01
   0.2238423546466569E-10
   0.1010438648575367E+01
   0.4406425696191966E-10
   0.1005468280912126E+01
  -0.2063314934445312E-10
   0.9907612679626926E+00
  -0.2640702434036886E-09
   0.1005140325681154E+01
  -0.4900892244612768E-11
   0.9860567246266763E+00
  -0.3377328300310052E-10
   0.1005609737634738E+01
   0.2559245643537465E-10
   0.1004248005738949E+01
  -0.8671838857510638E-10
   0.1002888437722913E+01
  -0.7812865257432722E-10
   0.1003345420480017E+01
  -0.8056802203023073E-10
   0.1003992731905479E+01
  -0.8194640542481703E-10
   0.1005101716207134E+01
  -0.1154867615267157E-09
   0.1003211645202354E+01
  -0.1160775369547212E-09
   0.1002663160005018E+01
  -0.9341767599174765E-10
   0.1002586231523293E+01
  -0.1041358037216567E-09
   0.1004060870979672E+01
  -0.9477772394375238E-10
   0.1004320346070384E+01
  -0.9838976704408774E-10
   0.1001641920431550E+01
  -0.1028417006397155E-09
   0.1002273116065837E+01
  -0.9783488054883192E-10
   0.1002543475707083E+01
  -0.9433349846148988E-10
   0.1003469520887574E+01
  -0.1175078589826984E-09
   0.1003372640316291E+01
  -0.1100948863795826E-09
   0.1003232230077968E+01
  -0.8603611205800596E-10
   0.1004423863502288E+01
  -0.1174342283098519E-09
   0.1004313070889025E+01
  -0.1190051158789362E-09
   0.1003659849436664E+01
  -0.8745921663352360E-10
   0.1003723103984602E+01
  -0.1119102167793004E-09
   0.1004329726484350E+01
  -0.1185122086540644E-09
   0.1004465021932355E+01
  -0.1294439918006276E-09
   0.1003623375376199E+01
  -0.1134520233064130E-09
   0.1064422801069341E+01
  -0.2356577695967563E-09
   0.1028473621467355E+01
  -0.2664670498389262E-09
   0.1009586657368591E+01
  -0.1429116227928311E-09
   0.1006638837516138E+01
  -0.1301526997223532E-09
   0.1163935522443168E+01
  -0.1263745804919532E-08
   0.1086087969845804E+01
  -0.2297974842528464E-09
   0.1007893419315887E+01
  -0.1394785509482336E-09
   0.1007245533349926E+01
  -0.1364740504697584E-09
   0.1006798074181839E+01
  -0.1227108169842548E-09
   0.1013018287015952E+01
  -0.2489785280223888E-09
   0.1019384609579107E+01
  -0.2213087908985014E-09
   0.1235203670053181E+01
  -0.2239035155883339E-08
   0.1032529466779423E+01
  -0.1556972024352867E-09
   0.1046681191679460E+01
  -0.3620634172038047E-09
   0.1200953642615309E+01
  -0.1791224137909997E-08
   0.1014718916079973E+01
  -0.1937017298089206E-09
   0.1032291153311153E+01
  -0.3309512885106680E-09
   0.1028095236797479E+01
  -0.3908966162479096E-09
   0.1014628639884076E+01
  -0.2332668932920655E-09
   0.1029216893279761E+01
  -0.3394329312362617E-09
   0.1001994816414489E+01
  -0.7251914822755247E-10
   0.9606929197413324E+00
  -0.4540838287133830E-09
   0.1006852582844729E+01
  -0.1285964159926899E-09
   0.1001327193363636E+01
  -0.1103489309896549E-09
   0.1010821905423174E+01
  -0.1581200322695357E-09
   0.1012246098915456E+01
  -0.1474016458571250E-09
   0.1000946006966975E+01
  -0.1072179713473381E-09
   0.9979121234097601E+00
  -0.3076741152415976E-10
   0.9980632372999956E+00
  -0.8062848693733929E-10
   0.1001184143412859E+01
  -0.9582563237297229E-10
   0.9841362012039223E+00
  -0.1277556930370436E-09
   0.9814879615682612E+00
  -0.1155808623994551E-09
   0.9648483322500300E+00
  -0.2842170719619983E-09
   0.9680877129803689E+00
  -0.6583524957378465E-09
   0.9914124472252522E+00
  -0.1104186560511804E-09
   0.9910858388774807E+00
  -0.6839254246022636E-10
   0.9925545095958943E+00
  -0.4152853917901315E-10
   0.1001727533897144E+01
  -0.8968518581451165E-10
   0.9993409402236448E+00
  -0.3816348912269781E-10
   0.9941410835194123E+00
  -0.4165473022247630E-10
   0.1007038753607650E+01
  -0.1939516396677615E-10
   0.1022539494141322E+01
  -0.1164686887618643E-09
   0.1001088098530401E+01
  -0.1962321439000639E-09
   0.1008798496304833E+01
  -0.1488154355658593E-09
   0.1004773846131792E+01
  -0.1277597771240821E-09
   0.1009050237493978E+01
  -0.1583389771172837E-09
   0.9966470332462771E+00
  -0.7384480870817186E-10
   0.1004988557997842E+01
  -0.7880980307208987E-09
   0.1003325535218381E+01
  -0.1132134817417766E-09
   0.9949431085525879E+00
  -0.5234370662477903E-10
   0.9832680782203410E+00
  -0.1101964941129521E-09
   0.9943957455158006E+00
  -0.4377409019269903E-10
   0.9973420656358206E+00
  -0.4125779364279917E-10
   0.9932190085608905E+00
  -0.4523115754249478E-10
   0.1001306487178217E+01
  -0.9712441336779496E-10
   0.1003001636987875E+01
  -0.1078492797720286E-09
   0.1002183579670266E+01
  -0.9249238753009385E-10
   0.9947078545023083E+00
  -0.7618714015925152E-11
   0.9937965521504500E+00
  -0.5722355203950937E-10
   0.1004867865564522E+01
  -0.1292958478018363E-09
   0.1020077607451387E+01
  -0.1587117957819740E-09
   0.1005364552435822E+01
  -0.1344141792207973E-09
   0.9816998152738786E+00
  -0.9455113839356164E-10
   0.1004973031277084E+01
  -0.1182938952521731E-09
   0.1012382323451245E+01
  -0.1484806337202431E-09
   0.9871424296375815E+00
  -0.5139119602921437E-09
   0.9551513534802883E+00
  -0.1633660516889509E-09
   0.9865075700380992E+00
  -0.1061161394694814E-09
   0.9864532950177385E+00
  -0.1197414527155221E-09
   0.9918946944239941E+00
  -0.6623265626938055E-09
   0.9933508198446970E+00
  -0.1641254436658141E-09
   0.9954406190013395E+00
  -0.5538678569233615E-09
   0.1037336789730609E+01
  -0.2630912495915484E-09
   0.1033536797993111E+01
  -0.5426948446877300E-09
   0.1001443320817184E+01
  -0.5965627537218571E-10
   0.1001930499801365E+01
  -0.1005870911939054E-09
   0.9912478515957924E+00
  -0.2125279508106527E-10
   0.9910920509431413E+00
  -0.5389768118430176E-10
   0.9648489990824630E+00
  -0.2783951001594279E-09
   0.9933282604844498E+00
  -0.3790990910148316E-10
   0.1006058638640035E+01
  -0.1124002838231042E-10
   0.1001954027117099E+01
  -0.2309421587199297E-10
   0.9908735804794686E+00
  -0.7837298551403911E-10
   0.9740945213571469E+00
  -0.3970827579752553E-09
   0.9418802142143654E+00
  -0.6823665721597257E-09
   0.9819379692194180E+00
  -0.3940120647787678E-09
   0.9794803560685331E+00
  -0.7676129166409215E-10
   0.9704172061886112E+00
  -0.2106523723263122E-09
   0.9720478947092434E+00
  -0.3885434608909328E-09
   0.9557351703073110E+00
  -0.2755852799079821E-09
   0.9496731213601871E+00
  -0.4451303202348185E-09
   0.9528673572357036E+00
  -0.8870707826163033E-09
   0.1002659534063880E+01
  -0.1135773259318352E-09
   0.1002471631971364E+01
  -0.1103691367991637E-09
   0.1000509329303213E+01
  -0.7157422700633988E-10
   0.1001677321739061E+01
  -0.1442664157682676E-10
   0.9607931434941025E+00
  -0.6038591494603158E-09
   0.9491625507091705E+00
  -0.8640668744981074E-09
   0.9584503069137817E+00
  -0.8197535276200616E-09
   0.1001121207788340E+01
  -0.9862393108119113E-10
   0.1000496140593026E+01
  -0.8285756387496684E-10
   0.1001156644190098E+01
  -0.3635548704495324E-10
   0.9807376183730041E+00
  -0.9826173083726490E-10
   0.9806000808958347E+00
  -0.1839682375513664E-09
   0.9628476109243178E+00
  -0.6308549937986634E-09
SCALARS u double 1
LOOKUP_TABLE default
   0.0000000000000000E+00
   0.0000000000000000E+00
   0.0000000000000000E+00
   0.0000000000000000E+00
   0.0000000000000000E+00
   0.0000000000000000E+00
   0.0000000000000000E+00
   0.0000000000000000E+00
   0.0000000000000000E+00
   0.0000000000000000E+00
   0.0000000000000000E+00
   0.0000000000000000E+00
   0.0000000000000000E+00
   0.0000000000000000E+00
   0.0000000000000000E+00
   0.0000000000000000E+00
   0.0000000000000000E+00
   0.0000000000000000E+00
   0.0000000000000000E+00
   0.0000000000000000E+00
   0.0000000000000000E+00
   0.0000000000000000E+00
   0.0000000000000000E+00
   0.0000000000000000E+00
   0.0000000000000000E+00
   0.0000000000000000E+00
   0.0000000000000000E+00
   0.0000000000000000E+00
   0.0000000000000000E+00
   0.0000000000000000E+00
   0.0000000000000000E+00
   0.0000000000000000E+00
   0.0000000000000000E+00
   0.0000000000000000E+00
   0.0000000000000000E+00
   0.0000000000000000E+00
   0.0000000000000000E+00
   0.0000000000000000E+00
   0.0000000000000000E+00
   0.0000000000000000E+00
   0.0000000000000000E+00
   0.0000000000000000E+00
   0.0000000000000000E+00
   0.0000000000000000E+00
   0.0000000000000000E+00
   0.0000000000000000E+00
   0.0000000000000000E+00
   0.0000000000000000E+00
   0.0000000000000000E+00
   0.0000000000000000E+00
   0.0000000000000000E+00
   0.0000000000000000E+00
   0.0000000000000000E+00
   0.0000000000000000E+00
   0.0000000000000000E+00
   0.0000000000000000E+00
   0.0000000000000000E+00
   0.0000000000000000E+00
   0.0000000000000000E+00
   0.0000000000000000E+00
   0.0000000000000000E+00
   0.0000000000000000E+00
   0.0000000000000000E+00
   0.0000000000000000E+00
   0.0000000000000000E+00
   0.0000000000000000E+00
   0.4950176832282551E+00
   0.4760954522872115E-09
   0.5338221300964653E+00
  -0.1167617090931148E-09
   0.5183269247542640E+00
  -0.1479992047068277E-09
   0.4930649880361263E+00
  -0.6082159062128074E-11
   0.4847578719837308E+00
   0.1241463941789630E-09
   0.4867666423892475E+00
   0.1704834759284952E-09
   0.4890763583174498E+00
   0.1638212563304814E-09
   0.4957848880171622E+00
   0.9454469321909400E-10
   0.4898301883785761E+00
   0.1503014522008026E-09
   0.4717388493399121E+00
   0.2814244974739482E-09
   0.4454814153543525E+00
   0.2713875620312324E-09
   0.4833907048906828E+00
  -0.3521049260931296E-09
   0.5098397461692884E+00
  -0.4473639472180652E-11
   0.4390712699906101E+00
   0.4425850972519753E-09
   0.4949403964608378E+00
   0.1240636092566658E-09
   0.5225330362412449E+00
   0.2275616190139081E-10
   0.4962454545615191E+00
   0.1247398378485971E-09
   0.5226154963537388E+00
   0.4731410450739871E-10
   0.5038881742787397E+00
   0.8731171386702785E-10
   0.5646883608880101E+00
  -0.8408168627889865E-10
   0.5247509156484450E+00
  -0.5110311778713549E-11
   0.4991466119124565E+00
   0.8398465053960839E-10
   0.5730561900853016E+00
  -0.7815014812835966E-11
   0.5696051095960806E+00
   0.9333621085595477E-10
   0.3737941449717777E+00
  -0.1970814833185757E-09
   0.3998658124525596E+00
   0.1226185567231395E-09
   0.5599326587326178E+00
  -0.1608660764560415E-09
   0.5564587630418898E+00
  -0.5804848811820632E-10
   0.4942627333420626E+00
  -0.1509780139647708E-10
   0.4948659466749544E+00
  -0.2220986989752752E-10
   0.4925735874465350E+00
  -0.2501585923568645E-10
   0.4914269544061708E+00
  -0.5669908014348692E-11
   0.5162356851513008E+00
  -0.1349689871957982E-09
   0.5361798306000822E+00
  -0.1403153848528155E-09
   0.4947413355849336E+00
   0.3762202196581309E-09
   0.4524112202370352E+00
   0.6344503782681706E-09
   0.5128777326138629E+00
  -0.1175149813395506E-09
   0.5117942040691176E+00
  -0.1087841778550760E-09
   0.4783517504046265E+00
   0.6132390086749129E-09
   0.4931696655319411E+00
   0.6607238054926758E-09
   0.4603173591907251E+00
   0.8128453013660879E-09
   0.5244892720162004E+00
   0.2120387172158429E-09
   0.5297434248143652E+00
  -0.6623231729521718E-10
   0.5129579301213985E+00
  -0.1229771897444208E-09
   0.5328358320382399E+00
  -0.2012440302749201E-09
   0.5308941037946345E+00
  -0.1807275068723915E-09
   0.5309856170962316E+00
  -0.1955956186704697E-09
   0.5063656735746040E+00
  -0.9550160027405292E-10
   0.5282461955493708E+00
   0.1088601936399096E-09
   0.5410312730985789E+00
  -0.1613246024732737E-09
   0.5361261481139387E+00
   0.6858299767405604E-10
   0.5374105276903274E+00
  -0.1171069300270281E-09
   0.4965364818528985E+00
   0.8308758222769852E-10
   0.4975340903808871E+00
   0.7575611043574985E-10
   0.4963842644337678E+00
   0.8647737045324425E-10
   0.4955220267354261E+00
   0.9328293661246177E-10
   0.4904581830632919E+00
   0.1659415353279319E-09
   0.4903044384879996E+00
   0.1655307876690982E-09
   0.4862182764014443E+00
   0.1164583725652994E-09
   0.4854049562043795E+00
   0.1011265360926346E-09
   0.4932164387733042E+00
   0.1375801975111544E-09
   0.4909833312117766E+00
   0.1477233041183003E-09
   0.4832194696587620E+00
   0.9777149454866947E-10
   0.4872622778026058E+00
   0.8322226626591869E-10
   0.4880124910941224E+00
   0.7086007779812138E-10
   0.4872445931980097E+00
   0.1443189762720215E-09
   0.4882696669018605E+00
   0.1607477864981370E-09
   0.4952597556301784E+00
   0.1180217131183682E-09
   0.4900967167428610E+00
   0.1770583259550252E-09
   0.4904000090213636E+00
   0.1743830824030164E-09
   0.4944232925374622E+00
   0.1305930030690378E-09
   0.4868002480939913E+00
   0.1500730518334385E-09
   0.4892385983769511E+00
   0.1681904934370807E-09
   0.4881393369650908E+00
   0.1771178287011973E-09
   0.4878457828925682E+00
   0.1540441118785488E-09
   0.4446866578962622E+00
   0.2069573785728652E-09
   0.4700028779624279E+00
   0.2573890694510185E-09
   0.4891999056173393E+00
   0.1464814164771888E-09
   0.4885247843456893E+00
   0.1524175428178080E-09
   0.4506533042834536E+00
   0.7645856669852287E-09
   0.4687378565423263E+00
   0.2420389652866204E-09
   0.4877010456443285E+00
   0.1532578793278448E-09
   0.4868353683036861E+00
   0.1610281265348106E-09
   0.4908994715753096E+00
   0.1295189083068127E-09
   0.4793551576244874E+00
   0.2387854202622889E-09
   0.4658071746423911E+00
   0.2396825604003895E-09
   0.3792725225377510E+00
   0.1223986313102233E-08
   0.4901596529932528E+00
   0.8061480748326299E-10
   0.4486686689541790E+00
   0.3151463971599203E-09
   0.4436137388858148E+00
   0.9533537088902121E-09
   0.4845147240840074E+00
   0.1984934951077397E-09
   0.4621822644792012E+00
   0.3047093700907437E-09
   0.4665749533939694E+00
   0.2603802788675137E-09
   0.4748140298832197E+00
   0.2436054383474229E-09
   0.4894494216249327E+00
  -0.1910556239571789E-09
   0.5085556973710376E+00
  -0.1846024543238394E-10
   0.4315073868749716E+00
   0.6815699311921596E-09
   0.4927349360741964E+00
   0.1289723796841719E-09
   0.5318289234092727E+00
  -0.3572543871416928E-10
   0.4913399195703768E+00
   0.1292234325408081E-09
   0.5207019993055855E+00
   0.1714622488498616E-10
   0.5060964599208314E+00
   0.6717701254184858E-10
   0.5688797395565471E+00
  -0.8456684188387227E-10
   0.5273992817962874E+00
  -0.2808359327195631E-10
   0.5015044841276917E+00
   0.6864142329211584E-10
   0.5821790085838835E+00
   0.1160037736033617E-09
   0.5689618251179699E+00
   0.1780897967795855E-09
   0.3406394441864253E+00
   0.1217298059557784E-09
   0.3789869409765754E+00
   0.3279208041918645E-09
   0.5751958206979528E+00
  -0.8773909116261932E-10
   0.5666485493446891E+00
  -0.8431442771720074E-10
   0.5704108783053717E+00
  -0.5173101554829908E-10
   0.5291056376045727E+00
  -0.1450250061183819E-10
   0.5451902710866873E+00
  -0.1721704835724460E-10
   0.5718804315097332E+00
  -0.5477204339865355E-10
   0.5389079125546876E+00
   0.4829089824317105E-10
   0.5475507504509227E+00
   0.7790948953754493E-10
   0.5821713868894940E+00
  -0.8298549227710137E-10
   0.4925601784074008E+00
   0.1058743523254661E-09
   0.5042157545864121E+00
   0.8630949040225237E-10
   0.4961735435737583E+00
   0.1236850315990271E-09
   0.5565207962980229E+00
  -0.1241713953669255E-09
   0.4758845213289090E+00
  -0.5661223563645236E-09
   0.4950268383126076E+00
   0.1249373805461676E-09
   0.5498525443193168E+00
  -0.3273898509898970E-10
   0.5891202295867130E+00
   0.5188812874012238E-10
   0.5841957609049968E+00
  -0.6538684863844822E-10
   0.5469097664425271E+00
  -0.4473508458837287E-10
   0.5805417617832136E+00
  -0.3444550468766662E-10
   0.5106251438100418E+00
   0.5080856167155242E-10
   0.5030200512661928E+00
   0.9022552707702989E-10
   0.5033624679521085E+00
   0.5477772819585921E-10
   0.5676446096765643E+00
  -0.9024703779415074E-10
   0.5563943082693955E+00
  -0.4972371966569996E-10
   0.4947255972930362E+00
   0.1145814803995905E-09
   0.5505243828643805E+00
  -0.7783345413029891E-10
   0.5510857281513335E+00