# vtk DataFile Version 2.0
FUN3D:global_image_vtk
ASCII
DATASET UNSTRUCTURED_GRID
POINTS 213 double
   -0.5474685441687887E-02    0.6817623398321256E-06    0.2504941971167291E+01
    0.7326481440569842E-07    0.8038138598670476E-04    0.9085431469239811E-06
    0.1245419105183472E+01    0.6782202011552357E-06    0.2504941971167291E+01
    0.7326481440569842E-07    0.1039425058013129E-03    0.1509296739880998E-06
    0.2497696093128780E+01    0.6809111473773203E-06    0.2504941971167291E+01
    0.7326481440569842E-07    0.1101298164665750E-03    0.5314988311142814E-06
    0.3750590968915824E+01    0.9717844935938289E-06    0.2504941971167291E+01
    0.7326481440569842E-07    0.1356499004943613E-03    0.3182539569178583E-06
    0.5003221331742151E+01    0.4721910438108471E-06    0.2504941971167291E+01
    0.7326481440569842E-07    0.9668873038898259E-04    0.3210455693866742E-06
    0.5004676687979097E+01    0.8606551306789841E-06    0.1281291202167040E+01
    0.7805987964528091E-07    0.1638053019384358E-03    0.7823071961183487E-06
    0.5004772673778115E+01    0.3208768137237959E-06    0.2775079906482920E-01
    0.8667529083053655E-06    0.1903478008447594E-03    0.7488291091432439E-06
    0.5003581183341212E+01    0.6885921824186619E-06   -0.1225853508883529E+01
    0.3755580139945194E-06    0.1607765204486577E-03    0.6764411418454533E-06
    0.5001952533742191E+01    0.5360029776200681E-06   -0.2496589036641631E+01
    0.6646405580488957E-07    0.1082258890302553E-03    0.7991742438290392E-06
    0.3750348111606544E+01    0.3676133003437398E-06   -0.2496589036641631E+01
    0.6646405580488957E-07    0.1458753696815806E-03    0.4913997994779180E-06
    0.2498611462994928E+01    0.2273254277925052E-06   -0.2496589036641631E+01
    0.6646405580488957E-07    0.1008933264248221E-03    0.6596664808282634E-06
    0.1247175269333276E+01    0.7922337659596189E-06   -0.2496589036641631E+01
    0.6646405580488957E-07    0.1108587619169651E-03    0.3969846009616668E-06
   -0.3383959865719299E-02    0.1648797236017811E-06   -0.2496589036641631E+01
    0.6646405580488957E-07    0.8107259626494107E-04    0.3141975356819021E-06
   -0.4257768979765638E-02    0.6336215295107167E-07   -0.1225734811642590E+01
    0.2858312992199205E-06    0.3415458742295100E-04    0.6146189610653978E-06
   -0.5251592448509311E-02    0.7315306272051397E-06    0.2619486024420479E-01
    0.3308812414568538E-07    0.1038724387187881E-03    0.2670484160337638E-06
   -0.5676060312426896E-02    0.8427421654658815E-06    0.1278221569065707E+01
    0.5132581869017885E-06    0.8224601702150264E-04    0.3892798219996186E-06
    0.9003209617952581E+00    0.1141016342229221E-06    0.1608979112280158E+01
    0.1272096263021041E-06    0.8704140727672165E-04    0.6841862912816131E-06
    0.3983172210692289E+01    0.9868141221633446E-06   -0.1561211904840279E+01
    0.9186635500003658E-06    0.1757116720370602E-03    0.7531037165301708E-06
    0.4035602039224469E+01    0.6259981158751346E-06    0.1486760030415520E+01
    0.6185185039724638E-06    0.1713312862106633E-03    0.9289329516564451E-06
    0.1036613723302902E+01    0.5175646392831297E-06   -0.1455626429916848E+01
    0.8741121698666936E-06    0.1047189301532909E-03    0.4622013525476104E-06
    0.1094353480630802E+01    0.7735812288228688E-06   -0.2964622010671848E+00
    0.3597833438642094E-06    0.1260590236917268E-03    0.1775180174849248E-07
    0.7298400267480001E+00    0.8451673241082466E-06    0.6874684746719129E+00
    0.4824205927172582E-06    0.1044598640544956E-03    0.3231318729455943E-06
    0.1617018659308944E+01    0.7093149749258178E-06    0.8553208024939380E+00
    0.1449528550118893E-06    0.1529810904974393E-03    0.7757592063201414E-06
    0.2143199662875790E+01    0.7837341960424602E-06   -0.1627128509216730E+01
    0.3210720202786186E-06    0.1606170425226817E-03    0.4333363478376345E-06
    0.4088840445400889E+01    0.5008232513670461E-06   -0.4351047825936258E+00
    0.2789974677127911E-06    0.2719933294109148E-03    0.5566912208664536E-06
    0.2977916511248925E+01    0.9006798913509275E-06   -0.8334991483094493E+00
    0.3178444504720030E-06    0.2245596931861335E-03    0.3344033601297910E-06
    0.3044093241383418E+01    0.9871434594648248E-06   -0.1814361225108581E+01
    0.1230959720407385E-06    0.1617000112420499E-03    0.5601497395668941E-06
    0.3427866614805211E+01    0.8187156177129506E-06    0.3813904839972500E+00
    0.3911371068885085E-06    0.2936955483429109E-03    0.2134111151275116E-07
    0.4313225355351749E+01    0.6966437226287122E-07    0.5489133376342507E+00
    0.7111595635708507E-06    0.2313009573592383E-03    0.2507818769636407E-06
    0.1823032737597358E+01    0.3748903251430747E-06    0.1771265193544254E+01
    0.1148290145226266E-06    0.1836202887151586E-03    0.6572796906048027E-06
    0.2806311152168375E+01    0.1391711939656621E-06    0.1358629373600680E+01
    0.1220925557878099E-06    0.1943492163983825E-03    0.1840976710430370E-06
    0.1891860875936711E+01    0.4448020749172994E-06   -0.8481310365607538E+00
    0.7885227326215703E-06    0.1670645501816172E-03    0.7538814462048673E-06
    0.2268769200166909E+01    0.8470426334243949E-06    0.7723691819196596E-01
    0.3801520241642071E-06    0.2072307783085321E-03    0.5737433540547890E-06
    0.5000000000000000E+01   -0.3408386466397544E-21    0.2504941971167291E+01
    0.7326481440569842E-07    0.1250000000000000E+01   -0.3408386466397544E-21
    0.5000000000000000E+01   -0.3408386466397544E-21    0.2504941971167291E+01
    0.7326481440569842E-07    0.2500000000000000E+01   -0.3408386466397544E-21
    0.5000000000000000E+01   -0.3408386466397544E-21    0.2504941971167291E+01
    0.7326481440569842E-07    0.3750000000000000E+01   -0.3408386466397544E-21
    0.5000000000000000E+01   -0.3408386466397544E-21    0.2504941971167291E+01
    0.7326481440569842E-07    0.5000000000000000E+01   -0.3408386466397544E-21
    0.3750000000000000E+01   -0.3408386466397544E-21    0.2504941971167291E+01
    0.7326481440569842E-07    0.5000000000000000E+01   -0.3408386466397544E-21
    0.2500000000000000E+01   -0.3408386466397544E-21    0.2504941971167291E+01
    0.7326481440569842E-07    0.5000000000000000E+01   -0.3408386466397544E-21
    0.1250000000000000E+01   -0.3408386466397544E-21    0.2504941971167291E+01
    0.7326481440569842E-07    0.5000000000000000E+01   -0.3408386466397544E-21
   -0.1380962412561766E-17   -0.3408386466397544E-21    0.2504941971167291E+01
    0.7326481440569842E-07    0.5000000000000000E+01   -0.3408386466397544E-21
   -0.1380962412561766E-17   -0.3408386466397544E-21    0.2504941971167291E+01
    0.7326481440569842E-07    0.3750000000000000E+01   -0.3408386466397544E-21
   -0.1380962412561766E-17   -0.3408386466397544E-21    0.2504941971167291E+01
    0.7326481440569842E-07    0.2500000000000000E+01   -0.3408386466397544E-21
   -0.1380962412561766E-17   -0.3408386466397544E-21    0.2504941971167291E+01
    0.7326481440569842E-07    0.1250000000000000E+01   -0.3408386466397544E-21
    0.9588956434871094E+00    0.3876229314414520E-06    0.2504941971167291E+01
    0.7326481440569842E-07    0.9696525519543870E+00    0.5274271687061366E-06
    0.3981953078951403E+01    0.4938421189871457E-07    0.2504941971167291E+01
    0.7326481440569842E-07    0.4070563854751271E+01    0.9312261341433761E-07
    0.4036122187252336E+01    0.4154680829118173E-06    0.2504941971167291E+01
    0.7326481440569842E-07    0.1017567520094671E+01    0.4357691201986442E-06
    0.9637572773153890E+00    0.2426639609556986E-08    0.2504941971167291E+01
    0.7326481440569842E-07    0.3973598203142230E+01    0.7693051873255250E-07
    0.1546540136992395E+01    0.8080674647204992E-07    0.2504941971167291E+01
    0.7326481440569842E-07    0.2931570169315600E+01    0.2394307985024690E-06
    0.6973799521244305E+00    0.1894295692825586E-07    0.2504941971167291E+01
    0.7326481440569842E-07    0.3070319952453756E+01    0.1288413940945236E-06
    0.8903742148356870E+00    0.9309074779504965E-07    0.2504941971167291E+01
    0.7326481440569842E-07    0.2056562238187737E+01    0.2741489275630287E-06
    0.2183041995146013E+01    0.3575376146616595E-07    0.2504941971167291E+01
    0.7326481440569842E-07    0.3960694449828018E+01    0.1332329152192422E-06
    0.3855844872709871E+01    0.1196303603242797E-06    0.2504941971167291E+01
    0.7326481440569842E-07    0.2933250588118630E+01    0.2199116462887120E-06
    0.3152611367438031E+01    0.8093538319153637E-07    0.2504941971167291E+01
    0.7326481440569842E-07    0.3637668388416194E+01    0.1757999085550376E-06
    0.3103307385241870E+01    0.3783090206276166E-07    0.2504941971167291E+01
    0.7326481440569842E-07    0.4332607813099730E+01    0.9096731239891006E-07
    0.3266711045517939E+01    0.2610591905961594E-06    0.2504941971167291E+01
    0.7326481440569842E-07    0.1889656617463738E+01    0.3209825366927274E-06
    0.4232537554484796E+01    0.1842317860708877E-06    0.2504941971167291E+01
    0.7326481440569842E-07    0.1918626969802351E+01    0.2654612464149916E-06
    0.1905522374036519E+01    0.4191848405547441E-06    0.2504941971167291E+01
    0.7326481440569842E-07    0.7226290832134608E+00    0.4700684223142608E-06
    0.2879767723645805E+01    0.4783154907875636E-06    0.2504941971167291E+01
    0.7326481440569842E-07    0.9080945892181979E+00    0.2790600869616234E-06
    0.2012711365064515E+01    0.2784828297174737E-06    0.2504941971167291E+01
    0.7326481440569842E-07    0.1767082390977754E+01    0.3805905089000577E-06
    0.2669681472994638E+01    0.1467530038344581E-06    0.2504941971167291E+01
    0.7326481440569842E-07    0.2853394335010791E+01    0.2722699055269423E-06
    0.5000000000000000E+01   -0.3408386466397544E-21    0.1250000000000000E+01
   -0.3408386466397544E-21    0.5000000000000000E+01   -0.3408386466397544E-21
    0.5000000000000000E+01   -0.3408386466397544E-21   -0.1380962412561766E-17
[...]
POINT_DATA 213
SCALARS rho double 1
LOOKUP_TABLE default
   0.1346104112723577E+01
  -0.3562478048433880E-06
   0.9571903491332018E+00
  -0.1310671871139564E-06
   0.9461038290416347E+00
  -0.3383075139500001E-07
   0.9421786672618917E+00
   0.6296731729071136E-07
   0.8436046336999281E+00
  -0.1606870487735545E-06
   0.7741797389656150E+00
   0.5694375066467588E-07
   0.7627419824101002E+00
   0.2215678160056887E-06
   0.7661219851758392E+00
  -0.5034922101661634E-07
   0.8310413575247346E+00
   0.4851430795507643E-07
   0.9353489186299457E+00
   0.2520816985690602E-07
   0.9343650441456260E+00
   0.6206342597651796E-07
   0.9616038562992452E+00
   0.6194916635418437E-08
   0.1448476235240638E+01
  -0.3608029515122967E-06
   0.1495412285238338E+01
  -0.5033606484909441E-06
   0.1646720274095269E+01
  -0.6661501184916210E-06
   0.1426613073070173E+01
  -0.1254666737867360E-06
   0.1009795353184920E+01
   0.7151477766206728E-07
   0.9511284734490177E+00
   0.3345710667430664E-07
   0.9438188043406324E+00
   0.7191848848699531E-07
   0.9574580387161807E+00
   0.4574506954337092E-08
   0.9414846125203911E+00
  -0.1113958881068261E-07
   0.1037108342697796E+01
  -0.5495980256063075E-07
   0.9258006959277357E+00
   0.1220998030046037E-07
   0.9322233224195637E+00
   0.4300060929233320E-07
   0.9537965124595492E+00
   0.9697893189840373E-07
   0.9520323477114750E+00
   0.2001335874503266E-07
   0.9350812126714529E+00
   0.4532769256091391E-07
   0.9565401507227868E+00
   0.2472037879296421E-07
   0.9378567538550444E+00
   0.1539595723841396E-06
   0.9303316268272673E+00
  -0.1232394086994214E-07
   0.9446336981946709E+00
  -0.2360558750063912E-07
   0.8862201826496430E+00
   0.1327953579000030E-06
   0.9423971762701572E+00
  -0.4003874778580395E-07
   0.9637378532738543E+00
  -0.2823053272136128E-07
   0.1008365837937391E+01
   0.3299908847619361E-08
   0.1006746175188509E+01
   0.6616791049300204E-08
   0.1001852552218086E+01
   0.3460373947217021E-08
   0.1003122817309735E+01
   0.4625892169769287E-08
   0.1004081828804507E+01
   0.4979635384002494E-08
   0.1005202254168424E+01
   0.4452818995709028E-08
   0.1004248610026186E+01
   0.4941587323887814E-08
   0.1008252799192890E+01
   0.6036338587802721E-08
   0.1023858607136131E+01
   0.1108735782856610E-07
   0.1063738953153074E+01
   0.8518299006393396E-08
   0.1019385133798880E+01
  -0.1188997672441778E-07
   0.1001768734554034E+01
   0.6217272909912823E-08
   0.9646458090800347E+00
  -0.1079483250650391E-07
   0.1005244828510972E+01
   0.6185112332076190E-08
   0.1000724682919174E+01
   0.1152248711885228E-07
   0.1008678682970901E+01
   0.8239529603295862E-08
   0.1008020660965484E+01
   0.1633283505104214E-07
   0.1002340125808561E+01
   0.6865240360314721E-08
   0.9980209478970478E+00
   0.8917265888096825E-08
   0.1000589300607055E+01
   0.8153887823381842E-08
   0.1001603655213660E+01
   0.6419672565661506E-08
   0.9827867725429039E+00
   0.3839386912389436E-08
   0.9843798799067029E+00
   0.2103032417786317E-08
   0.9834042675343300E+00
  -0.8347929071267786E-08
   0.9790659196446553E+00
  -0.3968159322230853E-08
   0.9904614141123944E+00
   0.6754117651124432E-08
   0.9935051532245973E+00
   0.1085559922730109E-07
   0.1001924190186036E+01
   0.3435359872725996E-08
   0.1002056922985338E+01
   0.3408340631105293E-08
   0.1002228331803762E+01
   0.3628061273597173E-08
   0.1001730255455999E+01
   0.4100411481011493E-08
   0.1009833892126819E+01
   0.3980867625714470E-08
   0.1006499751585272E+01
   0.6590354040181991E-08
   0.9560844478746734E+00
  -0.3986799084696292E-08
   0.9252785243141454E+00
  -0.3914001208282621E-07
   0.1007055966428350E+01
   0.3691316130447335E-08
   0.1004493921254294E+01
   0.4749943994797503E-08
   0.9145119771325717E+00
  -0.1719277548112544E-07
   0.9091795758045638E+00
  -0.1410596566918458E-07
   0.8752647360798130E+00
  -0.2745341076507576E-08
   0.9767635246715269E+00
   0.5350485832980087E-08
   0.1000508027693664E+01
   0.1003617366718394E-07
   0.1005828508886624E+01
   0.3930047653284542E-08
   0.1012915500135836E+01
   0.6177518311973450E-08
   0.1011701552285998E+01
   0.5671079177851750E-08
   0.1010446303448467E+01
   0.4419278396259648E-08
   0.1005435864252229E+01
   0.3892212159332157E-08
   0.9908923573646797E+00
  -0.2181498004012927E-08
   0.1005170155348069E+01
   0.5331933158587590E-08
   0.9860674061003253E+00
   0.1312227414100548E-07
   0.1005575216129332E+01
   0.6787335665435966E-08
   0.1004234024685780E+01
   0.4361895446289004E-08
   0.1002867209222493E+01
   0.4592799491131319E-08
   0.1003331994463428E+01
   0.4404284087133806E-08
   0.1003991653602901E+01
   0.4416109294676580E-08
   0.1005101039030780E+01
   0.4992731920998817E-08
   0.1003212207699898E+01
   0.6037123728417952E-08
   0.1002637492228726E+01
   0.6017127535548929E-08
   0.1002502745608183E+01
   0.4491108495962475E-08
   0.1004057396984231E+01
   0.4956974837990519E-08
   0.1004282820105837E+01
   0.4556873967722306E-08
   0.1001609814838666E+01
   0.5900080585675741E-08
   0.1002217665176366E+01
   0.5205561389806962E-08
   0.1002468367505518E+01
   0.4660368242109564E-08
   0.1003439288426066E+01
   0.5858798465242132E-08
   0.1003370671919059E+01
   0.6071083862012886E-08
   0.1003221130644625E+01
   0.4837988887958369E-08
   0.1004423233064592E+01
   0.5662355121543345E-08
   0.1004318510695369E+01
   0.5697786979451552E-08
   0.1003642661763474E+01
   0.4742479314651238E-08
   0.1003655854992639E+01
   0.5333413373602594E-08
   0.1004293540970941E+01
   0.5369526454646803E-08
   0.1004444079154413E+01
   0.5285696672446732E-08
   0.1003597836103574E+01
   0.5793138017466278E-08
   0.1064478501260897E+01
   0.7204035643197077E-08
   0.1028431741422065E+01
   0.4160498320430283E-08
   0.1009589712904699E+01
   0.6013346717982366E-08
   0.1006618462887686E+01
   0.5506469725019014E-08
   0.1163948094949476E+01
  -0.4951161023271094E-07
   0.1086027571124080E+01
   0.4906454018912213E-08
   0.1007889160004871E+01
   0.5588959450427035E-08
   0.1007235385993227E+01
   0.5312998796256968E-08
   0.1006787933956922E+01
   0.4837629412268781E-08
   0.1013043553053893E+01
   0.8180505562144321E-08
   0.1019325759384387E+01
   0.5054854295781795E-08
   0.1235116537386753E+01
  -0.1387974783136398E-06
   0.1032531305383120E+01
   0.6136395782981382E-08
   0.1046547837977735E+01
   0.1748169732294015E-08
   0.1201689429483492E+01
  -0.5485545285543082E-07
   0.1014664271442199E+01
   0.9060450018737422E-08
   0.1032281615009891E+01
   0.1568294065247076E-07
   0.1028207161798264E+01
   0.1021268571756623E-07
   0.1014626725066499E+01
   0.6692666613612223E-08
   0.1028978904504412E+01
   0.5647960929476241E-08
   0.1001996533763611E+01
   0.6495063119927221E-08
   0.9608243857498995E+00
  -0.7747168663919062E-08
   0.1006844956941686E+01
   0.6376668863963388E-08
   0.1001307837592129E+01
   0.9132914801240437E-08
   0.1010783430631215E+01
   0.8100960021943285E-08
   0.1012221706275959E+01
   0.1056026378340047E-07
   0.1000928017628886E+01
   0.8043516756245132E-08
   0.9979282406865748E+00
   0.9991257299972907E-08
   0.9980614932323640E+00
   0.8997448862997432E-08
   0.1001176548349036E+01
   0.7129314286362235E-08
   0.9841812731315523E+00
   0.1558030660643507E-07
   0.9814961862050081E+00
   0.1048356184568109E-07
   0.9648728360109711E+00
   0.3549766564482991E-07
   0.9680840001066511E+00
   0.2315965297142980E-07
   0.9914051939211169E+00
   0.8626199478300418E-08
   0.9910783985321837E+00
   0.1122545832451850E-07
   0.9925437789143683E+00
   0.1061910391068545E-07
   0.1001710365771592E+01
   0.9160693266322259E-08
   0.9993069383172606E+00
   0.1032239295248204E-07
   0.9941305195259181E+00
   0.1314402148259898E-07
   0.1006968141443791E+01
   0.1101323361289743E-07
   0.1022601712309261E+01
   0.2562809880161505E-07
   0.1001119237924475E+01
   0.2785877176427200E-08
   0.1008768064296198E+01
   0.7779582322353329E-08
   0.1004758472892035E+01
   0.7523563103103396E-08
   0.1009009495395487E+01
   0.8860241512184806E-08
   0.9967078824111962E+00
   0.1173223483179802E-07
   0.1005562051399534E+01
   0.2594632372077021E-07
   0.1003315941527078E+01
   0.6676170537601964E-08
   0.9949741629039398E+00
   0.9136593288270917E-08
   0.9833334312612509E+00
   0.8962853845664953E-08
   0.9944339667901810E+00
   0.8221504404945976E-08
   0.9973423043754766E+00
   0.7853033364848928E-08
   0.9932309090309274E+00
   0.8460081871391704E-08
   0.1001303161237020E+01
   0.7535177306378042E-08
   0.1002992529542319E+01
   0.7269130562542291E-08
   0.1002173042086743E+01
   0.6245675833724143E-08
   0.9947102640905982E+00
   0.9465415334160722E-08
   0.9937772284604643E+00
   0.1024606094415904E-07
   0.1004847059845621E+01
   0.6927586050777262E-08
   0.1020087968849723E+01
   0.9073067308263023E-08
   0.1005326487468154E+01
   0.8494249467482825E-08
   0.9816960042228562E+00
   0.1234147734287737E-07
   0.1004962855551942E+01
   0.6126610958618636E-08
   0.1012358368557822E+01
   0.7432059018713825E-08
   0.9873618532419728E+00
  -0.2256989036280257E-07
   0.9551234581434863E+00
   0.3526460467079306E-07
   0.9865162565434039E+00
   0.1382864824302047E-07
   0.9865801045027233E+00
   0.5954689538077285E-08
   0.9920002453481939E+00
  -0.2445244157723488E-07
   0.9934318483075526E+00
   0.6783870055638271E-09
   0.9960583368324617E+00
   0.2211968828547175E-07
   0.1037392280801408E+01
   0.3681868182624938E-08
   0.1033148951656520E+01
   0.9636281550802189E-08
   0.1001425563311412E+01
   0.5899436719527999E-08
   0.1001910935159586E+01
   0.6694260098658698E-08
   0.9912157829128326E+00
   0.1430263732064281E-07
   0.9911014773418064E+00
   0.1253436452673490E-07
   0.9649137707289310E+00
   0.1196687270143288E-07
   0.9933666723342807E+00
   0.1104326396259552E-07
   0.1006091568707583E+01
   0.6608363027757748E-08
   0.1001960928761721E+01
   0.7547139232014880E-08
   0.9908500153799351E+00
   0.1082066258055692E-07
   0.9741982125605376E+00
  -0.1056254399029330E-08
   0.9420573701447718E+00
  -0.1768187928424335E-07
   0.9821364616887516E+00
  -0.3431183491100895E-08
   0.9794649239430809E+00
   0.1520130167239783E-07
   0.9704393706417702E+00
   0.1399567936632059E-07
   0.9720648342691408E+00
   0.1900034836467379E-07
   0.9557768680616856E+00
   0.9605524353109011E-08
   0.9498131143483632E+00
   0.3505610614218920E-08
   0.9530016168120474E+00
   0.2613977955455553E-07
   0.1002617864396321E+01
   0.8019698229367410E-08
   0.1002470583367151E+01
   0.7227697519944632E-08
   0.1000505390051313E+01
   0.6519757838391138E-08
   0.1001688919236218E+01
   0.6867897000145947E-08
   0.9609798330953335E+00
   0.1565603032049188E-07
   0.9492853587061167E+00
   0.2246607909300107E-07
   0.9586748637718827E+00
   0.9119470842363992E-08
   0.1001115754953707E+01
   0.7667203968600680E-08
   0.1000497534629797E+01
   0.7512726655059871E-08
   0.1001172380924398E+01
   0.7269842763542791E-08
   0.9807328876245641E+00
   0.1119956744426947E-07
   0.9805471026878276E+00
   0.1766636274188772E-07
   0.9629256342063526E+00
   0.2203805078551890E-08
SCALARS u double 1
LOOKUP_TABLE default
   0.0000000000000000E+00
   0.0000000000000000E+00
   0.0000000000000000E+00
   0.0000000000000000E+00
   0.0000000000000000E+00
   0.0000000000000000E+00
   0.0000000000000000E+00
   0.0000000000000000E+00
   0.0000000000000000E+00
   0.0000000000000000E+00
   0.0000000000000000E+00
   0.0000000000000000E+00
   0.0000000000000000E+00
   0.0000000000000000E+00
   0.0000000000000000E+00
   0.0000000000000000E+00
   0.0000000000000000E+00
   0.0000000000000000E+00
   0.0000000000000000E+00
   0.0000000000000000E+00
   0.0000000000000000E+00
   0.0000000000000000E+00
   0.0000000000000000E+00
   0.0000000000000000E+00
   0.0000000000000000E+00
   0.0000000000000000E+00
   0.0000000000000000E+00
   0.0000000000000000E+00
   0.0000000000000000E+00
   0.0000000000000000E+00
   0.0000000000000000E+00
   0.0000000000000000E+00
   0.0000000000000000E+00
   0.0000000000000000E+00
   0.0000000000000000E+00
   0.0000000000000000E+00
   0.0000000000000000E+00
   0.0000000000000000E+00
   0.0000000000000000E+00
   0.0000000000000000E+00
   0.0000000000000000E+00
   0.0000000000000000E+00
   0.0000000000000000E+00
   0.0000000000000000E+00
   0.0000000000000000E+00
   0.0000000000000000E+00
   0.0000000000000000E+00
   0.0000000000000000E+00
   0.0000000000000000E+00
   0.0000000000000000E+00
   0.0000000000000000E+00
   0.0000000000000000E+00
   0.0000000000000000E+00
   0.0000000000000000E+00
   0.0000000000000000E+00
   0.0000000000000000E+00
   0.0000000000000000E+00
   0.0000000000000000E+00
   0.0000000000000000E+00
   0.0000000000000000E+00
   0.0000000000000000E+00
   0.0000000000000000E+00
   0.0000000000000000E+00
   0.0000000000000000E+00
   0.0000000000000000E+00
   0.0000000000000000E+00
   0.4945073042646256E+00
  -0.1393816922489790E-07
   0.5336140158712336E+00
  -0.6704920540320224E-08
   0.5183281437246512E+00
   0.6521050992662484E-09
   0.4930097280427172E+00
   0.1899566475338622E-08
   0.4845536554664209E+00
  -0.3149595158733366E-08
   0.4867818990199058E+00
  -0.4283797742411834E-08
   0.4891961135133225E+00
  -0.3824704257696439E-08
   0.4958542915018694E+00
  -0.5334063529127438E-08
   0.4899039478213417E+00
  -0.4171121811731748E-08
   0.4718201576656902E+00
  -0.1025461875519359E-07
   0.4449075661554042E+00
   0.1231142856543674E-07
   0.4844432432210243E+00
  -0.2163667430455636E-07
   0.5098760687106821E+00
  -0.4403010856202706E-08
   0.4401340357556917E+00
   0.3151993878214996E-07
   0.4949817804736585E+00
  -0.6012776673358374E-08
   0.5223239045970293E+00
  -0.1468911631661578E-07
   0.4962866499922344E+00
  -0.9271198800472571E-08
   0.5224022665508090E+00
  -0.2205914913990308E-07
   0.5038815765278958E+00
  -0.8328028078976943E-08
   0.5645098751692099E+00
  -0.1118478753551157E-07
   0.5246817303725061E+00
  -0.8391253274449534E-08
   0.4991801382636620E+00
  -0.6506984819956848E-08
   0.5728962919071965E+00
  -0.2391576085402186E-07
   0.5693182394645337E+00
  -0.1581688656202515E-07
   0.3752067702249891E+00
  -0.7112968652951598E-08
   0.4003042209132344E+00
  -0.7128122320420378E-07
   0.5599423175259673E+00
  -0.1492417164977426E-07
   0.5562675254507400E+00
  -0.1229283930909772E-07
   0.4941822714817102E+00
   0.1449488585632439E-08
   0.4948048413078556E+00
   0.5127337910331243E-09
   0.4924971490931399E+00
  -0.8443742405997414E-10
   0.4913563729916113E+00
   0.5026482933997195E-09
   0.5163189127969375E+00
   0.9400701565196061E-09
   0.5363661592435534E+00
   0.1282847034595843E-08
   0.4951167734660352E+00
  -0.4991985481322840E-08
   0.4520191724949983E+00
  -0.2086759510860316E-07
   0.5129271465472510E+00
   0.8294147119014670E-09
   0.5118233671926351E+00
   0.1454226513461870E-08
   0.4785955279694016E+00
  -0.1264268796577980E-07
   0.4930900776608695E+00
  -0.1167963181723386E-07
   0.4599956212612408E+00
  -0.4385263615196215E-07
   0.5242715510814843E+00
  -0.1579678824869794E-07
   0.5299975238102197E+00
  -0.5813900813695210E-08
   0.5129946896510957E+00
  -0.4600685286083703E-09
   0.5328899542038380E+00
   0.9463696485310805E-09
   0.5309928462374401E+00
   0.1566874186480329E-08
   0.5309915775190005E+00
   0.7582058895483814E-09
   0.5063864608486591E+00
   0.8983887582643336E-09
   0.5279321581842649E+00
  -0.1050653393413497E-07
   0.5409200110333345E+00
  -0.3748218986262692E-08
   0.5363714870983589E+00
  -0.1558759244546921E-07
   0.5374272761026162E+00
  -0.7766457625777790E-08
   0.4965526973950148E+00
  -0.5402765326405915E-08
   0.4975488985352324E+00
  -0.5467881110716237E-08
   0.4963897791677236E+00
  -0.4592923199757275E-08
   0.4955329173155201E+00
  -0.5097035597843877E-08
   0.4904111452868222E+00
  -0.4826117666067466E-08
   0.4901949529219025E+00
  -0.5457468851075455E-08
   0.4859893152880024E+00
  -0.4617689936020475E-08
   0.4851932087613064E+00
  -0.3335699525928675E-08
   0.4932040842723865E+00
  -0.5299001522875088E-08
   0.4910575361858204E+00
  -0.4149570532927340E-08
   0.4830347370833512E+00
  -0.5538834876461460E-08
   0.4871027304224605E+00
  -0.5239978117352437E-08
   0.4878378147725687E+00
  -0.3552101524641941E-08
   0.4871418395266567E+00
  -0.6269341206218970E-08
   0.4881058065294706E+00
  -0.4791534029113417E-08
   0.4952662095908262E+00
  -0.5094442488959443E-08
   0.4900693854415497E+00
  -0.4792905818723237E-08
   0.4903394850931695E+00
  -0.5250102074020416E-08
   0.4944555672020550E+00
  -0.4783031676248294E-08
   0.4867061060360504E+00
  -0.4868234006152816E-08
   0.4892684812662888E+00
  -0.5182805200664191E-08
   0.4881456612841413E+00
  -0.5239557165224242E-08
   0.4877442211570354E+00
  -0.5828822068876020E-08
   0.4449178748289205E+00
   0.5809448112655370E-08
   0.4700238148214458E+00
  -0.4494194919631169E-08
   0.4891918091910128E+00
  -0.5736585986842699E-08
   0.4885806174014002E+00
  -0.2087217011405551E-08
   0.4510577201918947E+00
   0.1791938357896257E-07
   0.4681652389918114E+00
  -0.1339093233514805E-07
   0.4876733791419510E+00
  -0.3625678747818503E-08
   0.4868288359451701E+00
  -0.1542639153705171E-08
   0.4909345859700781E+00
  -0.2832305527275498E-08
   0.4794074806754053E+00
  -0.5076385198255626E-08
   0.4658127939386404E+00
  -0.3157641347211820E-08
   0.3794480323988195E+00
   0.3390801264979740E-07
   0.4903659836211994E+00
  -0.3300923253944854E-07
   0.4488145846151471E+00
  -0.4474576684522716E-08
   0.4432557818237085E+00
   0.9061199662962972E-08
   0.4845808637254204E+00
  -0.7950060670324438E-08
   0.4622197889226659E+00
  -0.1412251544988539E-07
   0.4663850529749621E+00
  -0.3215171791883407E-07
   0.4747957423894530E+00
  -0.5319590909823734E-08
   0.4893963455366213E+00
  -0.4645652541269159E-07
   0.5086685812562948E+00
  -0.9092102084055284E-08
   0.4305168764516493E+00
   0.1715861995280282E-07
   0.4927437308992862E+00
  -0.6548394494463482E-08
   0.5320485418450007E+00
  -0.2180657295806569E-07
   0.4913953482872618E+00
  -0.8566859005189253E-08
   0.5209580784391801E+00
  -0.1570933215202421E-07
   0.5062018369527751E+00
  -0.1252622680342287E-07
   0.5691203213548899E+00
  -0.1041605953835800E-07
   0.5275839021154316E+00
  -0.1666661572571418E-07
   0.5015545548534878E+00
  -0.1014295314193565E-07
   0.5821420067664150E+00
   0.5080032247509024E-08
   0.5691461764461868E+00
  -0.9146303719641962E-09
   0.3403384186869624E+00
   0.1299305615637622E-07
   0.3785942961898926E+00
   0.7312264755869906E-07
   0.5753331056530602E+00
  -0.1008073247350255E-07
   0.5668697388180506E+00
  -0.2144495836613630E-07
   0.5703101371390529E+00
  -0.1641517633160025E-07
   0.5292031765148062E+00
  -0.2252481296482558E-07
   0.5449946471136895E+00
  -0.2072357157458626E-07
   0.5719061215947416E+00
  -0.1062746077323219E-07
   0.5385834371727124E+00
  -0.2831019360300534E-07
   0.5475993562799389E+00
  -0.2441270339065157E-08
   0.5821562977846558E+00
   0.2865233602000831E-07
   0.4925469773405381E+00
  -0.1545603624585641E-07
   0.5041939793058645E+00
  -0.9831640408606883E-08
   0.4961441954916149E+00
  -0.1212558383865064E-07
   0.5562794023374771E+00
  -0.1407491550856457E-07
   0.4757931348951687E+00
  -0.2505310108920890E-07
   0.4950441645968701E+00
  -0.7865811684236719E-08
   0.5496544892819911E+00
  -0.1337940079788328E-07
   0.5889369927295679E+00
  -0.9834629379644262E-08
   0.5839896648541653E+00
  -0.1503176597837595E-07
   0.5468843582477885E+00
  -0.1181285732450092E-07
   0.5803823833565471E+00
  -0.1292163983236338E-07
   0.5106740439854629E+00
  -0.1324174500198402E-07
   0.5030195989868469E+00
  -0.1117220759205486E-07
   0.5033659703861110E+00
  -0.7321733492469935E-08
   0.5676455736612169E+00
  -0.8375752245104174E-08
   0.5564984305379864E+00
  -0.1826166928348051E-07
   0.4947439351328535E+00
  -0.9715286889894862E-08
   0.5506859806548466E+00
  -0.3389102357712859E-07
   0.5513610574430879E+00