# vtk DataFile Version 2.0
FUN3D:global_image_vtk
ASCII
DATASET UNSTRUCTURED_GRID
POINTS 213 double
   -0.5474738059504602E-02    0.5000000000000022E-30    0.2504941999961484E+01
    0.1212121212121193E-30    0.8055550996138860E-04    0.5000000000000000E-30
    0.1245419063214956E+01    0.1000000000000004E-29    0.2504941999961484E+01
    0.1212121212121193E-30    0.1041110799572809E-03    0.1000000000000000E-29
    0.2497696076329003E+01    0.5000000000000000E-30    0.2504941999961484E+01
    0.1212121212121193E-30    0.1102916248165164E-03    0.5000000000000000E-30
    0.3750590986574023E+01    0.1000000000000000E-29    0.2504941999961484E+01
    0.1212121212121193E-30    0.1358046305401372E-03    0.1000000000000000E-29
    0.5003221380247613E+01    0.5000000000000000E-30    0.2504941999961484E+01
    0.1212121212121193E-30    0.9683523344461431E-04    0.5000000000000000E-30
    0.5004676745410213E+01    0.1000000000000000E-29    0.1281291377273527E+01
    0.4999999999999890E-30    0.1639128333390527E-03    0.1000000000000000E-29
    0.5004772723164809E+01    0.4999999999999979E-30    0.2775094235895190E-01
    0.9999999999999913E-30    0.1904167401678425E-03    0.5000000000000000E-30
    0.5003581213732991E+01    0.1000000000000000E-29   -0.1225853394964910E+01
    0.4999999999999912E-30    0.1608071321506643E-03    0.1000000000000000E-29
    0.5001952545688034E+01    0.5000000000000000E-30   -0.2496589021166458E+01
    0.1212121212121203E-30    0.1082184661237440E-03    0.5000000000000000E-30
    0.3750348114452023E+01    0.1000000000000000E-29   -0.2496589021166458E+01
    0.1212121212121203E-30    0.1458710028767740E-03    0.1000000000000000E-29
    0.2498611455860786E+01    0.5000000000000000E-30   -0.2496589021166458E+01
    0.1212121212121203E-30    0.1008914036254582E-03    0.5000000000000000E-30
    0.1247175253529147E+01    0.1000000000000000E-29   -0.2496589021166458E+01
    0.1212121212121203E-30    0.1108597702464409E-03    0.1000000000000000E-29
   -0.3383978115785169E-02    0.5000000000000022E-30   -0.2496589021166458E+01
    0.1212121212121203E-30    0.8107707488508309E-04    0.5000000000000000E-30
   -0.4257799575230425E-02    0.1000000000000000E-29   -0.1225734704378883E+01
    0.4999999999999912E-30    0.3420054752112378E-04    0.1000000000000000E-29
   -0.5251637157060784E-02    0.5000000000000022E-30    0.2619498345569626E-01
    0.9999999999999913E-30    0.1039613540431139E-03    0.5000000000000000E-30
   -0.5676113931367688E-02    0.1000000000000004E-29    0.1278221711771627E+01
    0.4999999999999890E-30    0.8237742971856088E-04    0.1000000000000000E-29
    0.9003209086382191E+00    0.5000000000000022E-30    0.1608979275733105E+01
    0.9999999999999868E-30    0.8718012080222159E-04    0.5000000000000000E-30
    0.3983172220881041E+01    0.1000000000000000E-29   -0.1561211796856023E+01
    0.4999999999999912E-30    0.1757351954316810E-03    0.1000000000000000E-29
    0.4035602066125263E+01    0.5000000000000000E-30    0.1486760229513980E+01
    0.9999999999999868E-30    0.1714506678095473E-03    0.5000000000000000E-30
    0.1036613696945808E+01    0.1000000000000000E-29   -0.1455626319023465E+01
    0.4999999999999912E-30    0.1047538994854991E-03    0.1000000000000000E-29
    0.1094353438944835E+01    0.5000000000000022E-30   -0.2964620713744224E+00
    0.9999999999999868E-30    0.1261326919438921E-03    0.5000000000000000E-30
    0.7298399754953697E+00    0.1000000000000004E-29    0.6874686188446064E+00
    0.4999999999999713E-30    0.1045682047596808E-03    0.1000000000000000E-29
    0.1617018610904462E+01    0.5000000000000022E-30    0.8553209657949420E+00
    0.9999999999999691E-30    0.1530917835092516E-03    0.5000000000000000E-30
    0.2143199645120234E+01    0.1000000000000000E-29   -0.1627128401290524E+01
    0.4999999999999912E-30    0.1606433273473873E-03    0.1000000000000000E-29
    0.4088840470379843E+01    0.5000000000000000E-30   -0.4351046471404206E+00
    0.9999999999999913E-30    0.2720522799659064E-03    0.5000000000000000E-30
    0.2977916500432660E+01    0.1000000000000000E-29   -0.8334990271277849E+00
    0.4999999999998341E-30    0.2246092970106250E-03    0.1000000000000000E-29
    0.3044093236197656E+01    0.5000000000000000E-30   -0.1814361118269820E+01
    0.9999999999999957E-30    0.1617179478026198E-03    0.5000000000000000E-30
    0.3427866617085304E+01    0.1000000000000000E-29    0.3813906574464904E+00
    0.4999999999999912E-30    0.2937830712453904E-03    0.1000000000000000E-29
    0.4313225396320023E+01    0.4999999999999979E-30    0.5489135083257440E+00
    0.9999999999999691E-30    0.2313893475642814E-03    0.5000000000000000E-30
    0.1823032699632841E+01    0.1000000000000000E-29    0.1771265381755795E+01
    0.4999999999999890E-30    0.1837610807679524E-03    0.1000000000000000E-29
    0.2806311135978372E+01    0.5000000000000022E-30    0.1358629571504241E+01
    0.9999999999982828E-30    0.1944713312552748E-03    0.5000000000000000E-30
    0.1891860844560957E+01    0.1000000000000000E-29   -0.8481309128925676E+00
    0.4999999999999668E-30    0.1671170219251228E-03    0.1000000000000000E-29
    0.2268769163417530E+01    0.5000000000000022E-30    0.7723707075737757E-01
    0.9999999999999913E-30    0.2073128221063425E-03    0.5000000000000000E-30
    0.5000000000000000E+01    0.7757665160043127E-46    0.2504941999961484E+01
    0.1212121212121193E-30    0.1250000000000000E+01    0.7757665160043127E-46
    0.5000000000000000E+01    0.7757665160043127E-46    0.2504941999961484E+01
    0.1212121212121193E-30    0.2500000000000000E+01    0.7757665160043127E-46
    0.5000000000000000E+01    0.7757665160043127E-46    0.2504941999961484E+01
    0.1212121212121193E-30    0.3750000000000000E+01    0.7757665160043127E-46
    0.5000000000000000E+01    0.7757665160043127E-46    0.2504941999961484E+01
    0.1212121212121193E-30    0.5000000000000000E+01    0.7757665160043127E-46
    0.3750000000000000E+01    0.7757665160043127E-46    0.2504941999961484E+01
    0.1212121212121193E-30    0.5000000000000000E+01    0.7757665160043127E-46
    0.2500000000000000E+01    0.7757665160043127E-46    0.2504941999961484E+01
    0.1212121212121193E-30    0.5000000000000000E+01    0.7757665160043127E-46
    0.1250000000000000E+01    0.7757665160043127E-46    0.2504941999961484E+01
    0.1212121212121193E-30    0.5000000000000000E+01    0.7757665160043127E-46
   -0.7579743369877610E-19    0.7757665160043127E-46    0.2504941999961484E+01
    0.1212121212121193E-30    0.5000000000000000E+01    0.7757665160043127E-46
   -0.7579743369877610E-19    0.7757665160043127E-46    0.2504941999961484E+01
    0.1212121212121193E-30    0.3750000000000000E+01    0.7757665160043127E-46
   -0.7579743369877610E-19    0.7757665160043127E-46    0.2504941999961484E+01
    0.1212121212121193E-30    0.2500000000000000E+01    0.7757665160043127E-46
   -0.7579743369877610E-19    0.7757665160043127E-46    0.2504941999961484E+01
    0.1212121212121193E-30    0.1250000000000000E+01    0.7757665160043127E-46
    0.9588956144355160E+00    0.4088323204881824E-30    0.2504941999961484E+01
    0.1212121212121193E-30    0.9696527279204156E+00    0.8253355966552041E-30
    0.3981953084978402E+01    0.7369699780678448E-31    0.2504941999961484E+01
    0.1212121212121193E-30    0.4070563876500499E+01    0.1516277355841564E-30
    0.4036122198870731E+01    0.5331184872991175E-30    0.2504941999961484E+01
    0.1212121212121193E-30    0.1017567671852929E+01    0.8139234257758195E-30
    0.9637572703692224E+00   -0.9331067766748092E-32    0.2504941999961484E+01
    0.1212121212121193E-30    0.3973598229042282E+01    0.1306014370160011E-30
    0.1546540123352509E+01    0.8002905657949493E-31    0.2504941999961484E+01
    0.1212121212121193E-30    0.2931570247918891E+01    0.3996885550963846E-30
    0.6973799367138889E+00    0.3481309068765403E-32    0.2504941999961484E+01
    0.1212121212121193E-30    0.3070319998906840E+01    0.2100037182687727E-30
    0.8903741869765985E+00    0.7712488796454193E-31    0.2504941999961484E+01
    0.1212121212121193E-30    0.2056562332029389E+01    0.4294668085395318E-30
    0.2183041992443723E+01    0.3782461580855512E-31    0.2504941999961484E+01
    0.1212121212121193E-30    0.3960694489254670E+01    0.2259705361720107E-30
    0.3855844883881474E+01    0.1784932175602798E-30    0.2504941999961484E+01
    0.1212121212121193E-30    0.2933250643805066E+01    0.3558534735546932E-30
    0.3152611372008679E+01    0.1115283363370520E-30    0.2504941999961484E+01
    0.1212121212121193E-30    0.3637668435336390E+01    0.2959845527179582E-30
    0.3103307388029137E+01    0.5185271477129722E-31    0.2504941999961484E+01
    0.1212121212121193E-30    0.4332607836744343E+01    0.1521436499786757E-30
    0.3266711050822213E+01    0.3601961362749739E-30    0.2504941999961484E+01
    0.1212121212121193E-30    0.1889656733417950E+01    0.6353768785679482E-30
    0.4232537571805413E+01    0.2580489315432253E-30    0.2504941999961484E+01
    0.1212121212121193E-30    0.1918627039918501E+01    0.4090791405816573E-30
    0.1905522344842234E+01    0.6572817491142049E-30    0.2504941999961484E+01
    0.1212121212121193E-30    0.7226292666170522E+00    0.8977306600899987E-30
    0.2879767720433331E+01    0.6107141644548690E-30    0.2504941999961484E+01
    0.1212121212121193E-30    0.9080947549972165E+00    0.8180347387424774E-30
    0.2012711351533434E+01    0.3615868018473284E-30    0.2504941999961484E+01
    0.1212121212121193E-30    0.1767082528588959E+01    0.7060364642885853E-30
    0.2669681472765472E+01    0.1849800474546748E-30    0.2504941999961484E+01
    0.1212121212121193E-30    0.2853394418098206E+01    0.4820509466878956E-30
    0.5000000000000000E+01    0.7757665160043127E-46    0.1250000000000000E+01
    0.7757665160043127E-46    0.5000000000000000E+01    0.7757665160043127E-46
    0.5000000000000000E+01    0.7757665160043127E-46   -0.7579743369877610E-19
[...]
POINT_DATA 213
SCALARS rho double 1
LOOKUP_TABLE default
   0.1219599913617178E+01
  -0.6526407565038459E-31
   0.9221793838880258E+00
   0.2217449191232175E-31
   0.9104476812929838E+00
  -0.8034671712237367E-31
   0.8966767976560358E+00
   0.2806558972299786E-31
   0.7819488863886612E+00
  -0.7932711187905382E-32
   0.7116571317215621E+00
   0.2387655997574084E-30
   0.6990709657843208E+00
   0.9048882682256278E-31
   0.7029546921929946E+00
   0.4252343504955847E-31
   0.7687355881556730E+00
  -0.8914836450391790E-31
   0.8895232822289711E+00
   0.3337904119160576E-31
   0.8987464019091779E+00
  -0.7715173528818168E-31
   0.9249601769146796E+00
  -0.1601541228784062E-31
   0.1300246732778227E+01
  -0.1090121099799730E-30
   0.1348040885210589E+01
  -0.5523172658203850E-30
   0.1456338075679602E+01
  -0.2681109969890399E-30
   0.1286719692337439E+01
  -0.4187495198031539E-30
   0.9619642158942167E+00
  -0.4382651064677302E-31
   0.9047653980566172E+00
  -0.1613266002148607E-31
   0.8972301123591838E+00
   0.2238535003440154E-31
   0.9249192778392603E+00
  -0.1345788236267361E-31
   0.9126331843475762E+00
   0.2682093442944768E-32
   0.9866008235395431E+00
  -0.1762656601183789E-30
   0.8974308639202280E+00
  -0.4227030782740638E-31
   0.8999717894748026E+00
  -0.8274863430368688E-31
   0.9067475719166416E+00
  -0.2569583420534103E-31
   0.9112478406999993E+00
  -0.3898940808800796E-31
   0.8943866375889636E+00
  -0.1148926236766629E-31
   0.9125851103369074E+00
  -0.2531585407672422E-31
   0.8902529657865722E+00
   0.7644195701671981E-32
   0.9018652715698505E+00
  -0.3507167670884021E-31
   0.9063596825073471E+00
   0.1370389615784254E-31
   0.8623950846104216E+00
   0.3650674226531205E-31
   0.9078064541469633E+00
   0.9875007119529152E-31
   0.9506821980939898E+00
  -0.3136076128813899E-31
   0.1008490980202857E+01
   0.1583918039188193E-32
   0.1006976758480178E+01
   0.1121690827098941E-32
   0.1000145908665375E+01
  -0.5935625548855593E-33
   0.1000492870001289E+01
  -0.2315211266177233E-32
   0.1001010370654644E+01
  -0.2967943911720385E-32
   0.1002467258125896E+01
  -0.2020740237945424E-32
   0.1001944765553481E+01
  -0.1278945308610625E-33
   0.1004886098317266E+01
  -0.1727124852897198E-33
   0.1016625222136651E+01
   0.7331005506530206E-32
   0.1058313554257932E+01
   0.2243851231843971E-31
   0.1005436788048857E+01
   0.2141650237232036E-31
   0.1000007369537327E+01
  -0.1615738620200283E-32
   0.9457700490478680E+00
  -0.3686342230965282E-31
   0.1002042271947834E+01
  -0.1068146584600911E-32
   0.9982829476285289E+00
  -0.4530960375226597E-34
   0.1004492521308459E+01
   0.4396950787827924E-33
   0.1005371617840378E+01
   0.1984504456294435E-32
   0.9993111978129293E+00
  -0.2178440278299618E-32
   0.9978002667662103E+00
  -0.1220094357892125E-32
   0.9988040172539819E+00
  -0.2610784146387211E-32
   0.9987211972701866E+00
  -0.2487373853878908E-32
   0.9780928918388661E+00
  -0.3877129090160536E-32
   0.9796706142197342E+00
  -0.1919773245824335E-32
   0.9639504863509936E+00
  -0.3058349786291461E-31
   0.9601301310484474E+00
  -0.2019843135070628E-31
   0.9867991728035281E+00
  -0.4870633289723136E-32
   0.9922400513197468E+00
  -0.1350649658755235E-32
   0.1000342977223480E+01
  -0.3833983299678250E-33
   0.1000541450813972E+01
  -0.3981771849542910E-33
   0.1000671133070720E+01
  -0.4379841225484667E-33
   0.9998284135089159E+00
   0.1060462582217596E-33
   0.1009782297109930E+01
   0.2490847479689818E-32
   0.1007174224039053E+01
   0.2487664747227015E-32
   0.9448363517732393E+00
  -0.2612156609807988E-31
   0.9034576848517787E+00
  -0.3727450453014843E-31
   0.1007039898459491E+01
   0.1390286450405193E-32
   0.1004193124635585E+01
   0.3381266249134848E-33
   0.8965165777363574E+00
  -0.3780587187177489E-31
   0.8926680498152924E+00
  -0.1668325802423973E-31
   0.8470449750116101E+00
  -0.1975146523475274E-31
   0.9708429042676042E+00
  -0.6079340293058373E-32
   0.1000202431946869E+01
   0.5143495040389761E-32
   0.1006091577615686E+01
   0.3892032846633366E-33
   0.1015639761998056E+01
   0.4157343792254815E-32
   0.1012987271709633E+01
   0.4333823774377690E-32
   0.1012861697417663E+01
   0.9698617535506862E-33
   0.1005118612467288E+01
   0.5595776296523455E-33
   0.9863622640683671E+00
  -0.5004698860280891E-33
   0.1006593489931520E+01
   0.8183442533325681E-33
   0.9849764702312146E+00
   0.5653279223585883E-32
   0.1008140573348313E+01
   0.3977800909905827E-32
   0.1001902606874114E+01
  -0.2058043485149348E-33
   0.1000777962764646E+01
   0.1673400696340788E-33
   0.1001300678117648E+01
   0.3088276615055286E-33
   0.1001842923437892E+01
   0.8473190182778991E-34
   0.1002348926670445E+01
  -0.1481610327135538E-32
   0.1000286871387712E+01
  -0.2783171951623697E-32
   0.1000192914675894E+01
  -0.1725571143844017E-32
   0.9997755933120926E+00
  -0.2111966349419964E-32
   0.1001746394682107E+01
  -0.1023525128119660E-32
   0.1001907944788008E+01
  -0.1492993800419440E-32
   0.9986523977729111E+00
  -0.1817933805756926E-32
   0.9995364912100642E+00
  -0.1876250905304882E-32
   0.9999232355146849E+00
  -0.1714534417479774E-32
   0.1000198767987063E+01
  -0.2559571731177438E-32
   0.1000442941677132E+01
  -0.2194134335745002E-32
   0.1001058841351802E+01
  -0.5312622849514747E-33
   0.1001457792922562E+01
  -0.2051475352932411E-32
   0.1001331328856415E+01
  -0.2186749278118031E-32
   0.1001525818348996E+01
  -0.1226974366329658E-32
   0.1000861177977853E+01
  -0.2763641357402519E-32
   0.1001344306221306E+01
  -0.2638375942370178E-32
   0.1001108536260471E+01
  -0.2442283065142515E-32
   0.1000543854547250E+01
  -0.2518302191088926E-32
   0.1060180605604229E+01
   0.1169740103798567E-31
   0.1020434851446609E+01
   0.8928188050219662E-32
   0.1005937367251552E+01
   0.7271485047696641E-33
   0.1003463833916342E+01
   0.2295455478494140E-33
   0.1142067394351938E+01
   0.1140888908255974E-31
   0.1083370527282709E+01
   0.1859591936199704E-31
   0.1004378517860454E+01
   0.3923808594650422E-33
   0.1003909103423277E+01
   0.3769269786372834E-33
   0.1003789602179354E+01
  -0.1451410523553304E-33
   0.1006675430344192E+01
   0.3384237833429118E-32
   0.1012240635871936E+01
   0.7141959624883452E-32
   0.1193114846293327E+01
  -0.3842458930971512E-31
   0.1028000791361233E+01
   0.5187124097335228E-32
   0.1034785375862010E+01
   0.1549435806262022E-31
   0.1169417159577726E+01
   0.3150147416143281E-31
   0.1009874385357503E+01
   0.2797336928907606E-32
   0.1023546143335934E+01
   0.1041109189995366E-31
   0.1017121966024169E+01
   0.4404719730946398E-32
   0.1007875017663683E+01
   0.5139201340674012E-32
   0.1013904356827824E+01
   0.1706844760973714E-31
   0.1000120419972763E+01
  -0.1408723362715992E-32
   0.9442367766745179E+00
  -0.3559100433994327E-31
   0.1003512214009016E+01
  -0.4182326431234106E-33
   0.9988676266154476E+00
  -0.4904325449175655E-32
   0.1006433377412970E+01
   0.1903674950635810E-32
   0.1009136818442671E+01
  -0.1469557240704975E-32
   0.9979418413411586E+00
  -0.2566998995654239E-32
   0.9977846798161863E+00
  -0.1760372509674321E-32
   0.9961676217013914E+00
  -0.3077195131602705E-32
   0.9984778160662074E+00
  -0.2263109886216258E-32
   0.9810175331359637E+00
  -0.1170125575298326E-31
   0.9780877552761835E+00
  -0.6293878730398620E-32
   0.9479693804094951E+00
  -0.3581682892586957E-31
   0.9505424156674035E+00
  -0.3988264910919995E-31
   0.9877990056526726E+00
  -0.9720938135374601E-32
   0.9899199084747528E+00
  -0.3810122573242448E-32
   0.9925444357413962E+00
  -0.3909059359614606E-32
   0.9998150160080753E+00
  -0.1908410251469724E-32
   0.9986044256974669E+00
  -0.2999780471666746E-32
   0.9946495923490579E+00
  -0.1973937193468301E-32
   0.1006783294486215E+01
   0.1411107515986783E-32
   0.1021195773710090E+01
   0.1319396358828881E-31
   0.9979991516429439E+00
  -0.7855282695811352E-32
   0.1004785936910708E+01
  -0.6520775847883869E-33
   0.1001443253578706E+01
  -0.1032675189735846E-32
   0.1004870015573929E+01
   0.2203371023862666E-33
   0.9952898773713784E+00
  -0.2108506624394543E-32
   0.9853957099542276E+00
   0.1022427317685679E-31
   0.1000226007444835E+01
  -0.2129396290373579E-32
   0.9938930119371528E+00
  -0.2605816105838116E-32
   0.9819631293087577E+00
  -0.1652761478733579E-32
   0.9943515144921309E+00
  -0.2165788142729615E-32
   0.9968775152976277E+00
  -0.2861316045751983E-32
   0.9937161314907514E+00
  -0.1025756764155167E-32
   0.9987031086240478E+00
  -0.2300654559523068E-32
   0.1000033244278797E+01
  -0.2326261599244723E-32
   0.9996686280107272E+00
  -0.2457351656016919E-32
   0.9958480420587091E+00
  -0.6083663173716748E-33
   0.9933618045053419E+00
  -0.2421505844470044E-32
   0.1001379813514599E+01
  -0.1549540572994183E-32
   0.1018342565079071E+01
  -0.9611925387482353E-33
   0.1002761163883228E+01
  -0.4745910644141931E-32
   0.9806466643452288E+00
  -0.9435873078951503E-32
   0.1001874257979826E+01
  -0.1378597386162757E-32
   0.1008205818684716E+01
   0.1266877174383013E-32
   0.9702345995626994E+00
  -0.1171639865844480E-31
   0.9431323729230956E+00
   0.5982421857588719E-32
   0.9846786353184692E+00
  -0.1087364179722954E-31
   0.9843645601673686E+00
  -0.6787178037662950E-32
   0.9754696721940207E+00
  -0.3226047612331031E-31
   0.9908380426682352E+00
  -0.1396198670818944E-31
   0.9779133561213854E+00
  -0.3237024298716848E-31
   0.1033958406005664E+01
  -0.6944965982916126E-32
   0.1021656796291834E+01
   0.1296883773712459E-31
   0.1000033005346960E+01
  -0.1812216962612676E-32
   0.9991734290873897E+00
  -0.2853893068651388E-32
   0.9919055285384127E+00
   0.2328798064354524E-32
   0.9907248504710663E+00
  -0.3646652331466540E-32
   0.9574014550820390E+00
  -0.8288844714035321E-32
   0.9930506880942142E+00
   0.1301820628268998E-32
   0.1006289131536095E+01
   0.1383799318487357E-32
   0.1002044037553242E+01
  -0.2898692373344458E-33
   0.9896477897162388E+00
  -0.4697641465055545E-32
   0.9652799827154489E+00
  -0.6050958711996294E-32
   0.9203406997248627E+00
  -0.2556434490007869E-31
   0.9724368701982061E+00
  -0.1141397413973263E-31
   0.9781836989276919E+00
  -0.5097391146499283E-32
   0.9559726800661407E+00
  -0.5687178268500509E-32
   0.9617645757545328E+00
  -0.2370017706503107E-31
   0.9490309801048505E+00
  -0.2828139735403071E-32
   0.9366912375348810E+00
  -0.2237095872824027E-31
   0.9303104723267602E+00
  -0.2983688521829734E-31
   0.9992919130672518E+00
  -0.1524656218305370E-32
   0.9994619482034166E+00
  -0.2253216832222636E-32
   0.9988025047109104E+00
  -0.2103362566221357E-32
   0.1002017073946793E+01
  -0.4595015582897380E-33
   0.9391477998922140E+00
  -0.2465414324520253E-31
   0.9239055150469450E+00
  -0.6045660501854833E-31
   0.9359217488829692E+00
  -0.1829278823940559E-31
   0.9984137893782444E+00
  -0.2444003862298168E-32
   0.9983444540240145E+00
  -0.2323900392526239E-32
   0.1000450520513080E+01
  -0.1445676672437739E-32
   0.9793848501606153E+00
  -0.1011283962585498E-31
   0.9713545842930078E+00
  -0.7112131303803338E-32
   0.9447096592561818E+00
  -0.1688391995853256E-31
SCALARS u double 1
LOOKUP_TABLE default
   0.0000000000000000E+00
   0.0000000000000000E+00
   0.0000000000000000E+00
   0.0000000000000000E+00
   0.0000000000000000E+00
   0.0000000000000000E+00
   0.0000000000000000E+00
   0.0000000000000000E+00
   0.0000000000000000E+00
   0.0000000000000000E+00
   0.0000000000000000E+00
   0.0000000000000000E+00
   0.0000000000000000E+00
   0.0000000000000000E+00
   0.0000000000000000E+00
   0.0000000000000000E+00
   0.0000000000000000E+00
   0.0000000000000000E+00
   0.0000000000000000E+00
   0.0000000000000000E+00
   0.0000000000000000E+00
   0.0000000000000000E+00
   0.0000000000000000E+00
   0.0000000000000000E+00
   0.0000000000000000E+00
   0.0000000000000000E+00
   0.0000000000000000E+00
   0.0000000000000000E+00
   0.0000000000000000E+00
   0.0000000000000000E+00
   0.0000000000000000E+00
   0.0000000000000000E+00
   0.0000000000000000E+00
   0.0000000000000000E+00
   0.0000000000000000E+00
   0.0000000000000000E+00
   0.0000000000000000E+00
   0.0000000000000000E+00
   0.0000000000000000E+00
   0.0000000000000000E+00
   0.0000000000000000E+00
   0.0000000000000000E+00
   0.0000000000000000E+00
   0.0000000000000000E+00
   0.0000000000000000E+00
   0.0000000000000000E+00
   0.0000000000000000E+00
   0.0000000000000000E+00
   0.0000000000000000E+00
   0.0000000000000000E+00
   0.0000000000000000E+00
   0.0000000000000000E+00
   0.0000000000000000E+00
   0.0000000000000000E+00
   0.0000000000000000E+00
   0.0000000000000000E+00
   0.0000000000000000E+00
   0.0000000000000000E+00
   0.0000000000000000E+00
   0.0000000000000000E+00
   0.0000000000000000E+00
   0.0000000000000000E+00
   0.0000000000000000E+00
   0.0000000000000000E+00
   0.0000000000000000E+00
   0.0000000000000000E+00
   0.5044657153268934E+00
  -0.2399820266702788E-31
   0.5290125001249636E+00
  -0.6867451506909098E-32
   0.5144832571544193E+00
   0.1984601722352580E-34
   0.4932265007146792E+00
   0.8626232246003758E-33
   0.4881034954292782E+00
   0.5794301726302161E-32
   0.4912132665130821E+00
   0.8335231859251732E-32
   0.4932012104335576E+00
   0.6413923946672313E-32
   0.4982359621910192E+00
  -0.2868132702727513E-33
   0.4935755401449179E+00
   0.2340653781690395E-32
   0.4788817929298122E+00
  -0.6293285920720551E-32
   0.4518340488405871E+00
  -0.1447549915553734E-31
   0.4750761855210992E+00
   0.6754803905544267E-31
   0.5097784009971155E+00
  -0.4173493665327380E-33
   0.4511935386181558E+00
   0.8834227999383140E-31
   0.4980813340877284E+00
   0.2130545399958572E-32
   0.5232695275299899E+00
  -0.6433370822177674E-32
   0.4995198835911444E+00
  -0.2969828971502684E-33
   0.5239976612173909E+00
  -0.1031517268110762E-31
   0.5062462133612061E+00
   0.4343872438036706E-33
   0.5621720090422399E+00
  -0.1834014532151732E-32
   0.5246973183385072E+00
  -0.3531270782501235E-32
   0.5014415355689078E+00
   0.1648607319051632E-32
   0.5724415173380468E+00
   0.1729307966489313E-31
   0.5707004872019608E+00
  -0.1722135593028245E-33
   0.3697808153148927E+00
   0.9900898833829611E-31
   0.4030358778672170E+00
   0.6312364214554808E-31
   0.5559039170490816E+00
   0.3405790681165768E-31
   0.5550071828224562E+00
  -0.7917583094358233E-33
   0.4941866649119878E+00
   0.7228306417648853E-34
   0.4946225571721384E+00
  -0.6238585443436205E-33
   0.4922550880774205E+00
  -0.1841152264720950E-32
   0.4916952757086571E+00
  -0.9786432823067716E-33
   0.5126203612101605E+00
   0.1874927677915208E-32
   0.5320037748259357E+00
   0.3907828668596100E-32
   0.5051851732895052E+00
  -0.1095859839488481E-31
   0.4700274422241654E+00
  -0.3516568924729181E-31
   0.5096958286798218E+00
   0.1225398446363474E-32
   0.5089633499334703E+00
   0.1128474733409756E-33
   0.4955096745857230E+00
  -0.1618672467233023E-31
   0.5091189249436273E+00
  -0.3937827848743680E-31
   0.4859971782617890E+00
  -0.8336597009570358E-31
   0.5290197329654636E+00
  -0.2637264747087363E-31
   0.5276939305556942E+00
  -0.7318221844124069E-32
   0.5095384286339935E+00
  -0.1371374263939115E-32
   0.5265023575269266E+00
   0.2278391580895205E-32
   0.5255836715224431E+00
   0.4218737532986476E-32
   0.5249264246899418E+00
   0.3251773885505999E-33
   0.5039105676555691E+00
  -0.1326635037012763E-32
   0.5284460209982199E+00
  -0.1423130340087317E-31
   0.5353830987664626E+00
  -0.2419354671986494E-32
   0.5371546995990893E+00
  -0.2060571965517192E-31
   0.5324039368582952E+00
  -0.7831320156677410E-32
   0.4987533161461038E+00
  -0.9758305226157654E-33
   0.4995693380799562E+00
  -0.1057148329834810E-32
   0.4985678142319852E+00
  -0.2157787305988590E-33
   0.4978564019020738E+00
  -0.5884297914544662E-33
   0.4945363810553483E+00
   0.4912804558913626E-32
   0.4946354240656767E+00
   0.6725565380477531E-32
   0.4894932186616089E+00
   0.3881160720324894E-32
   0.4881854149293599E+00
   0.4061753023251718E-32
   0.4965709365752300E+00
   0.3341244408051620E-32
   0.4946579467470971E+00
   0.5214654946780655E-32
   0.4860622930852487E+00
   0.1567072786181671E-32
   0.4896816117887491E+00
   0.2934979608480054E-32
   0.4900401236950214E+00
   0.2933754742592552E-32
   0.4911767741913892E+00
   0.6265533827198834E-32
   0.4926166626955855E+00
   0.6828397989036759E-32
   0.4981835085210657E+00
   0.2554612809446422E-32
   0.4946289643977541E+00
   0.7026639578202881E-32
   0.4948394986229689E+00
   0.6539862807345351E-32
   0.4976378086146713E+00
   0.4018726418456776E-32
   0.4907933142526634E+00
   0.6956265686164417E-32
   0.4936012114806596E+00
   0.7223906768122581E-32
   0.4927628912637533E+00
   0.7904541771874427E-32
   0.4920514951908300E+00
   0.7189062011126337E-32
   0.4513309486382160E+00
  -0.1195032766753069E-31
   0.4773809617875259E+00
  -0.7990929718982976E-32
   0.4929577593227737E+00
  -0.7418799337972238E-33
   0.4922016431822718E+00
   0.3939015979089652E-32
   0.4645164622667465E+00
   0.1973112573241733E-31
   0.4729120395439811E+00
  -0.1900824745567155E-31
   0.4915211032815837E+00
   0.1020038903567303E-32
   0.4906741942899422E+00
   0.3157262808454207E-32
   0.4940153701932974E+00
   0.2181100665428455E-32
   0.4854929930745462E+00
   0.3888371035526231E-33
   0.4731445505145245E+00
  -0.7976432925690745E-32
   0.4017685352716382E+00
   0.1333210733476010E-31
   0.4925811127421936E+00
  -0.4403896774963820E-31
   0.4586089377544405E+00
  -0.1536202910825219E-31
   0.4595049325912895E+00
   0.5858780278637162E-32
   0.4895104444366659E+00
  -0.1612114723777451E-32
   0.4701583353009898E+00
  -0.1232581560815570E-31
   0.4742235035200417E+00
  -0.3036004481027344E-31
   0.4816343218385744E+00
  -0.3592022786757276E-32
   0.4809631439133611E+00
   0.6643907027692257E-31
   0.5081955852927063E+00
   0.5791693154680602E-33
   0.4436620420940512E+00
   0.3309808925452300E-31
   0.4960916958401153E+00
   0.1460785415230235E-32
   0.5314783349106650E+00
  -0.3715009620428334E-32
   0.4949806832961918E+00
  -0.1701260840047275E-32
   0.5219301823561224E+00
  -0.1256539281716888E-32
   0.5081293872675778E+00
   0.3276504371795098E-33
   0.5664001670778082E+00
   0.1309700843769441E-31
   0.5269142300078694E+00
   0.1660301970487569E-32
   0.5035387233633983E+00
   0.2170304490718994E-32
   0.5834535199025870E+00
   0.3540610912069501E-31
   0.5720240543058069E+00
   0.1675941667700919E-31
   0.3408859787972314E+00
   0.1056239539743560E-30
   0.3851958352801469E+00
  -0.1647388831024095E-31
   0.5717594931431131E+00
   0.5950089042512201E-31
   0.5645095790363940E+00
   0.1289590016741740E-31
   0.5689243688383533E+00
  -0.3185775640602318E-32
   0.5291696422570081E+00
  -0.7926736138467148E-32
   0.5449155772736226E+00
  -0.1260698354732852E-31
   0.5701879996570502E+00
   0.7396841343830589E-32
   0.5404097314619936E+00
  -0.2256170954453886E-31
   0.5487779046384295E+00
   0.2256841232245183E-31
   0.5790107886360146E+00
   0.3623559817974834E-31
   0.4955235725197891E+00
  -0.6419223246348463E-32
   0.5064965498887205E+00
  -0.1291749031335321E-32
   0.4994484985751391E+00
  -0.5085866633992760E-32
   0.5533092708747753E+00
   0.7510982808640673E-32
   0.4597902452479390E+00
  -0.1937567770112450E-31
   0.4983751332286450E+00
   0.3063501064398487E-32
   0.5489762939829066E+00
  -0.6232024096300339E-32
   0.5894376514252947E+00
   0.1954368481866836E-31
   0.5821700660578032E+00
   0.2856137075006299E-32
   0.5457059880237699E+00
  -0.2701619144244410E-32
   0.5785146403095572E+00
   0.1407569634715028E-32
   0.5122043911193750E+00
  -0.2202916507706261E-32
   0.5055088210335846E+00
  -0.1004805721971556E-32
   0.5048980709610807E+00
   0.2821280580070647E-33
   0.5645297506077122E+00
   0.2903605404109883E-32
   0.5552265536362231E+00
  -0.8090595214933417E-33
   0.4977583767271222E+00
   0.4727660114992692E-33
   0.5488209304667588E+00
  -0.1764487166993669E-31
   0.5486892305189595E+00