# vtk DataFile Version 2.0
FUN3D:global_image_vtk
ASCII
DATASET UNSTRUCTURED_GRID
POINTS 213 double
   -0.2863280043523366E-18    0.0000000000000000E+00    0.2500000000000000E+01
    0.0000000000000000E+00   -0.2863280043523366E-18    0.0000000000000000E+00
    0.1250000000000000E+01    0.0000000000000000E+00    0.2500000000000000E+01
    0.0000000000000000E+00   -0.2863280043523366E-18    0.0000000000000000E+00
    0.2500000000000000E+01    0.0000000000000000E+00    0.2500000000000000E+01
    0.0000000000000000E+00   -0.2863280043523366E-18    0.0000000000000000E+00
    0.3750000000000000E+01    0.0000000000000000E+00    0.2500000000000000E+01
    0.0000000000000000E+00   -0.2863280043523366E-18    0.0000000000000000E+00
    0.5000000000000000E+01    0.0000000000000000E+00    0.2500000000000000E+01
    0.0000000000000000E+00   -0.2863280043523366E-18    0.0000000000000000E+00
    0.5000000000000000E+01    0.0000000000000000E+00    0.1250000000000000E+01
    0.0000000000000000E+00   -0.2863280043523366E-18    0.0000000000000000E+00
    0.5000000000000000E+01    0.0000000000000000E+00   -0.2863280043523366E-18
    0.0000000000000000E+00   -0.2863280043523366E-18    0.0000000000000000E+00
    0.5000000000000000E+01    0.0000000000000000E+00   -0.1250000000000000E+01
    0.0000000000000000E+00   -0.2863280043523366E-18    0.0000000000000000E+00
    0.5000000000000000E+01    0.0000000000000000E+00   -0.2500000000000000E+01
    0.0000000000000000E+00   -0.2863280043523366E-18    0.0000000000000000E+00
    0.3750000000000000E+01    0.0000000000000000E+00   -0.2500000000000000E+01
    0.0000000000000000E+00   -0.2863280043523366E-18    0.0000000000000000E+00
    0.2500000000000000E+01    0.0000000000000000E+00   -0.2500000000000000E+01
    0.0000000000000000E+00   -0.2863280043523366E-18    0.0000000000000000E+00
    0.1250000000000000E+01    0.0000000000000000E+00   -0.2500000000000000E+01
    0.0000000000000000E+00   -0.2863280043523366E-18    0.0000000000000000E+00
   -0.2863280043523366E-18    0.0000000000000000E+00   -0.2500000000000000E+01
    0.0000000000000000E+00   -0.2863280043523366E-18    0.0000000000000000E+00
   -0.2863280043523366E-18    0.0000000000000000E+00   -0.1250000000000000E+01
    0.0000000000000000E+00   -0.2863280043523366E-18    0.0000000000000000E+00
   -0.2863280043523366E-18    0.0000000000000000E+00   -0.2863280043523366E-18
    0.0000000000000000E+00   -0.2863280043523366E-18    0.0000000000000000E+00
   -0.2863280043523366E-18    0.0000000000000000E+00    0.1250000000000000E+01
    0.0000000000000000E+00   -0.2863280043523366E-18    0.0000000000000000E+00
    0.9058375365086910E+00    0.0000000000000000E+00    0.1578994732800803E+01
    0.0000000000000000E+00   -0.2863280043523366E-18    0.0000000000000000E+00
    0.3982050490726493E+01    0.0000000000000000E+00   -0.1583989954232354E+01
    0.0000000000000000E+00   -0.2863280043523366E-18    0.0000000000000000E+00
    0.4033849428301197E+01    0.0000000000000000E+00    0.1453322699199022E+01
    0.0000000000000000E+00   -0.2863280043523366E-18    0.0000000000000000E+00
    0.1040505887381675E+01    0.0000000000000000E+00   -0.1479596339503735E+01
    0.0000000000000000E+00   -0.2863280043523366E-18    0.0000000000000000E+00
    0.1099454400140349E+01    0.0000000000000000E+00   -0.3227322616384110E+00
    0.0000000000000000E+00   -0.2863280043523366E-18    0.0000000000000000E+00
    0.7354504170366591E+00    0.0000000000000000E+00    0.6593508822075582E+00
    0.0000000000000000E+00   -0.2863280043523366E-18    0.0000000000000000E+00
    0.1622302608453282E+01    0.0000000000000000E+00    0.8256214013940779E+00
    0.0000000000000000E+00   -0.2863280043523366E-18    0.0000000000000000E+00
    0.2145871574390382E+01    0.0000000000000000E+00   -0.1650070333782557E+01
    0.0000000000000000E+00   -0.2863280043523366E-18    0.0000000000000000E+00
    0.4086422318222992E+01    0.0000000000000000E+00   -0.4612828702537229E+00
    0.0000000000000000E+00   -0.2863280043523366E-18    0.0000000000000000E+00
    0.2979540174134984E+01    0.0000000000000000E+00   -0.8579242121530853E+00
    0.0000000000000000E+00   -0.2863280043523366E-18    0.0000000000000000E+00
    0.3045064261640043E+01    0.0000000000000000E+00   -0.1836846154397680E+01
    0.0000000000000000E+00   -0.2863280043523366E-18    0.0000000000000000E+00
    0.3428197553792836E+01    0.0000000000000000E+00    0.3508002863614053E+00
    0.0000000000000000E+00   -0.2863280043523366E-18    0.0000000000000000E+00
    0.4309693860063405E+01    0.0000000000000000E+00    0.5185680230613409E+00
    0.0000000000000000E+00   -0.2863280043523366E-18    0.0000000000000000E+00
    0.1827272193562204E+01    0.0000000000000000E+00    0.1738996113203182E+01
    0.0000000000000000E+00   -0.2863280043523366E-18    0.0000000000000000E+00
    0.2808563282768077E+01    0.0000000000000000E+00    0.1325493893339706E+01
    0.0000000000000000E+00   -0.2863280043523366E-18    0.0000000000000000E+00
    0.1895995683864404E+01    0.0000000000000000E+00   -0.8731419609589618E+00
    0.0000000000000000E+00   -0.2863280043523366E-18    0.0000000000000000E+00
    0.2273179336307740E+01    0.0000000000000000E+00    0.4906150219227333E-01
    0.0000000000000000E+00   -0.2863280043523366E-18    0.0000000000000000E+00
    0.5000000000000000E+01    0.0000000000000000E+00    0.2500000000000000E+01
    0.0000000000000000E+00    0.1250000000000000E+01    0.0000000000000000E+00
    0.5000000000000000E+01    0.0000000000000000E+00    0.2500000000000000E+01
    0.0000000000000000E+00    0.2500000000000000E+01    0.0000000000000000E+00
    0.5000000000000000E+01    0.0000000000000000E+00    0.2500000000000000E+01
    0.0000000000000000E+00    0.3750000000000000E+01    0.0000000000000000E+00
    0.5000000000000000E+01    0.0000000000000000E+00    0.2500000000000000E+01
    0.0000000000000000E+00    0.5000000000000000E+01    0.0000000000000000E+00
    0.3750000000000000E+01    0.0000000000000000E+00    0.2500000000000000E+01
    0.0000000000000000E+00    0.5000000000000000E+01    0.0000000000000000E+00
    0.2500000000000000E+01    0.0000000000000000E+00    0.2500000000000000E+01
    0.0000000000000000E+00    0.5000000000000000E+01    0.0000000000000000E+00
    0.1250000000000000E+01    0.0000000000000000E+00    0.2500000000000000E+01
    0.0000000000000000E+00    0.5000000000000000E+01    0.0000000000000000E+00
   -0.2863280043523366E-18    0.0000000000000000E+00    0.2500000000000000E+01
    0.0000000000000000E+00    0.5000000000000000E+01    0.0000000000000000E+00
   -0.2863280043523366E-18    0.0000000000000000E+00    0.2500000000000000E+01
    0.0000000000000000E+00    0.3750000000000000E+01    0.0000000000000000E+00
   -0.2863280043523366E-18    0.0000000000000000E+00    0.2500000000000000E+01
    0.0000000000000000E+00    0.2500000000000000E+01    0.0000000000000000E+00
   -0.2863280043523366E-18    0.0000000000000000E+00    0.2500000000000000E+01
    0.0000000000000000E+00    0.1250000000000000E+01    0.0000000000000000E+00
    0.9631080833812172E+00    0.0000000000000000E+00    0.2500000000000000E+01
    0.0000000000000000E+00    0.9613285771248219E+00    0.0000000000000000E+00
    0.3981732467264904E+01    0.0000000000000000E+00    0.2500000000000000E+01
    0.0000000000000000E+00    0.4069753913607991E+01    0.0000000000000000E+00
    0.4035525118777670E+01    0.0000000000000000E+00    0.2500000000000000E+01
    0.0000000000000000E+00    0.1012015867579395E+01    0.0000000000000000E+00
    0.9641717640894248E+00    0.0000000000000000E+00    0.2500000000000000E+01
    0.0000000000000000E+00    0.3972455192261839E+01    0.0000000000000000E+00
    0.1547743040396780E+01    0.0000000000000000E+00    0.2500000000000000E+01
    0.0000000000000000E+00    0.2928177746738678E+01    0.0000000000000000E+00
    0.6985170616192014E+00    0.0000000000000000E+00    0.2500000000000000E+01
    0.0000000000000000E+00    0.3068281976055466E+01    0.0000000000000000E+00
    0.8931277594515110E+00    0.0000000000000000E+00    0.2500000000000000E+01
    0.0000000000000000E+00    0.2052465503257726E+01    0.0000000000000000E+00
    0.2183293750162785E+01    0.0000000000000000E+00    0.2500000000000000E+01
    0.0000000000000000E+00    0.3959073795658649E+01    0.0000000000000000E+00
    0.3855333506014705E+01    0.0000000000000000E+00    0.2500000000000000E+01
    0.0000000000000000E+00    0.2931218481500625E+01    0.0000000000000000E+00
    0.3152495579421047E+01    0.0000000000000000E+00    0.2500000000000000E+01
    0.0000000000000000E+00    0.3635850502723324E+01    0.0000000000000000E+00
    0.3103247580566054E+01    0.0000000000000000E+00    0.2500000000000000E+01
    0.0000000000000000E+00    0.4331682712472464E+01    0.0000000000000000E+00
    0.3266837581688852E+01    0.0000000000000000E+00    0.2500000000000000E+01
    0.0000000000000000E+00    0.1886092433583972E+01    0.0000000000000000E+00
    0.4231539241296245E+01    0.0000000000000000E+00    0.2500000000000000E+01
    0.0000000000000000E+00    0.1915865356532799E+01    0.0000000000000000E+00
    0.1909741006522088E+01    0.0000000000000000E+00    0.2500000000000000E+01
    0.0000000000000000E+00    0.7170024419130505E+00    0.0000000000000000E+00
    0.2880784107213163E+01    0.0000000000000000E+00    0.2500000000000000E+01
    0.0000000000000000E+00    0.9046598906449592E+00    0.0000000000000000E+00
    0.2014316024535771E+01    0.0000000000000000E+00    0.2500000000000000E+01
    0.0000000000000000E+00    0.1762464314805728E+01    0.0000000000000000E+00
    0.2670003247036656E+01    0.0000000000000000E+00    0.2500000000000000E+01
    0.0000000000000000E+00    0.2850479545835163E+01    0.0000000000000000E+00
    0.5000000000000000E+01    0.0000000000000000E+00    0.1250000000000000E+01
    0.0000000000000000E+00    0.5000000000000000E+01    0.0000000000000000E+00
    0.5000000000000000E+01    0.0000000000000000E+00   -0.2863280043523366E-18
[...]
POINT_DATA 213
SCALARS rho double 1
LOOKUP_TABLE default
   0.1344271449750181E+01
  -0.1928282735909460E-31
   0.9569758915553370E+00
  -0.2975550917690216E-32
   0.9462964200959080E+00
  -0.2740505838309737E-32
   0.9418612718928584E+00
  -0.3820724408755947E-32
   0.8437304900409551E+00
  -0.5453589999384450E-32
   0.7738004326021113E+00
  -0.5551253207944690E-32
   0.7629818923545163E+00
  -0.5640063534070794E-32
   0.7664577919363359E+00
  -0.5583744320892068E-32
   0.8307874046188979E+00
  -0.5444603857390901E-32
   0.9352972565159567E+00
  -0.3901335947837266E-32
   0.9342219822012728E+00
  -0.3069212169177936E-32
   0.9617195286396081E+00
  -0.3096015032288004E-32
   0.1449457451807605E+01
  -0.1164883923089873E-31
   0.1494090644662714E+01
  -0.1158715776680739E-31
   0.1644667277204172E+01
  -0.1495063609412160E-31
   0.1425832049575553E+01
  -0.1139475596017247E-31
   0.1009014435352246E+01
  -0.4175711699765995E-32
   0.9508810865006224E+00
  -0.3941506986729400E-32
   0.9436508501899401E+00
  -0.3978404955050393E-32
   0.9581561034484408E+00
  -0.2759093321960212E-32
   0.9415852462543759E+00
  -0.2397402946661830E-32
   0.1036377240648760E+01
  -0.4045715348794049E-32
   0.9256161101056298E+00
  -0.2282769029381848E-32
   0.9322349872514396E+00
  -0.2807208956403361E-32
   0.9537479579704219E+00
  -0.4006417275026988E-32
   0.9518769567196871E+00
  -0.3491712892530443E-32
   0.9348583129228439E+00
  -0.3481930778684364E-32
   0.9564028419902102E+00
  -0.3739259263464310E-32
   0.9376098403686672E+00
  -0.4071811500429567E-32
   0.9300661525860437E+00
  -0.2036829143232837E-32
   0.9445157493356162E+00
  -0.3138398875505376E-32
   0.8863506519304637E+00
  -0.2153642783786715E-32
   0.9423579969834126E+00
  -0.2963510207695077E-32
   0.9635003079921016E+00
  -0.1730808474362524E-32
   0.1008299039511912E+01
  -0.1425408576970888E-33
   0.1006735291839017E+01
   0.5375829771619233E-34
   0.1001964617623831E+01
  -0.1691037679316555E-33
   0.1003219581551884E+01
  -0.2755541314496172E-33
   0.1004132053992159E+01
  -0.3103921277403956E-33
   0.1005228602964920E+01
  -0.2754886932623244E-33
   0.1004260408276864E+01
  -0.2173246033553960E-33
   0.1008308190003036E+01
  -0.3337081246438955E-33
   0.1023893138001627E+01
  -0.7543519887359817E-33
   0.1063553956096204E+01
  -0.3298395993058329E-33
   0.1019182513304049E+01
  -0.2264986059408841E-32
   0.1001780766443437E+01
  -0.1587969251923001E-33
   0.9643309939204596E+00
  -0.2159056953461064E-32
   0.1005283709011388E+01
  -0.3199891039419839E-33
   0.1000721163302672E+01
  -0.2039911993961779E-33
   0.1008742083839902E+01
  -0.4310960412068418E-33
   0.1008078083670681E+01
  -0.1915857237253417E-33
   0.1002349807136925E+01
  -0.2883854544650382E-33
   0.9979986848188684E+00
  -0.6202313669216505E-34
   0.1000583560954853E+01
  -0.1500851463359958E-33
   0.1001620123677898E+01
  -0.2711392414931891E-33
   0.9826893073889390E+00
  -0.7000820043972898E-33
   0.9842439642575317E+00
  -0.7269247805206520E-33
   0.9833314037112090E+00
  -0.2330491981121164E-32
   0.9788207413061801E+00
  -0.2203379908870875E-32
   0.9902638161504500E+00
  -0.6302770736104059E-33
   0.9934561553250068E+00
  -0.1439043142064884E-33
   0.1002011751677770E+01
  -0.1565846239335193E-33
   0.1002134465686946E+01
  -0.1504768157444561E-33
   0.1002276326550650E+01
  -0.1465623568717336E-33
   0.1001794758391338E+01
  -0.1751476069957763E-33
   0.1009778638885414E+01
  -0.1191067411465981E-34
   0.1006429109017503E+01
  -0.3720887599585704E-35
   0.9558786961035038E+00
  -0.1098877547486096E-32
   0.9249398411695695E+00
  -0.2388763187760124E-32
   0.1007036755524023E+01
  -0.9884897655575072E-35
   0.1004504925174877E+01
  -0.7834545218219627E-35
   0.9143642077256212E+00
  -0.1658013716725398E-32
   0.9089667861105255E+00
  -0.1513740320220376E-32
   0.8751688903722684E+00
  -0.2639350098061905E-32
   0.9767271885714486E+00
  -0.7203953020724287E-33
   0.1000452621148907E+01
  -0.1075527549188149E-33
   0.1005831087460285E+01
   0.2623540729355484E-34
   0.1012882803225224E+01
   0.2235505941176983E-33
   0.1011618951276806E+01
   0.8360361479544903E-34
   0.1010438648581254E+01
   0.2406387218517330E-33
   0.1005468280913278E+01
  -0.1660506911544644E-34
   0.9907612680193831E+00
  -0.7345472291106741E-33
   0.1005140325681998E+01
   0.7815994777084019E-34
   0.9860567246293233E+00
  -0.1678517959253736E-33
   0.1005609737622695E+01
   0.1985097099051510E-33
   0.1004248005740174E+01
  -0.2229017367222994E-33
   0.1002888437724274E+01
  -0.2014680665987671E-33
   0.1003345420478464E+01
  -0.1914741987151871E-33
   0.1003992731903479E+01
  -0.1975114915931209E-33
   0.1005101716205729E+01
  -0.2631647325658398E-33
   0.1003211645199605E+01
  -0.2827008075743638E-33
   0.1002663160013483E+01
  -0.2403852819310583E-33
   0.1002586231472168E+01
  -0.2857397907051101E-33
   0.1004060870975029E+01
  -0.2192628246717048E-33
   0.1004320346069438E+01
  -0.2364985194052079E-33
   0.1001641920442108E+01
  -0.2822291040435930E-33
   0.1002273116038102E+01
  -0.2716077288459557E-33
   0.1002543475641194E+01
  -0.2618081177966735E-33
   0.1003469520871976E+01
  -0.3218506931384160E-33
   0.1003372640318012E+01
  -0.2771357402566359E-33
   0.1003232230073990E+01
  -0.2057991094459290E-33
   0.1004423863500628E+01
  -0.2792839403591005E-33
   0.1004313070891116E+01
  -0.2847440422633485E-33
   0.1003659849431757E+01
  -0.2017039407680929E-33
   0.1003723103982407E+01
  -0.2861914369251754E-33
   0.1004329726476608E+01
  -0.2949015057826671E-33
   0.1004465021926473E+01
  -0.3296461238895294E-33
   0.1003623375387112E+01
  -0.2971116183751004E-33
   0.1064422801050699E+01
  -0.3272023506175976E-33
   0.1028473621467183E+01
  -0.6739236267240863E-33
   0.1009586657364687E+01
  -0.3297565893308542E-33
   0.1006638837513463E+01
  -0.3140391355956591E-33
   0.1163935522449671E+01
  -0.1936456006648483E-32
   0.1086087969851713E+01
  -0.2072531770841282E-33
   0.1007893419313062E+01
  -0.3218977819841872E-33
   0.1007245533350528E+01
  -0.3110852289063896E-33
   0.1006798074183509E+01
  -0.2877635495187799E-33
   0.1013018287009748E+01
  -0.6515860373102215E-33
   0.1019384609577788E+01
  -0.6003454474981205E-33
   0.1235203670049664E+01
  -0.3625430486127254E-32
   0.1032529466771668E+01
  -0.3550658801086157E-33
   0.1046681191677585E+01
  -0.9425350080503922E-33
   0.1200953642609214E+01
  -0.2853997178143648E-32
   0.1014718916076709E+01
  -0.4712885878549332E-33
   0.1032291153305960E+01
  -0.8168047080777229E-33
   0.1028095236789669E+01
  -0.1073191091208199E-32
   0.1014628639880927E+01
  -0.5972451630819791E-33
   0.1029216893275057E+01
  -0.1371238074467823E-32
   0.1001994816403714E+01
  -0.1816128812761129E-33
   0.9606929197106815E+00
  -0.1520939008515286E-32
   0.1006852582841261E+01
  -0.3083656817367197E-33
   0.1001327193356230E+01
  -0.2359836056062677E-33
   0.1010821905420693E+01
  -0.3917818998544391E-33
   0.1012246098910489E+01
  -0.2928428652412342E-33
   0.1000946006966710E+01
  -0.2787340229975222E-33
   0.9979121234054468E+00
  -0.6394604475434336E-34
   0.9980632373041453E+00
  -0.1907327995008041E-33
   0.1001184143414436E+01
  -0.2494024869450313E-33
   0.9841362011963063E+00
  -0.3900706300434146E-33
   0.9814879615545146E+00
  -0.3992230940512684E-33
   0.9648483322370166E+00
  -0.1572614644735015E-32
   0.9680877129642964E+00
  -0.1608146791731632E-32
   0.9914124472212120E+00
  -0.4074918154296571E-33
   0.9910858388733198E+00
  -0.1515307702867172E-33
   0.9925545095931519E+00
  -0.7981760972316988E-35
   0.1001727533894392E+01
  -0.1968592805712811E-33
   0.9993409402183999E+00
  -0.2592897554763969E-34
   0.9941410835133584E+00
   0.3033318907647386E-34
   0.1007038753603808E+01
   0.7702996172668705E-34
   0.1022539494137114E+01
  -0.1780145575362160E-33
   0.1001088098525222E+01
  -0.3870788030124240E-33
   0.1008798496301346E+01
  -0.3739035069478224E-33
   0.1004773846126412E+01
  -0.3298453251986436E-33
   0.1009050237488259E+01
  -0.3968128221573058E-33
   0.9966470332397740E+00
  -0.2323679917552432E-33
   0.1004988557993260E+01
  -0.2497208246976515E-32
   0.1003325535215987E+01
  -0.2893228711143969E-33
   0.9949431085504642E+00
  -0.1048095536055133E-33
   0.9832680782005425E+00
  -0.2009554897509393E-33
   0.9943957454994271E+00
  -0.7612395399951225E-34
   0.9973420656290573E+00
  -0.4446165199908553E-34
   0.9932190085629441E+00
  -0.1585784758157760E-34
   0.1001306487169719E+01
  -0.2535184481250039E-33
   0.1003001636984000E+01
  -0.2796935025554159E-33
   0.1002183579663465E+01
  -0.2374891700381453E-33
   0.9947078544999142E+00
   0.7800076189872020E-34
   0.9937965521463239E+00
  -0.6994498683534033E-34
   0.1004867865562279E+01
  -0.3387397219473464E-33
   0.1020077607445936E+01
  -0.1930557993570996E-33
   0.1005364552430869E+01
  -0.2737391483988544E-33
   0.9816998152693482E+00
  -0.2023224404309417E-33
   0.1004973031274848E+01
  -0.2917573435311276E-33
   0.1012382323448547E+01
  -0.3713001656846783E-33
   0.9871424296255172E+00
  -0.1628244671844943E-32
   0.9551513534743893E+00
  -0.1127661435552146E-32
   0.9865075700346474E+00
  -0.2211838681336957E-33
   0.9864532950075660E+00
  -0.3388204086687817E-33
   0.9918946944284648E+00
  -0.1874188326458035E-32
   0.9933508198372865E+00
  -0.3729096804165382E-33
   0.9954406189970405E+00
  -0.1565351401067455E-32
   0.1037336789728439E+01
  -0.3394263789284335E-33
   0.1033536797990595E+01
  -0.1115525525761902E-32
   0.1001443320814549E+01
  -0.1341561527247453E-33
   0.1001930499797303E+01
  -0.2563381224127655E-33
   0.9912478515978020E+00
   0.1359207561283075E-35
   0.9910920509410769E+00
  -0.1051296855640484E-33
   0.9648489990836021E+00
  -0.7596127106070825E-33
   0.9933282604854830E+00
  -0.9676128679708193E-34
   0.1006058638637306E+01
  -0.1063917834562540E-34
   0.1001954027110565E+01
  -0.1681990253099959E-34
   0.9908735804765058E+00
  -0.1567822021938821E-33
   0.9740945214065739E+00
  -0.1142813368385035E-32
   0.9418802141957385E+00
  -0.2214245131823492E-32
   0.9819379692036662E+00
  -0.1186808621383394E-32
   0.9794803560690504E+00
  -0.1870959190995926E-33
   0.9704172061921295E+00
  -0.1362415611048551E-32
   0.9720478947062690E+00
  -0.1009894400113396E-32
   0.9557351702889217E+00
  -0.6648865414053393E-33
   0.9496731213610722E+00
  -0.1216948336086647E-32
   0.9528673572394050E+00
  -0.2014478110629626E-32
   0.1002659534063451E+01
  -0.3054613874881939E-33
   0.1002471631970974E+01
  -0.2888356849080451E-33
   0.1000509329298001E+01
  -0.1724215842330764E-33
   0.1001677321730963E+01
   0.3304834706143372E-34
   0.9607931434938087E+00
  -0.2070312769843406E-32
   0.9491625507087987E+00
  -0.2269353374676763E-32
   0.9584503069195310E+00
  -0.2025914245345748E-32
   0.1001121207785023E+01
  -0.2587312279340763E-33
   0.1000496140593597E+01
  -0.2081982749623391E-33
   0.1001156644177885E+01
  -0.6030277211248509E-34
   0.9807376183689176E+00
  -0.2102131749126999E-33
   0.9806000808946869E+00
  -0.9424154739717970E-33
   0.9628476109176152E+00
  -0.1659509099177523E-32
SCALARS u double 1
LOOKUP_TABLE default
   0.0000000000000000E+00
   0.0000000000000000E+00
   0.0000000000000000E+00
   0.0000000000000000E+00
   0.0000000000000000E+00
   0.0000000000000000E+00
   0.0000000000000000E+00
   0.0000000000000000E+00
   0.0000000000000000E+00
   0.0000000000000000E+00
   0.0000000000000000E+00
   0.0000000000000000E+00
   0.0000000000000000E+00
   0.0000000000000000E+00
   0.0000000000000000E+00
   0.0000000000000000E+00
   0.0000000000000000E+00
   0.0000000000000000E+00
   0.0000000000000000E+00
   0.0000000000000000E+00
   0.0000000000000000E+00
   0.0000000000000000E+00
   0.0000000000000000E+00
   0.0000000000000000E+00
   0.0000000000000000E+00
   0.0000000000000000E+00
   0.0000000000000000E+00
   0.0000000000000000E+00
   0.0000000000000000E+00
   0.0000000000000000E+00
   0.0000000000000000E+00
   0.0000000000000000E+00
   0.0000000000000000E+00
   0.0000000000000000E+00
   0.0000000000000000E+00
   0.0000000000000000E+00
   0.0000000000000000E+00
   0.0000000000000000E+00
   0.0000000000000000E+00
   0.0000000000000000E+00
   0.0000000000000000E+00
   0.0000000000000000E+00
   0.0000000000000000E+00
   0.0000000000000000E+00
   0.0000000000000000E+00
   0.0000000000000000E+00
   0.0000000000000000E+00
   0.0000000000000000E+00
   0.0000000000000000E+00
   0.0000000000000000E+00
   0.0000000000000000E+00
   0.0000000000000000E+00
   0.0000000000000000E+00
   0.0000000000000000E+00
   0.0000000000000000E+00
   0.0000000000000000E+00
   0.0000000000000000E+00
   0.0000000000000000E+00
   0.0000000000000000E+00
   0.0000000000000000E+00
   0.0000000000000000E+00
   0.0000000000000000E+00
   0.0000000000000000E+00
   0.0000000000000000E+00
   0.0000000000000000E+00
   0.0000000000000000E+00
   0.4950176835703083E+00
   0.1398291129109575E-32
   0.5338221300605304E+00
  -0.3133340734567384E-33
   0.5183269247791520E+00
  -0.3980685743027911E-33
   0.4930649880192743E+00
  -0.2504158505413490E-35
   0.4847578719332891E+00
   0.3238616532125360E-33
   0.4867666423653538E+00
   0.4273543362950295E-33
   0.4890763583300931E+00
   0.3949455283921029E-33
   0.4957848880329541E+00
   0.2355915737800444E-33
   0.4898301883790105E+00
   0.3623442731076941E-33
   0.4717388493441524E+00
   0.7149338723695956E-33
   0.4454814153587358E+00
   0.5933969840729237E-33
   0.4833907048923138E+00
  -0.1087405655529361E-32
   0.5098397462670726E+00
   0.6703387765849701E-35
   0.4390712699546576E+00
   0.1211985981383526E-32
   0.4949403964695982E+00
   0.3119793567670475E-33
   0.5225330362485411E+00
   0.1072917323180614E-33
   0.4962454545658533E+00
   0.3296973562643266E-33
   0.5226154963597841E+00
   0.1705268348488215E-33
   0.5038881743029444E+00
   0.2410072784464041E-33
   0.5646883609040216E+00
  -0.1996743176396638E-33
   0.5247509156866956E+00
   0.2238872863657151E-34
   0.4991466119501445E+00
   0.2343403369534911E-33
   0.5730561900933000E+00
  -0.4294649616234411E-35
   0.5696051096253451E+00
   0.2731007317740737E-33
   0.3737941449627639E+00
  -0.6392940298077867E-33
   0.3998658123888649E+00
   0.3242735324645994E-33
   0.5599326587320067E+00
  -0.3988244063765529E-33
   0.5564587630637217E+00
  -0.1069703572007747E-33
   0.4942627332975089E+00
  -0.2356396496447029E-34
   0.4948659466161586E+00
  -0.3603621076071463E-34
   0.4925735874286689E+00
  -0.4563376363184413E-34
   0.4914269544072235E+00
   0.4670342668657937E-35
   0.5162356851547870E+00
  -0.3098290147083597E-33
   0.5361798305996606E+00
  -0.3044484771519913E-33
   0.4947413356161639E+00
   0.9765678892841537E-33
   0.4524112203086104E+00
   0.1967067668202107E-32
   0.5128777326251587E+00
  -0.2782481719385203E-33
   0.5117942041098887E+00
  -0.2884425353238073E-33
   0.4783517503920877E+00
   0.1521968011935610E-32
   0.4931696655283804E+00
   0.1434989486123959E-32
   0.4603173591430898E+00
   0.2384122268274109E-32
   0.5244892719891520E+00
   0.5994909478234730E-33
   0.5297434248113095E+00
  -0.1149540120176784E-33
   0.5129579301457443E+00
  -0.3131249241138535E-33
   0.5328358320396516E+00
  -0.5322465590477572E-33
   0.5308941037924571E+00
  -0.4303193922863864E-33
   0.5309856171151761E+00
  -0.5572189683267076E-33
   0.5063656735877597E+00
  -0.2452666316486564E-33
   0.5282461954745463E+00
   0.3302591026706878E-33
   0.5410312730949733E+00
  -0.4711606839233630E-33
   0.5361261481086621E+00
   0.1359579627452996E-33
   0.5374105276950342E+00
  -0.4146468333644285E-33
   0.4965364818581581E+00
   0.2131725184530185E-33
   0.4975340903873434E+00
   0.1946055817100891E-33
   0.4963842644371578E+00
   0.2043638285973481E-33
   0.4955220267405978E+00
   0.2163797491690088E-33
   0.4904581830732188E+00
   0.3841347037747751E-33
   0.4903044384775860E+00
   0.4054434976326965E-33
   0.4862182763992244E+00
   0.2955681776780502E-33
   0.4854049561028898E+00
   0.2718485769591126E-33
   0.4932164387750165E+00
   0.3172842990406424E-33
   0.4909833312071523E+00
   0.3523625061849381E-33
   0.4832194696293100E+00
   0.2592965626207134E-33
   0.4872622776955288E+00
   0.2278152081906212E-33
   0.4880124909440675E+00
   0.1929082678424746E-33
   0.4872445931144332E+00
   0.3801660777283977E-33
   0.4882696668991776E+00
   0.3995991121838083E-33
   0.4952597556330111E+00
   0.2763191713137015E-33
   0.4900967167386309E+00
   0.4240639428779169E-33
   0.4904000090231432E+00
   0.4174386009045744E-33
   0.4944232925330946E+00
   0.3050202046270943E-33
   0.4868002480564704E+00
   0.3866458412541341E-33
   0.4892385983522659E+00
   0.4201435486077002E-33
   0.4881393369234507E+00
   0.4393905828529605E-33
   0.4878457828408804E+00
   0.3952703023193103E-33
   0.4446866579307637E+00
   0.4692303808648771E-33
   0.4700028779616826E+00
   0.6215979232947373E-33
   0.4891999056212488E+00
   0.3384717588929245E-33
   0.4885247843444325E+00
   0.3487380073830812E-33
   0.4506533042673974E+00
   0.1241485450412238E-32
   0.4687378565324216E+00
   0.4909708154937792E-33
   0.4877010456514728E+00
   0.3448021079962798E-33
   0.4868353683079782E+00
   0.3456940553080500E-33
   0.4908994715834273E+00
   0.2901703506698368E-33
   0.4793551576296788E+00
   0.5998995182397452E-33
   0.4658071746401746E+00
   0.6083670234303387E-33
   0.3792725225418833E+00
   0.1960466923328650E-32
   0.4901596530027765E+00
   0.2133136350866407E-33
   0.4486686689566489E+00
   0.7645120574879310E-33
   0.4436137388969933E+00
   0.1479951375838861E-32
   0.4845147240875907E+00
   0.4829895083935089E-33
   0.4621822644880401E+00
   0.7428565775672744E-33
   0.4665749534002644E+00
   0.7625598063131665E-33
   0.4748140298854407E+00
   0.5911559720992690E-33
   0.4894494216306594E+00
  -0.5099138504253361E-33
   0.5085556973424394E+00
  -0.4115088842774575E-35
   0.4315073868792254E+00
   0.1202765253533804E-32
   0.4927349360791423E+00
   0.3118919448928303E-33
   0.5318289234069750E+00
   0.1022453131198373E-34
   0.4913399195702622E+00
   0.3278218848647522E-33
   0.5207019993127412E+00
   0.1268919842696801E-33
   0.5060964599218046E+00
   0.2037701855655135E-33
   0.5688797395553089E+00
  -0.1510038084573489E-33
   0.5273992817885285E+00
  -0.1888330567222743E-35
   0.5015044841159931E+00
   0.2014109831963321E-33
   0.5821790085903791E+00
   0.2321339510021855E-33
   0.5689618251249909E+00
   0.3572805674024578E-33
   0.3406394441885662E+00
   0.1652754509155996E-33
   0.3789869409813028E+00
   0.6268658096696650E-33
   0.5751958207059770E+00
  -0.1594401125776495E-33
   0.5666485493442003E+00
  -0.1118799525329992E-33
   0.5704108783109857E+00
  -0.4886518247394692E-34
   0.5291056376122075E+00
   0.6199345648927564E-34
   0.5451902710932139E+00
   0.5563506574904777E-34
   0.5718804315148607E+00
  -0.3825929878520491E-34
   0.5389079125598442E+00
   0.2541855679015488E-33
   0.5475507504578906E+00
   0.1978886606106233E-33
   0.5821713868960832E+00
  -0.1946510143840014E-33
   0.4925601784132158E+00
   0.2852598681433250E-33
   0.5042157546030014E+00
   0.2404924104849928E-33
   0.4961735435792985E+00
   0.3344960765931116E-33
   0.5565207963003329E+00
  -0.2897562923793687E-33
   0.4758845213308646E+00
  -0.1583412276501087E-32
   0.4950268383155298E+00
   0.3164965988910657E-33
   0.5498525443359793E+00
  -0.2703550143466764E-34
   0.5891202296000827E+00
   0.1074992148241596E-33
   0.5841957609214524E+00
  -0.1448243879389175E-33
   0.5469097664634032E+00
  -0.5368696434653570E-34
   0.5805417617848158E+00
  -0.1151239074814229E-33
   0.5106251438259092E+00
   0.1791434987630686E-33
   0.5030200512792109E+00
   0.2601171673117414E-33
   0.5033624679818620E+00
   0.1692212924474006E-33
   0.5676446096787123E+00
  -0.2163222331783041E-33
   0.5563943082830272E+00
  -0.2582802146032603E-34
   0.4947255973013122E+00
   0.2990865900844091E-33
   0.5505243828696511E+00
  -0.5128562192765040E-34
   0.5510857281550439E+00