# vtk DataFile Version 2.0
FUN3D:global_image_vtk
ASCII
DATASET UNSTRUCTURED_GRID
POINTS 213 double
   -0.5474685441687832E-02    0.6817623398321091E-06    0.2504941971167291E+01
    0.7326481440571633E-07    0.8038138598670530E-04    0.9085431469239731E-06
    0.1245419105183472E+01    0.6782202011552129E-06    0.2504941971167291E+01
    0.7326481440571633E-07    0.1039425058013133E-03    0.1509296739880989E-06
    0.2497696093128780E+01    0.6809111473773064E-06    0.2504941971167291E+01
    0.7326481440571633E-07    0.1101298164665754E-03    0.5314988311142763E-06
    0.3750590968915824E+01    0.9717844935938223E-06    0.2504941971167291E+01
    0.7326481440571633E-07    0.1356499004943612E-03    0.3182539569178560E-06
    0.5003221331742151E+01    0.4721910438108557E-06    0.2504941971167291E+01
    0.7326481440571633E-07    0.9668873038898296E-04    0.3210455693866717E-06
    0.5004676687979097E+01    0.8606551306789965E-06    0.1281291202167040E+01
    0.7805987964539532E-07    0.1638053019384356E-03    0.7823071961183421E-06
    0.5004772673778115E+01    0.3208768137238103E-06    0.2775079906482894E-01
    0.8667529083054200E-06    0.1903478008447590E-03    0.7488291091432377E-06
    0.5003581183341212E+01    0.6885921824186706E-06   -0.1225853508883529E+01
    0.3755580139946055E-06    0.1607765204486578E-03    0.6764411418454476E-06
    0.5001952533742191E+01    0.5360029776200710E-06   -0.2496589036641631E+01
    0.6646405580490197E-07    0.1082258890302557E-03    0.7991742438290312E-06
    0.3750348111606544E+01    0.3676133003437379E-06   -0.2496589036641631E+01
    0.6646405580490197E-07    0.1458753696815807E-03    0.4913997994779140E-06
    0.2498611462994928E+01    0.2273254277924984E-06   -0.2496589036641631E+01
    0.6646405580490197E-07    0.1008933264248224E-03    0.6596664808282572E-06
    0.1247175269333276E+01    0.7922337659596008E-06   -0.2496589036641631E+01
    0.6646405580490197E-07    0.1108587619169654E-03    0.3969846009616636E-06
   -0.3383959865719266E-02    0.1648797236017724E-06   -0.2496589036641631E+01
    0.6646405580490197E-07    0.8107259626494168E-04    0.3141975356818995E-06
   -0.4257768979765597E-02    0.6336215295106198E-07   -0.1225734811642590E+01
    0.2858312992200078E-06    0.3415458742295190E-04    0.6146189610653926E-06
   -0.5251592448509257E-02    0.7315306272051237E-06    0.2619486024420453E-01
    0.3308812414573983E-07    0.1038724387187884E-03    0.2670484160337618E-06
   -0.5676060312426845E-02    0.8427421654658618E-06    0.1278221569065707E+01
    0.5132581869018881E-06    0.8224601702150336E-04    0.3892798219996154E-06
    0.9003209617952581E+00    0.1141016342229007E-06    0.1608979112280158E+01
    0.1272096263022131E-06    0.8704140727672227E-04    0.6841862912816071E-06
    0.3983172210692289E+01    0.9868141221633389E-06   -0.1561211904840279E+01
    0.9186635500004435E-06    0.1757116720370600E-03    0.7531037165301647E-06
    0.4035602039224469E+01    0.6259981158751361E-06    0.1486760030415520E+01
    0.6185185039725821E-06    0.1713312862106631E-03    0.9289329516564364E-06
    0.1036613723302902E+01    0.5175646392831112E-06   -0.1455626429916848E+01
    0.8741121698667745E-06    0.1047189301532914E-03    0.4622013525476064E-06
    0.1094353480630802E+01    0.7735812288228434E-06   -0.2964622010671852E+00
    0.3597833438642582E-06    0.1260590236917269E-03    0.1775180174849291E-07
    0.7298400267480001E+00    0.8451673241082193E-06    0.6874684746719147E+00
    0.4824205927172450E-06    0.1044598640544958E-03    0.3231318729455918E-06
    0.1617018659308944E+01    0.7093149749257912E-06    0.8553208024939399E+00
    0.1449528550118834E-06    0.1529810904974394E-03    0.7757592063201351E-06
    0.2143199662875790E+01    0.7837341960424442E-06   -0.1627128509216730E+01
    0.3210720202787007E-06    0.1606170425226816E-03    0.4333363478376312E-06
    0.4088840445400889E+01    0.5008232513670521E-06   -0.4351047825936264E+00
    0.2789974677128342E-06    0.2719933294109134E-03    0.5566912208664495E-06
    0.2977916511248925E+01    0.9006798913509149E-06   -0.8334991483094500E+00
    0.3178444504719995E-06    0.2245596931861327E-03    0.3344033601297884E-06
    0.3044093241383418E+01    0.9871434594648108E-06   -0.1814361225108581E+01
    0.1230959720408202E-06    0.1617000112420497E-03    0.5601497395668890E-06
    0.3427866614805211E+01    0.8187156177129415E-06    0.3813904839972497E+00
    0.3911371068885757E-06    0.2936955483429093E-03    0.2134111151275191E-07
    0.4313225355351749E+01    0.6966437226288359E-07    0.5489133376342525E+00
    0.7111595635708415E-06    0.2313009573592373E-03    0.2507818769636392E-06
    0.1823032737597358E+01    0.3748903251430573E-06    0.1771265193544254E+01
    0.1148290145227432E-06    0.1836202887151583E-03    0.6572796906047965E-06
    0.2806311152168375E+01    0.1391711939656532E-06    0.1358629373600680E+01
    0.1220925557879308E-06    0.1943492163983818E-03    0.1840976710430362E-06
    0.1891860875936711E+01    0.4448020749172814E-06   -0.8481310365607546E+00
    0.7885227326215651E-06    0.1670645501816170E-03    0.7538814462048612E-06
    0.2268769200166909E+01    0.8470426334243709E-06    0.7723691819196567E-01
    0.3801520241642643E-06    0.2072307783085314E-03    0.5737433540547840E-06
    0.5000000000000000E+01   -0.1616642007801056E-22    0.2504941971167291E+01
    0.7326481440571633E-07    0.1250000000000000E+01   -0.1616642007801056E-22
    0.5000000000000000E+01   -0.1616642007801056E-22    0.2504941971167291E+01
    0.7326481440571633E-07    0.2500000000000000E+01   -0.1616642007801056E-22
    0.5000000000000000E+01   -0.1616642007801056E-22    0.2504941971167291E+01
    0.7326481440571633E-07    0.3750000000000000E+01   -0.1616642007801056E-22
    0.5000000000000000E+01   -0.1616642007801056E-22    0.2504941971167291E+01
    0.7326481440571633E-07    0.5000000000000000E+01   -0.1616642007801056E-22
    0.3750000000000000E+01   -0.1616642007801056E-22    0.2504941971167291E+01
    0.7326481440571633E-07    0.5000000000000000E+01   -0.1616642007801056E-22
    0.2500000000000000E+01   -0.1616642007801056E-22    0.2504941971167291E+01
    0.7326481440571633E-07    0.5000000000000000E+01   -0.1616642007801056E-22
    0.1250000000000000E+01   -0.1616642007801056E-22    0.2504941971167291E+01
    0.7326481440571633E-07    0.5000000000000000E+01   -0.1616642007801056E-22
   -0.2035721384984460E-18   -0.1616642007801056E-22    0.2504941971167291E+01
    0.7326481440571633E-07    0.5000000000000000E+01   -0.1616642007801056E-22
   -0.2035721384984460E-18   -0.1616642007801056E-22    0.2504941971167291E+01
    0.7326481440571633E-07    0.3750000000000000E+01   -0.1616642007801056E-22
   -0.2035721384984460E-18   -0.1616642007801056E-22    0.2504941971167291E+01
    0.7326481440571633E-07    0.2500000000000000E+01   -0.1616642007801056E-22
   -0.2035721384984460E-18   -0.1616642007801056E-22    0.2504941971167291E+01
    0.7326481440571633E-07    0.1250000000000000E+01   -0.1616642007801056E-22
    0.9588956434871094E+00    0.3876229314412421E-06    0.2504941971167291E+01
    0.7326481440571633E-07    0.9696525519543874E+00    0.5274271687059226E-06
    0.3981953078951401E+01    0.4938421189949300E-07    0.2504941971167291E+01
    0.7326481440571633E-07    0.4070563854751271E+01    0.9312261341371240E-07
    0.4036122187252336E+01    0.4154680829114659E-06    0.2504941971167291E+01
    0.7326481440571633E-07    0.1017567520094671E+01    0.4357691201986248E-06
    0.9637572773153886E+00    0.2426639609164033E-08    0.2504941971167291E+01
    0.7326481440571633E-07    0.3973598203142229E+01    0.7693051873201494E-07
    0.1546540136992396E+01    0.8080674647110776E-07    0.2504941971167291E+01
    0.7326481440571633E-07    0.2931570169315601E+01    0.2394307985014849E-06
    0.6973799521244312E+00    0.1894295692719809E-07    0.2504941971167291E+01
    0.7326481440571633E-07    0.3070319952453756E+01    0.1288413940938284E-06
    0.8903742148356887E+00    0.9309074779348972E-07    0.2504941971167291E+01
    0.7326481440571633E-07    0.2056562238187738E+01    0.2741489275620672E-06
    0.2183041995146011E+01    0.3575376146607229E-07    0.2504941971167291E+01
    0.7326481440571633E-07    0.3960694449828019E+01    0.1332329152177819E-06
    0.3855844872709870E+01    0.1196303603247404E-06    0.2504941971167291E+01
    0.7326481440571633E-07    0.2933250588118631E+01    0.2199116462880241E-06
    0.3152611367438028E+01    0.8093538319223397E-07    0.2504941971167291E+01
    0.7326481440571633E-07    0.3637668388416194E+01    0.1757999085529009E-06
    0.3103307385241869E+01    0.3783090206309187E-07    0.2504941971167291E+01
    0.7326481440571633E-07    0.4332607813099731E+01    0.9096731239791905E-07
    0.3266711045517940E+01    0.2610591905955142E-06    0.2504941971167291E+01
    0.7326481440571633E-07    0.1889656617463739E+01    0.3209825366920344E-06
    0.4232537554484796E+01    0.1842317860707667E-06    0.2504941971167291E+01
    0.7326481440571633E-07    0.1918626969802351E+01    0.2654612464143587E-06
    0.1905522374036519E+01    0.4191848405544685E-06    0.2504941971167291E+01
    0.7326481440571633E-07    0.7226290832134608E+00    0.4700684223142365E-06
    0.2879767723645805E+01    0.4783154907872533E-06    0.2504941971167291E+01
    0.7326481440571633E-07    0.9080945892181979E+00    0.2790600869615910E-06
    0.2012711365064515E+01    0.2784828297164006E-06    0.2504941971167291E+01
    0.7326481440571633E-07    0.1767082390977754E+01    0.3805905088994968E-06
    0.2669681472994637E+01    0.1467530038340182E-06    0.2504941971167291E+01
    0.7326481440571633E-07    0.2853394335010791E+01    0.2722699055257343E-06
    0.5000000000000000E+01   -0.1616642007801056E-22    0.1250000000000000E+01
   -0.1616642007801056E-22    0.5000000000000000E+01   -0.1616642007801056E-22
    0.5000000000000000E+01   -0.1616642007801056E-22   -0.2035721384984460E-18
[...]
POINT_DATA 213
SCALARS rho double 1
LOOKUP_TABLE default
   0.1346108316266444E+01
  -0.3562440797423070E-06
   0.9572039998652510E+00
  -0.1310509498070783E-06
   0.9461172176873119E+00
  -0.3382079445706988E-07
   0.9421724422728482E+00
   0.6294930192237206E-07
   0.8436076752870388E+00
  -0.1607281259967543E-06
   0.7742023688801809E+00
   0.5692265126768774E-07
   0.7627583543036617E+00
   0.2216262554951854E-06
   0.7661562012464068E+00
  -0.5029352981509233E-07
   0.8310489475292538E+00
   0.4855404438557508E-07
   0.9353548243040191E+00
   0.2524959088233045E-07
   0.9343897288329150E+00
   0.6206871594488034E-07
   0.9616167925234713E+00
   0.6211055896974573E-08
   0.1448475453689731E+01
  -0.3608027315618804E-06
   0.1495420693460566E+01
  -0.5033420759241326E-06
   0.1646729694960039E+01
  -0.6661587503972073E-06
   0.1426611750619999E+01
  -0.1254962673488730E-06
   0.1009807294819755E+01
   0.7151872377196937E-07
   0.9511451599293865E+00
   0.3349454473768465E-07
   0.9438202812777288E+00
   0.7191103371654771E-07
   0.9574649706998281E+00
   0.4587297023368643E-08
   0.9414971310257391E+00
  -0.1113565149228638E-07
   0.1037119050556605E+01
  -0.5496759069609245E-07
   0.9258166083584491E+00
   0.1222991163823403E-07
   0.9322402496848456E+00
   0.4301148469630235E-07
   0.9538058253106551E+00
   0.9701021732310789E-07
   0.9520452717077104E+00
   0.2002874859710125E-07
   0.9351035433535229E+00
   0.4533575335517484E-07
   0.9565496449382853E+00
   0.2473106333541762E-07
   0.9378638716719228E+00
   0.1539628173664024E-06
   0.9303460519961217E+00
  -0.1230464960831839E-07
   0.9446467733550568E+00
  -0.2359490357903332E-07
   0.8862352680596315E+00
   0.1327974047895642E-06
   0.9424046351330762E+00
  -0.4001123501024441E-07
   0.9637013744969884E+00
  -0.2823154525514038E-07
   0.1008356272019705E+01
   0.3329298281422022E-08
   0.1006712429694677E+01
   0.6548347421042027E-08
   0.1001958930254196E+01
   0.3496325918656069E-08
   0.1003217522142325E+01
   0.4653953586532932E-08
   0.1004120115988623E+01
   0.4942523037281394E-08
   0.1005208064901280E+01
   0.4438021186998201E-08
   0.1004249961601126E+01
   0.4935083037643567E-08
   0.1008268330111673E+01
   0.6029360615460786E-08
   0.1023869441009840E+01
   0.1109668129782227E-07
   0.1063755461254310E+01
   0.8537905112634631E-08
   0.1019394088230431E+01
  -0.1187828156366797E-07
   0.1001777911837218E+01
   0.6173725701412006E-08
   0.9645774236074235E+00
  -0.1076929745026729E-07
   0.1005263328276712E+01
   0.6193925303151739E-08
   0.1000745736284072E+01
   0.1154234246077462E-07
   0.1008696549295284E+01
   0.8241888118377173E-08
   0.1008037948460685E+01
   0.1635151716998401E-07
   0.1002353862054784E+01
   0.6876047763278616E-08
   0.9980195530460373E+00
   0.8933812996653354E-08
   0.1000592769366100E+01
   0.8181695361899145E-08
   0.1001620641866596E+01
   0.6419810249476038E-08
   0.9828039326305119E+00
   0.3838001249016926E-08
   0.9843899727141981E+00
   0.2117509545504528E-08
   0.9834136048336666E+00
  -0.8346323226292562E-08
   0.9790327232747233E+00
  -0.3990122374866855E-08
   0.9904757376039504E+00
   0.6768480321459374E-08
   0.9935193469040822E+00
   0.1087876242995111E-07
   0.1002008894419627E+01
   0.3484122892564919E-08
   0.1002132240800752E+01
   0.3456263650565771E-08
   0.1002273087527473E+01
   0.3665049360102156E-08
   0.1001793578304485E+01
   0.4124435500345369E-08
   0.1009816088048101E+01
   0.3936653328056229E-08
   0.1006507955586487E+01
   0.6583220108206546E-08
   0.9561125617440169E+00
  -0.4052921132961988E-08
   0.9252807407579479E+00
  -0.3924488801640003E-07
   0.1007053966741863E+01
   0.3652559480536914E-08
   0.1004490981233021E+01
   0.4664003638772170E-08
   0.9145128351469501E+00
  -0.1715326276196824E-07
   0.9091570307109060E+00
  -0.1402165481279661E-07
   0.8752463079206000E+00
  -0.2828737501222292E-08
   0.9767979597117160E+00
   0.5319299691615793E-08
   0.1000541360239593E+01
   0.1002817479424763E-07
   0.1005826549298521E+01
   0.3864294526947302E-08
   0.1012896701661273E+01
   0.6166576454435897E-08
   0.1011680292166820E+01
   0.5668422233159256E-08
   0.1010415973633416E+01
   0.4361253730243608E-08
   0.1005456587394373E+01
   0.3823011726600795E-08
   0.9909167514659257E+00
  -0.2142083629255468E-08
   0.1005149610919187E+01
   0.5350419479463949E-08
   0.9860895085425891E+00
   0.1318657044180096E-07
   0.1005593206459360E+01
   0.6861253516045494E-08
   0.1004239922231595E+01
   0.4368729524532425E-08
   0.1002885969212011E+01
   0.4583855615142296E-08
   0.1003350063079954E+01
   0.4401404206710519E-08
   0.1003997944129837E+01
   0.4419053176294689E-08
   0.1005115344748410E+01
   0.4989563061871244E-08
   0.1003223209696062E+01
   0.5997348467253072E-08
   0.1002669123753551E+01
   0.6005280763726109E-08
   0.1002589508107014E+01
   0.4579250982372483E-08
   0.1004069040379244E+01
   0.4961478891166796E-08
   0.1004304991188324E+01
   0.4557444108770502E-08
   0.1001643157075212E+01
   0.5962231724169681E-08
   0.1002279136469169E+01
   0.5289857602736083E-08
   0.1002546782087982E+01
   0.4750991759133405E-08
   0.1003472000611733E+01
   0.5906501203775221E-08
   0.1003380240373205E+01
   0.6054595016650306E-08
   0.1003233137299612E+01
   0.4848552579699944E-08
   0.1004429899221873E+01
   0.5660747600855464E-08
   0.1004324039411518E+01
   0.5688188410761659E-08
   0.1003653018140754E+01
   0.4735654431655512E-08
   0.1003718560690297E+01
   0.5317031082630693E-08
   0.1004319243050091E+01
   0.5362173661808080E-08
   0.1004462563053632E+01
   0.5302429745910210E-08
   0.1003629396201452E+01
   0.5825623589489810E-08
   0.1064485256943287E+01
   0.7220596032574134E-08
   0.1028442061791418E+01
   0.4155066718414603E-08
   0.1009605873443018E+01
   0.6009830050333321E-08
   0.1006626987280978E+01
   0.5521426477137623E-08
   0.1163967546369373E+01
  -0.4950379132288907E-07
   0.1086026686825252E+01
   0.4881373630327402E-08
   0.1007907087196255E+01
   0.5591620393801769E-08
   0.1007251825931227E+01
   0.5323027833053847E-08
   0.1006796456310858E+01
   0.4845281302032324E-08
   0.1013053883289091E+01
   0.8182596045900475E-08
   0.1019340792085681E+01
   0.5059073012274800E-08
   0.1235123173300143E+01
  -0.1388186722741527E-06
   0.1032535565195794E+01
   0.6134143766633187E-08
   0.1046565480924819E+01
   0.1754043536629100E-08
   0.1201701822071688E+01
  -0.5485433514252394E-07
   0.1014672138147950E+01
   0.9062435995517603E-08
   0.1032297498313794E+01
   0.1569967756301393E-07
   0.1028222183346686E+01
   0.1023553823026667E-07
   0.1014640520413408E+01
   0.6699019706217634E-08
   0.1028986927004079E+01
   0.5662501423791700E-08
   0.1002003667376939E+01
   0.6470465408226868E-08
   0.9608147831754150E+00
  -0.7774490031259976E-08
   0.1006858072240643E+01
   0.6378690288766044E-08
   0.1001324898688135E+01
   0.9139516733670815E-08
   0.1010798261835507E+01
   0.8101249608150063E-08
   0.1012231336357123E+01
   0.1056285831908871E-07
   0.1000939569587857E+01
   0.8058705447489693E-08
   0.9979357843570899E+00
   0.9998589125656796E-08
   0.9980690509252449E+00
   0.9027817595264185E-08
   0.1001192040825004E+01
   0.7128295872513918E-08
   0.9842100790603746E+00
   0.1554601244062231E-07
   0.9815228436233336E+00
   0.1044701728106009E-07
   0.9648740509601031E+00
   0.3549273435172440E-07
   0.9680944437965820E+00
   0.2311859983076891E-07
   0.9914084286494711E+00
   0.8642241960487733E-08
   0.9910913083080681E+00
   0.1124671475358175E-07
   0.9925587124684986E+00
   0.1062861461610944E-07
   0.1001727549517141E+01
   0.9167324125652253E-08
   0.9993245747454956E+00
   0.1033389875888169E-07
   0.9941434371456799E+00
   0.1315144956410880E-07
   0.1006982475145256E+01
   0.1101985782991967E-07
   0.1022613019622869E+01
   0.2563013458644002E-07
   0.1001120639144815E+01
   0.2797012839263450E-08
   0.1008783935587028E+01
   0.7788233103381774E-08
   0.1004774772926833E+01
   0.7533788045626212E-08
   0.1009030410936736E+01
   0.8868239753197730E-08
   0.9967211493883048E+00
   0.1174334245872994E-07
   0.1005570715447028E+01
   0.2594484794719787E-07
   0.1003324760116642E+01
   0.6682846563764871E-08
   0.9949845984930815E+00
   0.9153165104782061E-08
   0.9833501663278000E+00
   0.8973792932591733E-08
   0.9944494689301023E+00
   0.8233718932266148E-08
   0.9973474193122843E+00
   0.7862833013873295E-08
   0.9932503760517305E+00
   0.8484927600390330E-08
   0.1001311884915558E+01
   0.7555070687729922E-08
   0.1003000708380201E+01
   0.7284599280192021E-08
   0.1002188291600078E+01
   0.6251702426199314E-08
   0.9947120026425558E+00
   0.9460343820668703E-08
   0.9937832198100176E+00
   0.1025357008099246E-07
   0.1004861704671279E+01
   0.6939024897365755E-08
   0.1020101282076263E+01
   0.9070512078812007E-08
   0.1005337230004318E+01
   0.8491032838431893E-08
   0.9817045977713862E+00
   0.1234872186402661E-07
   0.1004974596064198E+01
   0.6133566509611375E-08
   0.1012374662659208E+01
   0.7437713456701353E-08
   0.9873720328834283E+00
  -0.2258407639346042E-07
   0.9551284413785575E+00
   0.3529182220233400E-07
   0.9865253756937654E+00
   0.1383751289693895E-07
   0.9865916534905533E+00
   0.5957342561149606E-08
   0.9920067167821855E+00
  -0.2445585388297751E-07
   0.9934435620883307E+00
   0.6764529201039857E-09
   0.9960682553901019E+00
   0.2213512794107404E-07
   0.1037400105930392E+01
   0.3677934120679379E-08
   0.1033161102226965E+01
   0.9639322719072164E-08
   0.1001442942592530E+01
   0.5877316541151072E-08
   0.1001928635181766E+01
   0.6704488049727902E-08
   0.9912313107665993E+00
   0.1431815231199767E-07
   0.9911145322921050E+00
   0.1255133434266223E-07
   0.9649433996986500E+00
   0.1193774286997781E-07
   0.9933790316910786E+00
   0.1104090012402429E-07
   0.1006090796377595E+01
   0.6593245080651162E-08
   0.1001963018644339E+01
   0.7529183844863419E-08
   0.9908628976491068E+00
   0.1083445031211409E-07
   0.9742169954693121E+00
  -0.1073500915821372E-08
   0.9420656172525789E+00
  -0.1777668352740169E-07
   0.9821543955093824E+00
  -0.3438258596670436E-08
   0.9794783302231346E+00
   0.1520928637414176E-07
   0.9704368616004208E+00
   0.1403703821370686E-07
   0.9720887189910062E+00
   0.1897603420301252E-07
   0.9557898415179037E+00
   0.9665801081316857E-08
   0.9498086706704917E+00
   0.3568645851832047E-08
   0.9529904616760713E+00
   0.2621851989135935E-07
   0.1002635788495716E+01
   0.8021271926915714E-08
   0.1002475631461275E+01
   0.7247155457768201E-08
   0.1000513073321970E+01
   0.6518351954161567E-08
   0.1001674838585916E+01
   0.6846243391404265E-08
   0.9610035232178796E+00
   0.1559240957127597E-07
   0.9492443247450273E+00
   0.2247074943712401E-07
   0.9586632960051388E+00
   0.9151536097719166E-08
   0.1001121360681966E+01
   0.7681235134787954E-08
   0.1000501199843332E+01
   0.7524279372666309E-08
   0.1001159801553016E+01
   0.7266086014660185E-08
   0.9807420384836291E+00
   0.1121125545503421E-07
   0.9805568735462218E+00
   0.1767154092387012E-07
   0.9629217552803950E+00
   0.2260223649580541E-08
SCALARS u double 1
LOOKUP_TABLE default
   0.0000000000000000E+00
   0.0000000000000000E+00
   0.0000000000000000E+00
   0.0000000000000000E+00
   0.0000000000000000E+00
   0.0000000000000000E+00
   0.0000000000000000E+00
   0.0000000000000000E+00
   0.0000000000000000E+00
   0.0000000000000000E+00
   0.0000000000000000E+00
   0.0000000000000000E+00
   0.0000000000000000E+00
   0.0000000000000000E+00
   0.0000000000000000E+00
   0.0000000000000000E+00
   0.0000000000000000E+00
   0.0000000000000000E+00
   0.0000000000000000E+00
   0.0000000000000000E+00
   0.0000000000000000E+00
   0.0000000000000000E+00
   0.0000000000000000E+00
   0.0000000000000000E+00
   0.0000000000000000E+00
   0.0000000000000000E+00
   0.0000000000000000E+00
   0.0000000000000000E+00
   0.0000000000000000E+00
   0.0000000000000000E+00
   0.0000000000000000E+00
   0.0000000000000000E+00
   0.0000000000000000E+00
   0.0000000000000000E+00
   0.0000000000000000E+00
   0.0000000000000000E+00
   0.0000000000000000E+00
   0.0000000000000000E+00
   0.0000000000000000E+00
   0.0000000000000000E+00
   0.0000000000000000E+00
   0.0000000000000000E+00
   0.0000000000000000E+00
   0.0000000000000000E+00
   0.0000000000000000E+00
   0.0000000000000000E+00
   0.0000000000000000E+00
   0.0000000000000000E+00
   0.0000000000000000E+00
   0.0000000000000000E+00
   0.0000000000000000E+00
   0.0000000000000000E+00
   0.0000000000000000E+00
   0.0000000000000000E+00
   0.0000000000000000E+00
   0.0000000000000000E+00
   0.0000000000000000E+00
   0.0000000000000000E+00
   0.0000000000000000E+00
   0.0000000000000000E+00
   0.0000000000000000E+00
   0.0000000000000000E+00
   0.0000000000000000E+00
   0.0000000000000000E+00
   0.0000000000000000E+00
   0.0000000000000000E+00
   0.4945973674768095E+00
  -0.1398870359184896E-07
   0.5336248050875212E+00
  -0.6671903502955549E-08
   0.5182740404312972E+00
   0.6866368621877141E-09
   0.4930714246880055E+00
   0.1744518787182590E-08
   0.4847754205543355E+00
  -0.3427076738196678E-08
   0.4868132653594723E+00
  -0.4485075040439970E-08
   0.4891430744151815E+00
  -0.3863573347503008E-08
   0.4958009013839254E+00
  -0.5265291731080572E-08
   0.4899007394794648E+00
  -0.4169793402895689E-08
   0.4718072596291384E+00
  -0.1026539497913287E-07
   0.4448872821928410E+00
   0.1228684485570051E-07
   0.4844369958666986E+00
  -0.2163738120069957E-07
   0.5097703332358980E+00
  -0.4556751608353483E-08
   0.4401859475640613E+00
   0.3144264337168426E-07
   0.4949587097101371E+00
  -0.6005803831668949E-08
   0.5223003573134913E+00
  -0.1469305454020599E-07
   0.4962747030690435E+00
  -0.9277796220576182E-08
   0.5223832221928355E+00
  -0.2208375992692711E-07
   0.5038168244516886E+00
  -0.8343621389018872E-08
   0.5644336963770712E+00
  -0.1112273742554214E-07
   0.5245894641611951E+00
  -0.8423618002024987E-08
   0.4990985097357259E+00
  -0.6668748175310547E-08
   0.5729201586822386E+00
  -0.2390008325317669E-07
   0.5693592828396725E+00
  -0.1580845157314198E-07
   0.3752192377712625E+00
  -0.7127988284601105E-08
   0.4003638956327679E+00
  -0.7136786443205506E-07
   0.5599389981230904E+00
  -0.1492024986388148E-07
   0.5562259013996668E+00
  -0.1227933122432728E-07
   0.4942640825753405E+00
   0.1353197072545479E-08
   0.4948651959554843E+00
   0.4736408140336765E-09
   0.4925619071547833E+00
  -0.1402299187982508E-09
   0.4913967782792373E+00
   0.3776003052131301E-09
   0.5162597182149148E+00
   0.9612135798849343E-09
   0.5363670730386850E+00
   0.1334082928883898E-08
   0.4951374106273662E+00
  -0.4921911535201686E-08
   0.4520512889634206E+00
  -0.2077624474629066E-07
   0.5129007652531505E+00
   0.8264776980094348E-09
   0.5117699763037157E+00
   0.1450486444535320E-08
   0.4786317418801627E+00
  -0.1264820058538438E-07
   0.4931122297884648E+00
  -0.1167200890550396E-07
   0.4600270411968572E+00
  -0.4374103537713914E-07
   0.5242595707567218E+00
  -0.1573035436078517E-07
   0.5299947205809796E+00
  -0.5787142369115430E-08
   0.5129700677403205E+00
  -0.4523056497403823E-09
   0.5328928660726447E+00
   0.9698857982700975E-09
   0.5309782654313280E+00
   0.1601152863101998E-08
   0.5309767611235433E+00
   0.7942966269627149E-09
   0.5063651340366065E+00
   0.8895188681873625E-09
   0.5279536186072753E+00
  -0.1054700327451314E-07
   0.5409238855116112E+00
  -0.3718211759577863E-08
   0.5363719066838940E+00
  -0.1560679798795320E-07
   0.5374201319911428E+00
  -0.7800431668810069E-08
   0.4965358979054927E+00
  -0.5379767649572647E-08
   0.4975364856842809E+00
  -0.5449627919297392E-08
   0.4963815197018264E+00
  -0.4582154023857363E-08
   0.4955155009765793E+00
  -0.5056537070667160E-08
   0.4904172548398144E+00
  -0.4799301543494328E-08
   0.4902500217898320E+00
  -0.5588075459361041E-08
   0.4861611309741397E+00
  -0.4847821820441973E-08
   0.4854067565176542E+00
  -0.3544417729896574E-08
   0.4931955989628223E+00
  -0.5287202503913499E-08
   0.4910329667983267E+00
  -0.4181842839665649E-08
   0.4831677513903442E+00
  -0.5680059205488627E-08
   0.4872468807575376E+00
  -0.5333167506994133E-08
   0.4880024275320775E+00
  -0.3650911560134800E-08
   0.4872312393726328E+00
  -0.6427728555489487E-08
   0.4882163845946405E+00
  -0.4945555633733214E-08
   0.4952576817142549E+00
  -0.5097029757309322E-08
   0.4900721164451922E+00
  -0.4864707889480482E-08
   0.4903599279027060E+00
  -0.5281978590623399E-08
   0.4944353026139158E+00
  -0.4800813511387166E-08
   0.4868191759059434E+00
  -0.5098781403637166E-08
   0.4892735512385867E+00
  -0.5300062640057600E-08
   0.4881467931142991E+00
  -0.5329420067319082E-08
   0.4878252396597967E+00
  -0.5983755948370935E-08
   0.4449106779691016E+00
   0.5794133946012462E-08
   0.4700132875190269E+00
  -0.4490151017087145E-08
   0.4891774917432202E+00
  -0.5736502088649046E-08
   0.4885974634697459E+00
  -0.2086453077581124E-08
   0.4510294628190549E+00
   0.1791611155767758E-07
   0.4681803399683529E+00
  -0.1332564844593675E-07
   0.4876666907085698E+00
  -0.3609522512821439E-08
   0.4868262750044974E+00
  -0.1529896192181089E-08
   0.4909268404056551E+00
  -0.2804915842383764E-08
   0.4793945543406324E+00
  -0.5084509275650387E-08
   0.4657906777233845E+00
  -0.3161210607649486E-08
   0.3794391075056589E+00
   0.3392478314911823E-07
   0.4903637343750747E+00
  -0.3301165861618127E-07
   0.4487969161842136E+00
  -0.4476949398125536E-08
   0.4432386725405444E+00
   0.9004973755361850E-08
   0.4845716407405688E+00
  -0.7952232166395068E-08
   0.4621867851019040E+00
  -0.1414753874548527E-07
   0.4663606659170783E+00
  -0.3216817059033887E-07
   0.4747787029525949E+00
  -0.5323107662037603E-08
   0.4893811124123233E+00
  -0.4647343655022958E-07
   0.5085638677103026E+00
  -0.9220195841109603E-08
   0.4305372591468893E+00
   0.1713929869893479E-07
   0.4927298036564221E+00
  -0.6527582491301375E-08
   0.5320327256146461E+00
  -0.2180010163595160E-07
   0.4913855406342780E+00
  -0.8568569646210022E-08
   0.5209473688282826E+00
  -0.1571436216551257E-07
   0.5061309364989561E+00
  -0.1249032418702600E-07
   0.5690650993933909E+00
  -0.1040239802834679E-07
   0.5274990552114467E+00
  -0.1665913587942585E-07
   0.5015024129687961E+00
  -0.1021811544359244E-07
   0.5821782454567676E+00
   0.5073078630992848E-08
   0.5691769250145451E+00
  -0.9012977991273244E-09
   0.3403300368266257E+00
   0.1296516384549116E-07
   0.3786151439647618E+00
   0.7309072922907580E-07
   0.5753346481671189E+00
  -0.1010286289509757E-07
   0.5668543263579108E+00
  -0.2143368656835774E-07
   0.5703059562479964E+00
  -0.1642072870746678E-07
   0.5291879205874438E+00
  -0.2252691459157339E-07
   0.5449837175701119E+00
  -0.2073162029194113E-07
   0.5719102639537682E+00
  -0.1064375961955368E-07
   0.5385667386689488E+00
  -0.2832118220992861E-07
   0.5475905556159869E+00
  -0.2451851370924046E-08
   0.5821515963347528E+00
   0.2863685742258763E-07
   0.4925318968476809E+00
  -0.1545383789577054E-07
   0.5041571115760001E+00
  -0.9825686531618839E-08
   0.4961293264962632E+00
  -0.1213135603195155E-07
   0.5562736233240801E+00
  -0.1408460722394003E-07
   0.4757837005625629E+00
  -0.2505782260639246E-07
   0.4950183184475596E+00
  -0.7866112010579901E-08
   0.5496188055711814E+00
  -0.1337856689939343E-07
   0.5889517159187664E+00
  -0.9821715836316408E-08
   0.5839552612578027E+00
  -0.1500004514141885E-07
   0.5468175663399383E+00
  -0.1183693576037419E-07
   0.5803880219184336E+00
  -0.1289060096728840E-07
   0.5106065646435212E+00
  -0.1330213968237131E-07
   0.5029552652907824E+00
  -0.1122369713055348E-07
   0.5033112976585379E+00
  -0.7476494649202389E-08
   0.5676222186332071E+00
  -0.8370383174081992E-08
   0.5564619505153896E+00
  -0.1828590046335665E-07
   0.4947144959246129E+00
  -0.9719885635000869E-08
   0.5506785365866512E+00
  -0.3390192538380277E-07
   0.5513581031247828E+00