TITLE="fun3d_case_title"
VARIABLES="Iteration" "R_1" "R_2" "R_3" "R_4" "R_5" "C_L" "C_D" "C_M_x" "C_M_y" "C_M_z" "Wall Time" "C_x" "C_y" "C_z" "C_Lp" "C_Dp" "C_Lv" "C_Dv" "C_M_xp" "C_M_yp" "C_M_zp" "C_M_xv" "C_M_yv" "C_M_zv" "C_xp" "C_yp" "C_zp" "C_xv" "C_yv" "C_zv"
ZONE  I=100 F=POINT
1 -0.9893662524E-08 -0.8916417893E-08 -0.2520224347E-09 -0.1293520242E-08 -0.1628606171E-07 -0.3984951729E-05 -0.2875275290E-06  0.5415943299E-05  0.1256396439E-04  0.2898462737E-06  0.0000000000E+00 -0.2875275290E-06  0.3039629841E-06 -0.3984951729E-05 -0.3984904025E-05 -0.2881353780E-06 -0.4770421171E-10  0.6078489747E-09  0.5415950368E-05  0.1256182939E-04  0.2895025991E-06 -0.7069408653E-11  0.2135001746E-08  0.3436746074E-09 -0.2881353780E-06  0.3039251611E-06 -0.3984904025E-05  0.6078489747E-09  0.3782300645E-10 -0.4770421171E-10
2 -0.8936198908E-08 -0.5172937003E-08 -0.1065547301E-08  0.3918777264E-08 -0.7461583320E-08 -0.2163845695E-05 -0.9088957641E-06  0.7477078729E-05  0.8508367928E-05  0.5531649585E-06  0.0000000000E+00 -0.9088957641E-06  0.5749003063E-06 -0.2163845695E-05 -0.2163884565E-05 -0.9095934620E-06  0.3886980953E-10  0.6976978792E-09  0.7477137543E-05  0.8506512507E-05  0.5527729717E-06 -0.5881438486E-10  0.1855421496E-08  0.3919867832E-09 -0.9095934620E-06  0.5748282882E-06 -0.2163884565E-05  0.6976978792E-09  0.7201805248E-10  0.3886980953E-10
3 -0.6393266877E-08 -0.2676821006E-08 -0.1049009186E-08  0.2924476948E-08 -0.2110018281E-08  0.1650440735E-05 -0.1274985147E-05  0.5640562414E-05  0.6356836606E-05  0.7062168339E-06  0.0000000000E+00 -0.1274985147E-05  0.7121285153E-06  0.1650440735E-05  0.1650378796E-05 -0.1275698812E-05  0.6193894952E-10  0.7136654148E-09  0.5640649725E-05  0.6355075967E-05  0.7057582237E-06 -0.8731099275E-10  0.1760639000E-08  0.4586101099E-09 -0.1275698812E-05  0.7120378262E-06  0.1650378796E-05  0.7136654148E-09  0.9068907998E-10  0.6193894952E-10
4 -0.2635125372E-08 -0.2627329347E-08 -0.1611609376E-08 -0.1344875485E-09 -0.2839279023E-08  0.3031737762E-05 -0.1382299457E-05  0.3904366683E-05  0.7521089729E-05  0.7606503382E-06  0.0000000000E+00 -0.1382299457E-05  0.7612536648E-06  0.3031737762E-05  0.3031702949E-05 -0.1382981488E-05  0.3481326492E-10  0.6820308360E-09  0.3904439971E-05  0.7519356457E-05  0.7601365838E-06 -0.7328841233E-10  0.1733271993E-08  0.5137543911E-09 -0.1382981488E-05  0.7611543499E-06  0.3031702949E-05  0.6820308360E-09  0.9931482494E-10  0.3481326492E-10
5  0.3232672765E-09 -0.1602333884E-08 -0.1118548377E-08 -0.1548992758E-08 -0.6948074591E-09  0.2857832018E-05 -0.1410406226E-05  0.3100004427E-05  0.8711499452E-05  0.7853935157E-06  0.0000000000E+00 -0.1410406226E-05  0.7565773584E-06  0.2857832018E-05  0.2857821658E-05 -0.1411056081E-05  0.1035947351E-10  0.6498553658E-09  0.3100046632E-05  0.8709792530E-05  0.7848406454E-06 -0.4220520387E-10  0.1706922530E-08  0.5528703394E-09 -0.1411056081E-05  0.7564731120E-06  0.2857821658E-05  0.6498553658E-09  0.1042463855E-09  0.1035947351E-10
6  0.3026750560E-10 -0.1016250712E-08 -0.5971299092E-09 -0.1028943966E-08 -0.7134817440E-09  0.2330791497E-05 -0.1420691226E-05  0.3080235820E-05  0.9031010591E-05  0.8072788076E-06  0.0000000000E+00 -0.1420691226E-05  0.7386964361E-06  0.2330791497E-05  0.2330787376E-05 -0.1421334585E-05  0.4121017600E-11  0.6433588406E-09  0.3080253752E-05  0.9029336391E-05  0.8066985275E-06 -0.1793167514E-10  0.1674199882E-08  0.5802801321E-09 -0.1421334585E-05  0.7385869034E-06  0.2330787376E-05  0.6433588406E-09  0.1095327376E-09  0.4121017600E-11
7 -0.3552539047E-09 -0.7713254613E-09 -0.3803537393E-09  0.4923402725E-10 -0.7034861138E-09  0.2141746201E-05 -0.1432773348E-05  0.3412675575E-05  0.8381457860E-05  0.8361685784E-06  0.0000000000E+00 -0.1432773348E-05  0.7280664148E-06  0.2141746201E-05  0.2141735961E-05 -0.1433431139E-05  0.1024064544E-10  0.6577900505E-09  0.3412682797E-05  0.8379815902E-05  0.8355706081E-06 -0.7222174252E-11  0.1641958923E-08  0.5979702625E-09 -0.1433431139E-05  0.7279514215E-06  0.2141735961E-05  0.6577900505E-09  0.1149932817E-09  0.1024064544E-10
8 -0.2418553987E-09 -0.6027201954E-09 -0.2860239053E-09  0.6941124772E-10 -0.4740197049E-09  0.2022736006E-05 -0.1442150426E-05  0.3726226615E-05  0.8199118532E-05  0.8589945597E-06  0.0000000000E+00 -0.1442150426E-05  0.7246317799E-06  0.2022736006E-05  0.2022720837E-05 -0.1442820578E-05  0.1516891074E-10  0.6701512291E-09  0.3726232333E-05  0.8197490744E-05  0.8583818317E-06 -0.5718119813E-11  0.1627788596E-08  0.6127280095E-09 -0.1442820578E-05  0.7245114713E-06  0.2022720837E-05  0.6701512291E-09  0.1203085542E-09  0.1516891074E-10
9 -0.4848903451E-10 -0.4252818712E-09 -0.2243349934E-09  0.3086351378E-10 -0.2572157049E-09  0.2031515801E-05 -0.1446965134E-05  0.3889349406E-05  0.8130491330E-05  0.8716318900E-06  0.0000000000E+00 -0.1446965134E-05  0.7249923872E-06  0.2031515801E-05  0.2031498467E-05 -0.1447642909E-05  0.1733362602E-10  0.6777742931E-09  0.3889357868E-05  0.8128869250E-05  0.8710081641E-06 -0.8462134849E-11  0.1622079963E-08  0.6237258457E-09 -0.1447642909E-05  0.7248683812E-06  0.2031498467E-05  0.6777742931E-09  0.1240060332E-09  0.1733362602E-10
10  0.7679205005E-11 -0.2855475057E-09 -0.1745436586E-09 -0.5865190652E-10 -0.1327841431E-09  0.2143586626E-05 -0.1455870984E-05  0.3975729104E-05  0.7799107418E-05  0.8905284046E-06  0.0000000000E+00 -0.1455870984E-05  0.7305994688E-06  0.2143586626E-05  0.2143569976E-05 -0.1456555908E-05  0.1665010194E-10  0.6849232679E-09  0.3975740394E-05  0.7797484631E-05  0.8898940803E-06 -0.1128993546E-10  0.1622786904E-08  0.6343242772E-09 -0.1456555908E-05  0.7304720043E-06  0.2143569976E-05  0.6849232679E-09  0.1274644957E-09  0.1665010194E-10
11 -0.2461774202E-10 -0.2037686086E-09 -0.1153358613E-09 -0.2786480621E-09 -0.1206395057E-09  0.2110285300E-05 -0.1456381887E-05  0.3935760044E-05  0.8038260616E-05  0.8923939349E-06  0.0000000000E+00 -0.1456381887E-05  0.7322743868E-06  0.2110285300E-05  0.2110269306E-05 -0.1457066595E-05  0.1599386568E-10  0.6847076725E-09  0.3935772709E-05  0.8036638258E-05  0.8917533486E-06 -0.1266479368E-10  0.1622357224E-08  0.6405862549E-09 -0.1457066595E-05  0.7321454605E-06  0.2110269306E-05  0.6847076725E-09  0.1289262309E-09  0.1599386568E-10
12 -0.5444110198E-10 -0.1708583426E-09 -0.8273787990E-10 -0.1258153573E-09 -0.1799249160E-09  0.2134550548E-05 -0.1459781697E-05  0.3931478125E-05  0.7955623026E-05  0.8997925755E-06  0.0000000000E+00 -0.1459781697E-05  0.7352971269E-06  0.2134550548E-05  0.2134535622E-05 -0.1460468095E-05  0.1492590896E-10  0.6863978641E-09  0.3931491000E-05  0.7954000069E-05  0.8991460301E-06 -0.1287525432E-10  0.1622956197E-08  0.6465454350E-09 -0.1460468095E-05  0.7351667473E-06  0.2134535622E-05  0.6863978641E-09  0.1303795431E-09  0.1492590896E-10
13 -0.2042608653E-10 -0.1107040424E-09 -0.6301559126E-10 -0.1400148834E-09 -0.8087559896E-10  0.2099139025E-05 -0.1459875647E-05  0.3911248667E-05  0.8079411273E-05  0.9003390852E-06  0.0000000000E+00 -0.1459875647E-05  0.7359964646E-06  0.2099139025E-05  0.2099124256E-05 -0.1460561873E-05  0.1476933772E-10  0.6862262422E-09  0.3911261336E-05  0.8077789385E-05  0.8996888732E-06 -0.1266903158E-10  0.1621887731E-08  0.6502119251E-09 -0.1460561873E-05  0.7358654268E-06  0.2099124256E-05  0.6862262422E-09  0.1310377810E-09  0.1476933772E-10
14 -0.1776442356E-10 -0.8207441253E-10 -0.4428242987E-10 -0.2483227395E-10 -0.5620721205E-10  0.2097769304E-05 -0.1460575362E-05  0.3916762036E-05  0.8066730316E-05  0.9018535498E-06  0.0000000000E+00 -0.1460575362E-05  0.7366402221E-06  0.2097769304E-05  0.2097754585E-05 -0.1461262484E-05  0.1471888584E-10  0.6871226145E-09  0.3916774435E-05  0.8065109263E-05  0.9012008609E-06 -0.1239970805E-10  0.1621052677E-08  0.6526888608E-09 -0.1461262484E-05  0.7365086957E-06  0.2097754585E-05  0.6871226145E-09  0.1315263421E-09  0.1471888584E-10
15 -0.3002793722E-11 -0.4920040671E-10 -0.3124502498E-10 -0.1449453544E-10 -0.2139852036E-10  0.2090999998E-05 -0.1461034417E-05  0.3925271413E-05  0.8076861709E-05  0.9028179660E-06  0.0000000000E+00 -0.1461034417E-05  0.7369419682E-06  0.2090999998E-05  0.2090985270E-05 -0.1461722242E-05  0.1472871191E-10  0.6878246584E-09  0.3925283745E-05  0.8075241062E-05  0.9021634039E-06 -0.1233162134E-10  0.1620647827E-08  0.6545620478E-09 -0.1461722242E-05  0.7368100743E-06  0.2090985270E-05  0.6878246584E-09  0.1318939254E-09  0.1472871191E-10
16 -0.3034113435E-11 -0.2910112225E-10 -0.2263969243E-10 -0.1075401604E-10 -0.1123000671E-10  0.2086419339E-05 -0.1461341938E-05  0.3932880670E-05  0.8085753283E-05  0.9034679101E-06  0.0000000000E+00 -0.1461341938E-05  0.7370868488E-06  0.2086419339E-05  0.2086404619E-05 -0.1462030281E-05  0.1471980363E-10  0.6883431404E-09  0.3932893054E-05  0.8084132770E-05  0.9028120018E-06 -0.1238319596E-10  0.1620512905E-08  0.6559082648E-09 -0.1462030281E-05  0.7369546866E-06  0.2086404619E-05  0.6883431404E-09  0.1321622178E-09  0.1471980363E-10
17 -0.1957049735E-11 -0.1417033305E-10 -0.1611266363E-10 -0.8461929355E-11 -0.6267735052E-11  0.2082538789E-05 -0.1461553414E-05  0.3937592844E-05  0.8095937917E-05  0.9039199654E-06  0.0000000000E+00 -0.1461553414E-05  0.7371685005E-06  0.2082538789E-05  0.2082524096E-05 -0.1462242095E-05  0.1469338808E-10  0.6886812692E-09  0.3937605302E-05  0.8094317417E-05  0.9032630848E-06 -0.1245813963E-10  0.1620500146E-08  0.6568805921E-09 -0.1462242095E-05  0.7370361430E-06  0.2082524096E-05  0.6886812692E-09  0.1323574300E-09  0.1469338808E-10
18 -0.1559334811E-11 -0.4826939157E-11 -0.1085064952E-10 -0.5867880976E-11 -0.6118969440E-12  0.2077734005E-05 -0.1461688922E-05  0.3939935177E-05  0.8110333807E-05  0.9042290910E-06  0.0000000000E+00 -0.1461688922E-05  0.7372176070E-06  0.2077734005E-05  0.2077719357E-05 -0.1462377760E-05  0.1464769862E-10  0.6888385038E-09  0.3939947690E-05  0.8108713222E-05  0.9035715045E-06 -0.1251290692E-10  0.1620585022E-08  0.6575865654E-09 -0.1462377760E-05  0.7370851071E-06  0.2077719357E-05  0.6888385038E-09  0.1324998354E-09  0.1464769862E-10
19 -0.9069453480E-12 -0.5211145584E-12 -0.6990380124E-11 -0.4119164793E-11  0.8355068341E-12  0.2073956840E-05 -0.1461763118E-05  0.3940997931E-05  0.8122370628E-05  0.9044119091E-06  0.0000000000E+00 -0.1461763118E-05  0.7372427359E-06  0.2073956840E-05  0.2073942217E-05 -0.1462452037E-05  0.1462321121E-10  0.6889183498E-09  0.3941010469E-05  0.8120750000E-05  0.9037538168E-06 -0.1253800663E-10  0.1620627717E-08  0.6580922385E-09 -0.1462452037E-05  0.7371101332E-06  0.2073942217E-05  0.6889183498E-09  0.1326027763E-09  0.1462321121E-10
20  0.3356269675E-12  0.6542483800E-12 -0.4220631631E-11 -0.2458470380E-11  0.1849196068E-11  0.2071107053E-05 -0.1461792188E-05  0.3941546976E-05  0.8131619477E-05  0.9045025932E-06  0.0000000000E+00 -0.1461792188E-05  0.7372497413E-06  0.2071107053E-05  0.2071092442E-05 -0.1462481139E-05  0.1461119024E-10  0.6889512698E-09  0.3941559522E-05  0.8129998829E-05  0.9038441407E-06 -0.1254662607E-10  0.1620647712E-08  0.6584524802E-09 -0.1462481139E-05  0.7371170654E-06  0.2071092442E-05  0.6889512698E-09  0.1326759534E-09  0.1461119024E-10
21  0.9286019370E-12  0.2784507277E-13 -0.2521910561E-11 -0.1067751141E-11  0.1070066594E-11  0.2069304048E-05 -0.1461792493E-05  0.3941905991E-05  0.8137537848E-05  0.9045328011E-06  0.0000000000E+00 -0.1461792493E-05  0.7372448112E-06  0.2069304048E-05  0.2069289439E-05 -0.1462481458E-05  0.1460850326E-10  0.6889645556E-09  0.3941918541E-05  0.8135917199E-05  0.9038740995E-06 -0.1255068719E-10  0.1620648493E-08  0.6587015798E-09 -0.1462481458E-05  0.7371120860E-06  0.2069289439E-05  0.6889645556E-09  0.1327252700E-09  0.1460850326E-10
22  0.8575932813E-12 -0.9043503311E-12 -0.1539290080E-11 -0.1845083001E-12 -0.1260422846E-12  0.2068448403E-05 -0.1461778955E-05  0.3942184937E-05  0.8140409465E-05  0.9045311360E-06  0.0000000000E+00 -0.1461778955E-05  0.7372344482E-06  0.2068448403E-05  0.2068433793E-05 -0.1462467929E-05  0.1460991430E-10  0.6889741965E-09  0.3942197493E-05  0.8138788824E-05  0.9038722705E-06 -0.1255520054E-10  0.1620641524E-08  0.6588655417E-09 -0.1462467929E-05  0.7371016917E-06  0.2068433793E-05  0.6889741965E-09  0.1327565065E-09  0.1460991430E-10
23  0.5501672765E-12 -0.1587210878E-11 -0.9969369033E-12  0.1999716027E-12 -0.9605349443E-12  0.2068235868E-05 -0.1461762143E-05  0.3942403323E-05  0.8141211522E-05  0.9045173858E-06  0.0000000000E+00 -0.1461762143E-05  0.7372235523E-06  0.2068235868E-05  0.2068221256E-05 -0.1462451128E-05  0.1461204604E-10  0.6889843329E-09  0.3942415884E-05  0.8139590887E-05  0.9038584188E-06 -0.1256031144E-10  0.1620634930E-08  0.6589670038E-09 -0.1462451128E-05  0.7370907771E-06  0.2068221256E-05  0.6889843329E-09  0.1327751534E-09  0.1461204604E-10
24  0.2481052037E-12 -0.1908554261E-11 -0.7140019504E-12  0.2380034172E-12 -0.1344443050E-11  0.2068360947E-05 -0.1461747928E-05  0.3942568056E-05  0.8140927416E-05  0.9045029702E-06  0.0000000000E+00 -0.1461747928E-05  0.7372148693E-06  0.2068360947E-05  0.2068346333E-05 -0.1462436922E-05  0.1461328963E-10  0.6889937497E-09  0.3942580621E-05  0.8139306783E-05  0.9038439445E-06 -0.1256477085E-10  0.1620632776E-08  0.6590256745E-09 -0.1462436922E-05  0.7370820834E-06  0.2068346333E-05  0.6889937497E-09  0.1327858910E-09  0.1461328963E-10
25  0.1488084849E-13 -0.1937532585E-11 -0.5579223440E-12  0.1219650337E-12 -0.1423009646E-11  0.2068597844E-05 -0.1461738210E-05  0.3942688728E-05  0.8140275014E-05  0.9044922797E-06  0.0000000000E+00 -0.1461738210E-05  0.7372091387E-06  0.2068597844E-05  0.2068583231E-05 -0.1462427210E-05  0.1461342908E-10  0.6890004284E-09  0.3942701296E-05  0.8138654379E-05  0.9038332222E-06 -0.1256768456E-10  0.1620634933E-08  0.6590575263E-09 -0.1462427210E-05  0.7370763466E-06  0.2068583231E-05  0.6890004284E-09  0.1327921499E-09  0.1461342908E-10
26 -0.1293277356E-12 -0.1765541418E-11 -0.4455724910E-12 -0.2057754523E-13 -0.1319035556E-11  0.2068823230E-05 -0.1461732481E-05  0.3942776799E-05  0.8139637602E-05  0.9044855269E-06  0.0000000000E+00 -0.1461732481E-05  0.7372058540E-06  0.2068823230E-05  0.2068808617E-05 -0.1462421485E-05  0.1461290294E-10  0.6890037712E-09  0.3942789368E-05  0.8138016963E-05  0.9038264527E-06 -0.1256894057E-10  0.1620639245E-08  0.6590742553E-09 -0.1462421485E-05  0.7370730579E-06  0.2068808617E-05  0.6890037712E-09  0.1327961309E-09  0.1461290294E-10
27 -0.1924006831E-12 -0.1485543614E-11 -0.3400448968E-12 -0.1260670137E-12 -0.1115126641E-11  0.2068992898E-05 -0.1461729355E-05  0.3942841871E-05  0.8139149346E-05  0.9044813211E-06  0.0000000000E+00 -0.1461729355E-05  0.7372040927E-06  0.2068992898E-05  0.2068978286E-05 -0.1462418360E-05  0.1461227079E-10  0.6890045572E-09  0.3942854440E-05  0.8137528703E-05  0.9038222378E-06 -0.1256895840E-10  0.1620643381E-08  0.6590833880E-09 -0.1462418360E-05  0.7370712937E-06  0.2068978286E-05  0.6890045572E-09  0.1327990181E-09  0.1461227079E-10
28 -0.1987409636E-12 -0.1173449630E-11 -0.2370161322E-12 -0.1759622413E-12 -0.8734735730E-12  0.2069107878E-05 -0.1461727571E-05  0.3942890736E-05  0.8138808629E-05  0.9044783258E-06  0.0000000000E+00 -0.1461727571E-05  0.7372030700E-06  0.2069107878E-05  0.2069093266E-05 -0.1462416576E-05  0.1461187206E-10  0.6890041002E-09  0.3942903304E-05  0.8137187983E-05  0.9038192367E-06 -0.1256831352E-10  0.1620646062E-08  0.6590890807E-09 -0.1462416576E-05  0.7370702687E-06  0.2069093266E-05  0.6890041002E-09  0.1328013221E-09  0.1461187206E-10
29 -0.1755188014E-12 -0.8812402563E-12 -0.1458627956E-12 -0.1790848416E-12 -0.6395417944E-12  0.2069184400E-05 -0.1461726367E-05  0.3942927806E-05  0.8138572194E-05  0.9044758350E-06  0.0000000000E+00 -0.1461726367E-05  0.7372023309E-06  0.2069184400E-05  0.2069169788E-05 -0.1462415370E-05  0.1461177741E-10  0.6890034651E-09  0.3942940373E-05  0.8136951547E-05  0.9038167418E-06 -0.1256748181E-10  0.1620647145E-08  0.6590932278E-09 -0.1462415370E-05  0.7370695277E-06  0.2069169788E-05  0.6890034651E-09  0.1328031979E-09  0.1461177741E-10
30 -0.1424097463E-12 -0.6352281389E-12 -0.7547926208E-13 -0.1545487087E-12 -0.4419485482E-12  0.2069237622E-05 -0.1461725420E-05  0.3942955901E-05  0.8138401863E-05  0.9044736804E-06  0.0000000000E+00 -0.1461725420E-05  0.7372017009E-06  0.2069237622E-05  0.2069223010E-05 -0.1462414423E-05  0.1461188880E-10  0.6890031689E-09  0.3942968467E-05  0.8136781215E-05  0.9038145839E-06 -0.1256674743E-10  0.1620647151E-08  0.6590964943E-09 -0.1462414423E-05  0.7370688962E-06  0.2069223010E-05  0.6890031689E-09  0.1328046740E-09  0.1461188880E-10
31 -0.1101165867E-12 -0.4426404971E-12 -0.2864393570E-13 -0.1197058729E-12 -0.2918446653E-12  0.2069276586E-05 -0.1461724655E-05  0.3942976891E-05  0.8138276252E-05  0.9044719306E-06  0.0000000000E+00 -0.1461724655E-05  0.7372011567E-06  0.2069276586E-05  0.2069261974E-05 -0.1462413658E-05  0.1461207036E-10  0.6890032674E-09  0.3942989458E-05  0.8136655605E-05  0.9038128316E-06 -0.1256622172E-10  0.1620646710E-08  0.6590990427E-09 -0.1462413658E-05  0.7370683509E-06  0.2069261974E-05  0.6890032674E-09  0.1328057719E-09  0.1461207036E-10
32 -0.8284503159E-13 -0.2995598562E-12 -0.2573310650E-14 -0.8653386632E-13 -0.1872938756E-12  0.2069305476E-05 -0.1461724073E-05  0.3942992128E-05  0.8138185297E-05  0.9044706533E-06  0.0000000000E+00 -0.1461724073E-05  0.7372007180E-06  0.2069305476E-05  0.2069290864E-05 -0.1462413077E-05  0.1461222904E-10  0.6890035968E-09  0.3943004694E-05  0.8136564650E-05  0.9038115524E-06 -0.1256590350E-10  0.1620646250E-08  0.6591009193E-09 -0.1462413077E-05  0.7370679114E-06  0.2069290864E-05  0.6890035968E-09  0.1328065417E-09  0.1461222904E-10
33 -0.6132966999E-13 -0.1975387117E-12  0.8240348061E-14 -0.6135340822E-13 -0.1192266888E-12  0.2069326240E-05 -0.1461723666E-05  0.3943002750E-05  0.8138122755E-05  0.9044698295E-06  0.0000000000E+00 -0.1461723666E-05  0.7372003951E-06  0.2069326240E-05  0.2069311627E-05 -0.1462412670E-05  0.1461233155E-10  0.6890039746E-09  0.3943015316E-05  0.8136502109E-05  0.9038107273E-06 -0.1256574071E-10  0.1620645941E-08  0.6591022005E-09 -0.1462412670E-05  0.7370675880E-06  0.2069311627E-05  0.6890039746E-09  0.1328070550E-09  0.1461233155E-10
34 -0.4482981861E-13 -0.1273114589E-12  0.9709343733E-14 -0.4500073691E-13 -0.7682583276E-13  0.2069340392E-05 -0.1461723402E-05  0.3943009814E-05  0.8138082330E-05  0.9044693663E-06  0.0000000000E+00 -0.1461723402E-05  0.7372001772E-06  0.2069340392E-05  0.2069325779E-05 -0.1462412406E-05  0.1461238529E-10  0.6890042929E-09  0.3943022379E-05  0.8136461684E-05  0.9038102633E-06 -0.1256567248E-10  0.1620645779E-08  0.6591030076E-09 -0.1462412406E-05  0.7370673698E-06  0.2069325779E-05  0.6890042929E-09  0.1328073865E-09  0.1461238529E-10
35 -0.3235025799E-13 -0.8066628625E-13  0.6757937306E-14 -0.3463476535E-13 -0.5098692131E-13  0.2069349568E-05 -0.1461723240E-05  0.3943014303E-05  0.8138057374E-05  0.9044691460E-06  0.0000000000E+00 -0.1461723240E-05  0.7372000410E-06  0.2069349568E-05  0.2069334956E-05 -0.1462412244E-05  0.1461241157E-10  0.6890045223E-09  0.3943026869E-05  0.8136436728E-05  0.9038100425E-06 -0.1256565060E-10  0.1620645701E-08  0.6591034762E-09 -0.1462412244E-05  0.7370672334E-06  0.2069334956E-05  0.6890045223E-09  0.1328075995E-09  0.1461241157E-10
36 -0.2303548337E-13 -0.5089065504E-13  0.2707552779E-14 -0.2713602374E-13 -0.3528267706E-13  0.2069355378E-05 -0.1461723141E-05  0.3943017067E-05  0.8138042027E-05  0.9044690666E-06  0.0000000000E+00 -0.1461723141E-05  0.7371999613E-06  0.2069355378E-05  0.2069340765E-05 -0.1462412146E-05  0.1461242783E-10  0.6890046784E-09  0.3943029632E-05  0.8136421381E-05  0.9038099629E-06 -0.1256564545E-10  0.1620645651E-08  0.6591037267E-09 -0.1462412146E-05  0.7370671535E-06  0.2069340765E-05  0.6890046784E-09  0.1328077396E-09  0.1461242783E-10
37 -0.1621607969E-13 -0.3267323681E-13 -0.7162539078E-15 -0.2100274920E-13 -0.2555671294E-13  0.2069359107E-05 -0.1461723080E-05  0.3943018757E-05  0.8138032122E-05  0.9044690586E-06  0.0000000000E+00 -0.1461723080E-05  0.7371999179E-06  0.2069359107E-05  0.2069344494E-05 -0.1462412085E-05  0.1461244211E-10  0.6890047874E-09  0.3943031322E-05  0.8136411476E-05  0.9038099547E-06 -0.1256564308E-10  0.1620645604E-08  0.6591038493E-09 -0.1462412085E-05  0.7370671101E-06  0.2069344494E-05  0.6890047874E-09  0.1328078359E-09  0.1461244211E-10
38 -0.1133236599E-13 -0.2190960331E-13 -0.2949634884E-14 -0.1595064496E-13 -0.1923205132E-13  0.2069361598E-05 -0.1461723042E-05  0.3943019813E-05  0.8138025271E-05  0.9044690825E-06  0.0000000000E+00 -0.1461723042E-05  0.7371998969E-06  0.2069361598E-05  0.2069346985E-05 -0.1462412047E-05  0.1461245543E-10  0.6890048684E-09  0.3943032379E-05  0.8136404626E-05  0.9038099786E-06 -0.1256563940E-10  0.1620645559E-08  0.6591039036E-09 -0.1462412047E-05  0.7370670890E-06  0.2069346985E-05  0.6890048684E-09  0.1328079053E-09  0.1461245543E-10
39 -0.7899105905E-14 -0.1560044197E-13 -0.4057621899E-14 -0.1198387718E-13 -0.1479579362E-13  0.2069363309E-05 -0.1461723020E-05  0.3943020497E-05  0.8138020368E-05  0.9044691190E-06  0.0000000000E+00 -0.1461723020E-05  0.7371998895E-06  0.2069363309E-05  0.2069348697E-05 -0.1462412025E-05  0.1461246615E-10  0.6890049304E-09  0.3943033063E-05  0.8136399722E-05  0.9038100151E-06 -0.1256563476E-10  0.1620645524E-08  0.6591039247E-09 -0.1462412025E-05  0.7370670815E-06  0.2069348697E-05  0.6890049304E-09  0.1328079569E-09  0.1461246615E-10
40 -0.5508897072E-14 -0.1174987690E-13 -0.4335665065E-14 -0.8982578026E-14 -0.1144878106E-13  0.2069364466E-05 -0.1461723008E-05  0.3943020948E-05  0.8138016956E-05  0.9044691595E-06  0.0000000000E+00 -0.1461723008E-05  0.7371998899E-06  0.2069364466E-05  0.2069349854E-05 -0.1462412013E-05  0.1461247303E-10  0.6890049763E-09  0.3943033513E-05  0.8136396310E-05  0.9038100556E-06 -0.1256563053E-10  0.1620645502E-08  0.6591039315E-09 -0.1462412013E-05  0.7370670819E-06  0.2069349854E-05  0.6890049763E-09  0.1328079955E-09  0.1461247303E-10
41 -0.3845941712E-14 -0.9179229411E-14 -0.4094828481E-14 -0.6723840710E-14 -0.8817987543E-14  0.2069365194E-05 -0.1461723004E-05  0.3943021238E-05  0.8138014776E-05  0.9044691994E-06  0.0000000000E+00 -0.1461723004E-05  0.7371998943E-06  0.2069365194E-05  0.2069350581E-05 -0.1462412009E-05  0.1461247619E-10  0.6890050073E-09  0.3943033804E-05  0.8136394130E-05  0.9038100954E-06 -0.1256562761E-10  0.1620645492E-08  0.6591039329E-09 -0.1462412009E-05  0.7370670863E-06  0.2069350581E-05  0.6890050073E-09  0.1328080243E-09  0.1461247619E-10
42 -0.2685191736E-14 -0.7275507948E-14 -0.3581209559E-14 -0.5000545596E-14 -0.6734147497E-14  0.2069365593E-05 -0.1461723004E-05  0.3943021412E-05  0.8138013564E-05  0.9044692358E-06  0.0000000000E+00 -0.1461723004E-05  0.7371999004E-06  0.2069365593E-05  0.2069350980E-05 -0.1462412009E-05  0.1461247673E-10  0.6890050260E-09  0.3943033978E-05  0.8136392918E-05  0.9038101319E-06 -0.1256562615E-10  0.1620645491E-08  0.6591039333E-09 -0.1462412009E-05  0.7370670923E-06  0.2069350980E-05  0.6890050260E-09  0.1328080454E-09  0.1461247673E-10
43 -0.1875187988E-14 -0.5757041781E-14 -0.2964256915E-14 -0.3673114437E-14 -0.5098697890E-14  0.2069365762E-05 -0.1461723006E-05  0.3943021504E-05  0.8138013027E-05  0.9044692670E-06  0.0000000000E+00 -0.1461723006E-05  0.7371999064E-06  0.2069365762E-05  0.2069351149E-05 -0.1462412011E-05  0.1461247595E-10  0.6890050357E-09  0.3943034070E-05  0.8136392381E-05  0.9038101631E-06 -0.1256562583E-10  0.1620645494E-08  0.6591039341E-09 -0.1462412011E-05  0.7370670983E-06  0.2069351149E-05  0.6890050357E-09  0.1328080606E-09  0.1461247595E-10
44 -0.1313842125E-14 -0.4506368669E-14 -0.2349844836E-14 -0.2656521784E-14 -0.3829372722E-14  0.2069365790E-05 -0.1461723008E-05  0.3943021543E-05  0.8138012895E-05  0.9044692922E-06  0.0000000000E+00 -0.1461723008E-05  0.7371999116E-06  0.2069365790E-05  0.2069351177E-05 -0.1462412013E-05  0.1461247481E-10  0.6890050398E-09  0.3943034108E-05  0.8136392250E-05  0.9038101883E-06 -0.1256562617E-10  0.1620645498E-08  0.6591039357E-09 -0.1462412013E-05  0.7370671035E-06  0.2069351177E-05  0.6890050398E-09  0.1328080713E-09  0.1461247481E-10
45 -0.9280381060E-15 -0.3473989605E-14 -0.1797161517E-14 -0.1891950616E-14 -0.2850758116E-14  0.2069365747E-05 -0.1461723010E-05  0.3943021551E-05  0.8138012964E-05  0.9044693116E-06  0.0000000000E+00 -0.1461723010E-05  0.7371999157E-06  0.2069365747E-05  0.2069351134E-05 -0.1462412015E-05  0.1461247381E-10  0.6890050411E-09  0.3943034116E-05  0.8136392318E-05  0.9038102077E-06 -0.1256562682E-10  0.1620645501E-08  0.6591039379E-09 -0.1462412015E-05  0.7370671076E-06  0.2069351134E-05  0.6890050411E-09  0.1328080788E-09  0.1461247381E-10
46 -0.6628273058E-15 -0.2632728729E-14 -0.1333028467E-14 -0.1329415786E-14 -0.2098659073E-14  0.2069365679E-05 -0.1461723012E-05  0.3943021545E-05  0.8138013106E-05  0.9044693261E-06  0.0000000000E+00 -0.1461723012E-05  0.7371999188E-06  0.2069365679E-05  0.2069351066E-05 -0.1462412017E-05  0.1461247307E-10  0.6890050413E-09  0.3943034111E-05  0.8136392461E-05  0.9038102221E-06 -0.1256562753E-10  0.1620645503E-08  0.6591039406E-09 -0.1462412017E-05  0.7370671107E-06  0.2069351066E-05  0.6890050413E-09  0.1328080840E-09  0.1461247307E-10
47 -0.4778951917E-15 -0.1960293630E-14 -0.9630942337E-15 -0.9232104214E-15 -0.1523162737E-14  0.2069365610E-05 -0.1461723013E-05  0.3943021536E-05  0.8138013258E-05  0.9044693366E-06  0.0000000000E+00 -0.1461723013E-05  0.7371999210E-06  0.2069365610E-05  0.2069350997E-05 -0.1462412018E-05  0.1461247255E-10  0.6890050412E-09  0.3943034102E-05  0.8136392612E-05  0.9038102326E-06 -0.1256562818E-10  0.1620645505E-08  0.6591039431E-09 -0.1462412018E-05  0.7370671129E-06  0.2069350997E-05  0.6890050412E-09  0.1328080875E-09  0.1461247255E-10
48 -0.3459242520E-15 -0.1434344805E-14 -0.6804374147E-15 -0.6336051541E-15 -0.1087092696E-14  0.2069365549E-05 -0.1461723013E-05  0.3943021528E-05  0.8138013394E-05  0.9044693442E-06  0.0000000000E+00 -0.1461723013E-05  0.7371999226E-06  0.2069365549E-05  0.2069350937E-05 -0.1462412018E-05  0.1461247217E-10  0.6890050410E-09  0.3943034094E-05  0.8136392748E-05  0.9038102402E-06 -0.1256562875E-10  0.1620645506E-08  0.6591039454E-09 -0.1462412018E-05  0.7370671145E-06  0.2069350937E-05  0.6890050410E-09  0.1328080899E-09  0.1461247217E-10
49 -0.2498523604E-15 -0.1032025940E-14 -0.4719236728E-15 -0.4289749525E-15 -0.7620617645E-15  0.2069365500E-05 -0.1461723014E-05  0.3943021522E-05  0.8138013509E-05  0.9044693497E-06  0.0000000000E+00 -0.1461723014E-05  0.7371999237E-06  0.2069365500E-05  0.2069350888E-05 -0.1462412019E-05  0.1461247186E-10  0.6890050409E-09  0.3943034088E-05  0.8136392863E-05  0.9038102458E-06 -0.1256562923E-10  0.1620645507E-08  0.6591039473E-09 -0.1462412019E-05  0.7370671156E-06  0.2069350888E-05  0.6890050409E-09  0.1328080914E-09  0.1461247186E-10
50 -0.1793472819E-15 -0.7308404751E-15 -0.3225506994E-15 -0.2858535507E-15 -0.5248981772E-15  0.2069365462E-05 -0.1461723014E-05  0.3943021519E-05  0.8138013602E-05  0.9044693539E-06  0.0000000000E+00 -0.1461723014E-05  0.7371999246E-06  0.2069365462E-05  0.2069350849E-05 -0.1462412019E-05  0.1461247160E-10  0.6890050407E-09  0.3943034085E-05  0.8136392957E-05  0.9038102499E-06 -0.1256562962E-10  0.1620645507E-08  0.6591039487E-09 -0.1462412019E-05  0.7370671165E-06  0.2069350849E-05  0.6890050407E-09  0.1328080924E-09  0.1461247160E-10
51 -0.1278046674E-15 -0.5098187418E-15 -0.2180893135E-15 -0.1873037449E-15 -0.3557366163E-15  0.2069365432E-05 -0.1461723014E-05  0.3943021518E-05  0.8138013676E-05  0.9044693570E-06  0.0000000000E+00 -0.1461723014E-05  0.7371999253E-06  0.2069365432E-05  0.2069350819E-05 -0.1462412019E-05  0.1461247140E-10  0.6890050405E-09  0.3943034083E-05  0.8136393030E-05  0.9038102530E-06 -0.1256562992E-10  0.1620645508E-08  0.6591039496E-09 -0.1462412019E-05  0.7370671172E-06  0.2069350819E-05  0.6890050405E-09  0.1328080931E-09  0.1461247140E-10
52 -0.9050802528E-16 -0.3504969755E-15 -0.1464099926E-15 -0.1209359421E-15 -0.2375716175E-15  0.2069365409E-05 -0.1461723014E-05  0.3943021517E-05  0.8138013732E-05  0.9044693593E-06  0.0000000000E+00 -0.1461723014E-05  0.7371999258E-06  0.2069365409E-05  0.2069350797E-05 -0.1462412019E-05  0.1461247124E-10  0.6890050403E-09  0.3943034083E-05  0.8136393086E-05  0.9038102554E-06 -0.1256563016E-10  0.1620645508E-08  0.6591039503E-09 -0.1462412019E-05  0.7370671177E-06  0.2069350797E-05  0.6890050403E-09  0.1328080936E-09  0.1461247124E-10
53 -0.6379620667E-16 -0.2374583573E-15 -0.9790397885E-16 -0.7740924604E-16 -0.1564281100E-15  0.2069365393E-05 -0.1461723014E-05  0.3943021518E-05  0.8138013772E-05  0.9044693611E-06  0.0000000000E+00 -0.1461723014E-05  0.7371999262E-06  0.2069365393E-05  0.2069350781E-05 -0.1462412019E-05  0.1461247113E-10  0.6890050402E-09  0.3943034083E-05  0.8136393126E-05  0.9038102572E-06 -0.1256563032E-10  0.1620645509E-08  0.6591039507E-09 -0.1462412019E-05  0.7370671181E-06  0.2069350781E-05  0.6890050402E-09  0.1328080939E-09  0.1461247113E-10
54 -0.4478896747E-16 -0.1584044334E-15 -0.6536583402E-16 -0.4956385733E-16 -0.1014430007E-15  0.2069365382E-05 -0.1461723014E-05  0.3943021518E-05  0.8138013800E-05  0.9044693625E-06  0.0000000000E+00 -0.1461723014E-05  0.7371999264E-06  0.2069365382E-05  0.2069350769E-05 -0.1462412019E-05  0.1461247106E-10  0.6890050400E-09  0.3943034084E-05  0.8136393154E-05  0.9038102585E-06 -0.1256563044E-10  0.1620645509E-08  0.6591039510E-09 -0.1462412019E-05  0.7370671184E-06  0.2069350769E-05  0.6890050400E-09  0.1328080941E-09  0.1461247106E-10