# vtk DataFile Version 2.0
FUN3D:global_image_vtk
ASCII
DATASET UNSTRUCTURED_GRID
POINTS 213 double
    0.2760011084080653E-18    0.0000000000000000E+00    0.2500000000000000E+01
    0.0000000000000000E+00    0.2760011084080653E-18    0.0000000000000000E+00
    0.1250000000000000E+01    0.0000000000000000E+00    0.2500000000000000E+01
    0.0000000000000000E+00    0.2760011084080653E-18    0.0000000000000000E+00
    0.2500000000000000E+01    0.0000000000000000E+00    0.2500000000000000E+01
    0.0000000000000000E+00    0.2760011084080653E-18    0.0000000000000000E+00
    0.3750000000000000E+01    0.0000000000000000E+00    0.2500000000000000E+01
    0.0000000000000000E+00    0.2760011084080653E-18    0.0000000000000000E+00
    0.5000000000000000E+01    0.0000000000000000E+00    0.2500000000000000E+01
    0.0000000000000000E+00    0.2760011084080653E-18    0.0000000000000000E+00
    0.5000000000000000E+01    0.0000000000000000E+00    0.1250000000000000E+01
    0.0000000000000000E+00    0.2760011084080653E-18    0.0000000000000000E+00
    0.5000000000000000E+01    0.0000000000000000E+00    0.2760011084080653E-18
    0.0000000000000000E+00    0.2760011084080653E-18    0.0000000000000000E+00
    0.5000000000000000E+01    0.0000000000000000E+00   -0.1250000000000000E+01
    0.0000000000000000E+00    0.2760011084080653E-18    0.0000000000000000E+00
    0.5000000000000000E+01    0.0000000000000000E+00   -0.2500000000000000E+01
    0.0000000000000000E+00    0.2760011084080653E-18    0.0000000000000000E+00
    0.3750000000000000E+01    0.0000000000000000E+00   -0.2500000000000000E+01
    0.0000000000000000E+00    0.2760011084080653E-18    0.0000000000000000E+00
    0.2500000000000000E+01    0.0000000000000000E+00   -0.2500000000000000E+01
    0.0000000000000000E+00    0.2760011084080653E-18    0.0000000000000000E+00
    0.1250000000000000E+01    0.0000000000000000E+00   -0.2500000000000000E+01
    0.0000000000000000E+00    0.2760011084080653E-18    0.0000000000000000E+00
    0.2760011084080653E-18    0.0000000000000000E+00   -0.2500000000000000E+01
    0.0000000000000000E+00    0.2760011084080653E-18    0.0000000000000000E+00
    0.2760011084080653E-18    0.0000000000000000E+00   -0.1250000000000000E+01
    0.0000000000000000E+00    0.2760011084080653E-18    0.0000000000000000E+00
    0.2760011084080653E-18    0.0000000000000000E+00    0.2760011084080653E-18
    0.0000000000000000E+00    0.2760011084080653E-18    0.0000000000000000E+00
    0.2760011084080653E-18    0.0000000000000000E+00    0.1250000000000000E+01
    0.0000000000000000E+00    0.2760011084080653E-18    0.0000000000000000E+00
    0.9058375365086910E+00    0.0000000000000000E+00    0.1578994732800803E+01
    0.0000000000000000E+00    0.2760011084080653E-18    0.0000000000000000E+00
    0.3982050490726493E+01    0.0000000000000000E+00   -0.1583989954232354E+01
    0.0000000000000000E+00    0.2760011084080653E-18    0.0000000000000000E+00
    0.4033849428301197E+01    0.0000000000000000E+00    0.1453322699199022E+01
    0.0000000000000000E+00    0.2760011084080653E-18    0.0000000000000000E+00
    0.1040505887381675E+01    0.0000000000000000E+00   -0.1479596339503735E+01
    0.0000000000000000E+00    0.2760011084080653E-18    0.0000000000000000E+00
    0.1099454400140349E+01    0.0000000000000000E+00   -0.3227322616384110E+00
    0.0000000000000000E+00    0.2760011084080653E-18    0.0000000000000000E+00
    0.7354504170366591E+00    0.0000000000000000E+00    0.6593508822075582E+00
    0.0000000000000000E+00    0.2760011084080653E-18    0.0000000000000000E+00
    0.1622302608453282E+01    0.0000000000000000E+00    0.8256214013940779E+00
    0.0000000000000000E+00    0.2760011084080653E-18    0.0000000000000000E+00
    0.2145871574390382E+01    0.0000000000000000E+00   -0.1650070333782557E+01
    0.0000000000000000E+00    0.2760011084080653E-18    0.0000000000000000E+00
    0.4086422318222992E+01    0.0000000000000000E+00   -0.4612828702537229E+00
    0.0000000000000000E+00    0.2760011084080653E-18    0.0000000000000000E+00
    0.2979540174134984E+01    0.0000000000000000E+00   -0.8579242121530853E+00
    0.0000000000000000E+00    0.2760011084080653E-18    0.0000000000000000E+00
    0.3045064261640043E+01    0.0000000000000000E+00   -0.1836846154397680E+01
    0.0000000000000000E+00    0.2760011084080653E-18    0.0000000000000000E+00
    0.3428197553792836E+01    0.0000000000000000E+00    0.3508002863614053E+00
    0.0000000000000000E+00    0.2760011084080653E-18    0.0000000000000000E+00
    0.4309693860063405E+01    0.0000000000000000E+00    0.5185680230613409E+00
    0.0000000000000000E+00    0.2760011084080653E-18    0.0000000000000000E+00
    0.1827272193562204E+01    0.0000000000000000E+00    0.1738996113203182E+01
    0.0000000000000000E+00    0.2760011084080653E-18    0.0000000000000000E+00
    0.2808563282768077E+01    0.0000000000000000E+00    0.1325493893339706E+01
    0.0000000000000000E+00    0.2760011084080653E-18    0.0000000000000000E+00
    0.1895995683864404E+01    0.0000000000000000E+00   -0.8731419609589618E+00
    0.0000000000000000E+00    0.2760011084080653E-18    0.0000000000000000E+00
    0.2273179336307740E+01    0.0000000000000000E+00    0.4906150219227333E-01
    0.0000000000000000E+00    0.2760011084080653E-18    0.0000000000000000E+00
    0.5000000000000000E+01    0.0000000000000000E+00    0.2500000000000000E+01
    0.0000000000000000E+00    0.1250000000000000E+01    0.0000000000000000E+00
    0.5000000000000000E+01    0.0000000000000000E+00    0.2500000000000000E+01
    0.0000000000000000E+00    0.2500000000000000E+01    0.0000000000000000E+00
    0.5000000000000000E+01    0.0000000000000000E+00    0.2500000000000000E+01
    0.0000000000000000E+00    0.3750000000000000E+01    0.0000000000000000E+00
    0.5000000000000000E+01    0.0000000000000000E+00    0.2500000000000000E+01
    0.0000000000000000E+00    0.5000000000000000E+01    0.0000000000000000E+00
    0.3750000000000000E+01    0.0000000000000000E+00    0.2500000000000000E+01
    0.0000000000000000E+00    0.5000000000000000E+01    0.0000000000000000E+00
    0.2500000000000000E+01    0.0000000000000000E+00    0.2500000000000000E+01
    0.0000000000000000E+00    0.5000000000000000E+01    0.0000000000000000E+00
    0.1250000000000000E+01    0.0000000000000000E+00    0.2500000000000000E+01
    0.0000000000000000E+00    0.5000000000000000E+01    0.0000000000000000E+00
    0.2760011084080653E-18    0.0000000000000000E+00    0.2500000000000000E+01
    0.0000000000000000E+00    0.5000000000000000E+01    0.0000000000000000E+00
    0.2760011084080653E-18    0.0000000000000000E+00    0.2500000000000000E+01
    0.0000000000000000E+00    0.3750000000000000E+01    0.0000000000000000E+00
    0.2760011084080653E-18    0.0000000000000000E+00    0.2500000000000000E+01
    0.0000000000000000E+00    0.2500000000000000E+01    0.0000000000000000E+00
    0.2760011084080653E-18    0.0000000000000000E+00    0.2500000000000000E+01
    0.0000000000000000E+00    0.1250000000000000E+01    0.0000000000000000E+00
    0.9631080833812172E+00    0.0000000000000000E+00    0.2500000000000000E+01
    0.0000000000000000E+00    0.9613285771248219E+00    0.0000000000000000E+00
    0.3981732467264904E+01    0.0000000000000000E+00    0.2500000000000000E+01
    0.0000000000000000E+00    0.4069753913607991E+01    0.0000000000000000E+00
    0.4035525118777670E+01    0.0000000000000000E+00    0.2500000000000000E+01
    0.0000000000000000E+00    0.1012015867579395E+01    0.0000000000000000E+00
    0.9641717640894248E+00    0.0000000000000000E+00    0.2500000000000000E+01
    0.0000000000000000E+00    0.3972455192261839E+01    0.0000000000000000E+00
    0.1547743040396780E+01    0.0000000000000000E+00    0.2500000000000000E+01
    0.0000000000000000E+00    0.2928177746738678E+01    0.0000000000000000E+00
    0.6985170616192014E+00    0.0000000000000000E+00    0.2500000000000000E+01
    0.0000000000000000E+00    0.3068281976055466E+01    0.0000000000000000E+00
    0.8931277594515110E+00    0.0000000000000000E+00    0.2500000000000000E+01
    0.0000000000000000E+00    0.2052465503257726E+01    0.0000000000000000E+00
    0.2183293750162785E+01    0.0000000000000000E+00    0.2500000000000000E+01
    0.0000000000000000E+00    0.3959073795658649E+01    0.0000000000000000E+00
    0.3855333506014705E+01    0.0000000000000000E+00    0.2500000000000000E+01
    0.0000000000000000E+00    0.2931218481500625E+01    0.0000000000000000E+00
    0.3152495579421047E+01    0.0000000000000000E+00    0.2500000000000000E+01
    0.0000000000000000E+00    0.3635850502723324E+01    0.0000000000000000E+00
    0.3103247580566054E+01    0.0000000000000000E+00    0.2500000000000000E+01
    0.0000000000000000E+00    0.4331682712472464E+01    0.0000000000000000E+00
    0.3266837581688852E+01    0.0000000000000000E+00    0.2500000000000000E+01
    0.0000000000000000E+00    0.1886092433583972E+01    0.0000000000000000E+00
    0.4231539241296245E+01    0.0000000000000000E+00    0.2500000000000000E+01
    0.0000000000000000E+00    0.1915865356532799E+01    0.0000000000000000E+00
    0.1909741006522088E+01    0.0000000000000000E+00    0.2500000000000000E+01
    0.0000000000000000E+00    0.7170024419130505E+00    0.0000000000000000E+00
    0.2880784107213163E+01    0.0000000000000000E+00    0.2500000000000000E+01
    0.0000000000000000E+00    0.9046598906449592E+00    0.0000000000000000E+00
    0.2014316024535771E+01    0.0000000000000000E+00    0.2500000000000000E+01
    0.0000000000000000E+00    0.1762464314805728E+01    0.0000000000000000E+00
    0.2670003247036656E+01    0.0000000000000000E+00    0.2500000000000000E+01
    0.0000000000000000E+00    0.2850479545835163E+01    0.0000000000000000E+00
    0.5000000000000000E+01    0.0000000000000000E+00    0.1250000000000000E+01
    0.0000000000000000E+00    0.5000000000000000E+01    0.0000000000000000E+00
    0.5000000000000000E+01    0.0000000000000000E+00    0.2760011084080653E-18
[...]
POINT_DATA 213
SCALARS rho double 1
LOOKUP_TABLE default
   0.1344271449750182E+01
  -0.1928282735909459E-31
   0.9569758915553376E+00
  -0.2975550917690215E-32
   0.9462964200959076E+00
  -0.2740505838309757E-32
   0.9418612718928563E+00
  -0.3820724408756064E-32
   0.8437304900409535E+00
  -0.5453589999384572E-32
   0.7738004326021115E+00
  -0.5551253207944692E-32
   0.7629818923545162E+00
  -0.5640063534070789E-32
   0.7664577919363358E+00
  -0.5583744320892067E-32
   0.8307874046188981E+00
  -0.5444603857390931E-32
   0.9352972565159570E+00
  -0.3901335947837284E-32
   0.9342219822012734E+00
  -0.3069212169177943E-32
   0.9617195286396082E+00
  -0.3096015032288018E-32
   0.1449457451807605E+01
  -0.1164883923089876E-31
   0.1494090644662714E+01
  -0.1158715776680739E-31
   0.1644667277204173E+01
  -0.1495063609412161E-31
   0.1425832049575553E+01
  -0.1139475596017246E-31
   0.1009014435352247E+01
  -0.4175711699765993E-32
   0.9508810865006228E+00
  -0.3941506986729407E-32
   0.9436508501899389E+00
  -0.3978404955050482E-32
   0.9581561034484410E+00
  -0.2759093321960234E-32
   0.9415852462543761E+00
  -0.2397402946661826E-32
   0.1036377240648760E+01
  -0.4045715348794044E-32
   0.9256161101056302E+00
  -0.2282769029381856E-32
   0.9322349872514398E+00
  -0.2807208956403366E-32
   0.9537479579704222E+00
  -0.4006417275026981E-32
   0.9518769567196872E+00
  -0.3491712892530450E-32
   0.9348583129228439E+00
  -0.3481930778684369E-32
   0.9564028419902103E+00
  -0.3739259263464322E-32
   0.9376098403686677E+00
  -0.4071811500429554E-32
   0.9300661525860443E+00
  -0.2036829143232848E-32
   0.9445157493356157E+00
  -0.3138398875505417E-32
   0.8863506519304641E+00
  -0.2153642783786719E-32
   0.9423579969834130E+00
  -0.2963510207695080E-32
   0.9635003079921033E+00
  -0.1730808474362849E-32
   0.1008299039511912E+01
  -0.1425408576970844E-33
   0.1006735291839016E+01
   0.5375829771621975E-34
   0.1001964617623832E+01
  -0.1691037679316865E-33
   0.1003219581551884E+01
  -0.2755541314496356E-33
   0.1004132053992159E+01
  -0.3103921277403868E-33
   0.1005228602964919E+01
  -0.2754886932623244E-33
   0.1004260408276863E+01
  -0.2173246033554165E-33
   0.1008308190003037E+01
  -0.3337081246438981E-33
   0.1023893138001628E+01
  -0.7543519887359824E-33
   0.1063553956096204E+01
  -0.3298395993058262E-33
   0.1019182513304049E+01
  -0.2264986059408846E-32
   0.1001780766443437E+01
  -0.1587969251922847E-33
   0.9643309939204597E+00
  -0.2159056953461528E-32
   0.1005283709011389E+01
  -0.3199891039419858E-33
   0.1000721163302672E+01
  -0.2039911993961839E-33
   0.1008742083839902E+01
  -0.4310960412068435E-33
   0.1008078083670681E+01
  -0.1915857237253447E-33
   0.1002349807136925E+01
  -0.2883854544650433E-33
   0.9979986848188682E+00
  -0.6202313669216313E-34
   0.1000583560954853E+01
  -0.1500851463360061E-33
   0.1001620123677898E+01
  -0.2711392414931852E-33
   0.9826893073889390E+00
  -0.7000820043972852E-33
   0.9842439642575319E+00
  -0.7269247805207264E-33
   0.9833314037112092E+00
  -0.2330491981121146E-32
   0.9788207413061853E+00
  -0.2203379908871043E-32
   0.9902638161504494E+00
  -0.6302770736103941E-33
   0.9934561553250069E+00
  -0.1439043142065005E-33
   0.1002011751677771E+01
  -0.1565846239335789E-33
   0.1002134465686948E+01
  -0.1504768157444647E-33
   0.1002276326550651E+01
  -0.1465623568717354E-33
   0.1001794758391339E+01
  -0.1751476069957886E-33
   0.1009778638885413E+01
  -0.1191067411468573E-34
   0.1006429109017502E+01
  -0.3720887599572339E-35
   0.9558786961035028E+00
  -0.1098877547486223E-32
   0.9249398411695710E+00
  -0.2388763187760255E-32
   0.1007036755524024E+01
  -0.9884897655594793E-35
   0.1004504925174877E+01
  -0.7834545218221492E-35
   0.9143642077256221E+00
  -0.1658013716725434E-32
   0.9089667861105262E+00
  -0.1513740320220346E-32
   0.8751688903722683E+00
  -0.2639350098061867E-32
   0.9767271885714480E+00
  -0.7203953020724277E-33
   0.1000452621148908E+01
  -0.1075527549187896E-33
   0.1005831087460285E+01
   0.2623540729352523E-34
   0.1012882803225224E+01
   0.2235505941177065E-33
   0.1011618951276806E+01
   0.8360361479545858E-34
   0.1010438648581255E+01
   0.2406387218517297E-33
   0.1005468280913280E+01
  -0.1660506911549010E-34
   0.9907612680193851E+00
  -0.7345472291106733E-33
   0.1005140325681997E+01
   0.7815994777084724E-34
   0.9860567246293234E+00
  -0.1678517959253384E-33
   0.1005609737622694E+01
   0.1985097099051529E-33
   0.1004248005740175E+01
  -0.2229017367223036E-33
   0.1002888437724274E+01
  -0.2014680665987659E-33
   0.1003345420478464E+01
  -0.1914741987151824E-33
   0.1003992731903479E+01
  -0.1975114915931257E-33
   0.1005101716205729E+01
  -0.2631647325658436E-33
   0.1003211645199605E+01
  -0.2827008075743672E-33
   0.1002663160013483E+01
  -0.2403852819310415E-33
   0.1002586231472169E+01
  -0.2857397907051505E-33
   0.1004060870975029E+01
  -0.2192628246717080E-33
   0.1004320346069438E+01
  -0.2364985194052057E-33
   0.1001641920442108E+01
  -0.2822291040435717E-33
   0.1002273116038103E+01
  -0.2716077288459387E-33
   0.1002543475641194E+01
  -0.2618081177966670E-33
   0.1003469520871977E+01
  -0.3218506931384119E-33
   0.1003372640318011E+01
  -0.2771357402566297E-33
   0.1003232230073991E+01
  -0.2057991094459264E-33
   0.1004423863500628E+01
  -0.2792839403590804E-33
   0.1004313070891115E+01
  -0.2847440422633451E-33
   0.1003659849431757E+01
  -0.2017039407680874E-33
   0.1003723103982407E+01
  -0.2861914369251844E-33
   0.1004329726476607E+01
  -0.2949015057826685E-33
   0.1004465021926473E+01
  -0.3296461238895414E-33
   0.1003623375387111E+01
  -0.2971116183750870E-33
   0.1064422801050699E+01
  -0.3272023506176839E-33
   0.1028473621467183E+01
  -0.6739236267240715E-33
   0.1009586657364688E+01
  -0.3297565893308580E-33
   0.1006638837513463E+01
  -0.3140391355956611E-33
   0.1163935522449673E+01
  -0.1936456006648437E-32
   0.1086087969851714E+01
  -0.2072531770841210E-33
   0.1007893419313062E+01
  -0.3218977819841866E-33
   0.1007245533350528E+01
  -0.3110852289063981E-33
   0.1006798074183510E+01
  -0.2877635495187795E-33
   0.1013018287009748E+01
  -0.6515860373102270E-33
   0.1019384609577789E+01
  -0.6003454474981089E-33
   0.1235203670049664E+01
  -0.3625430486127268E-32
   0.1032529466771668E+01
  -0.3550658801086322E-33
   0.1046681191677587E+01
  -0.9425350080503879E-33
   0.1200953642609214E+01
  -0.2853997178143673E-32
   0.1014718916076710E+01
  -0.4712885878549349E-33
   0.1032291153305960E+01
  -0.8168047080777250E-33
   0.1028095236789671E+01
  -0.1073191091208196E-32
   0.1014628639880927E+01
  -0.5972451630819763E-33
   0.1029216893275057E+01
  -0.1371238074467827E-32
   0.1001994816403715E+01
  -0.1816128812761262E-33
   0.9606929197106802E+00
  -0.1520939008515436E-32
   0.1006852582841261E+01
  -0.3083656817367193E-33
   0.1001327193356230E+01
  -0.2359836056062734E-33
   0.1010821905420694E+01
  -0.3917818998544330E-33
   0.1012246098910489E+01
  -0.2928428652412435E-33
   0.1000946006966710E+01
  -0.2787340229975137E-33
   0.9979121234054469E+00
  -0.6394604475433987E-34
   0.9980632373041449E+00
  -0.1907327995007934E-33
   0.1001184143414436E+01
  -0.2494024869450195E-33
   0.9841362011963057E+00
  -0.3900706300434122E-33
   0.9814879615545136E+00
  -0.3992230940512956E-33
   0.9648483322370168E+00
  -0.1572614644735075E-32
   0.9680877129642960E+00
  -0.1608146791731659E-32
   0.9914124472212120E+00
  -0.4074918154296751E-33
   0.9910858388733198E+00
  -0.1515307702867290E-33
   0.9925545095931522E+00
  -0.7981760972320262E-35
   0.1001727533894392E+01
  -0.1968592805712832E-33
   0.9993409402184003E+00
  -0.2592897554763901E-34
   0.9941410835133583E+00
   0.3033318907646831E-34
   0.1007038753603809E+01
   0.7702996172668813E-34
   0.1022539494137114E+01
  -0.1780145575362236E-33
   0.1001088098525223E+01
  -0.3870788030124344E-33
   0.1008798496301346E+01
  -0.3739035069478244E-33
   0.1004773846126412E+01
  -0.3298453251986467E-33
   0.1009050237488259E+01
  -0.3968128221573083E-33
   0.9966470332397740E+00
  -0.2323679917552461E-33
   0.1004988557993260E+01
  -0.2497208246976518E-32
   0.1003325535215987E+01
  -0.2893228711143980E-33
   0.9949431085504644E+00
  -0.1048095536055191E-33
   0.9832680782005420E+00
  -0.2009554897509604E-33
   0.9943957454994263E+00
  -0.7612395399952372E-34
   0.9973420656290577E+00
  -0.4446165199908898E-34
   0.9932190085629433E+00
  -0.1585784758157569E-34
   0.1001306487169719E+01
  -0.2535184481250073E-33
   0.1003001636984000E+01
  -0.2796935025554173E-33
   0.1002183579663466E+01
  -0.2374891700381424E-33
   0.9947078544999142E+00
   0.7800076189871904E-34
   0.9937965521463242E+00
  -0.6994498683534150E-34
   0.1004867865562279E+01
  -0.3387397219473480E-33
   0.1020077607445936E+01
  -0.1930557993571022E-33
   0.1005364552430869E+01
  -0.2737391483988587E-33
   0.9816998152693485E+00
  -0.2023224404309395E-33
   0.1004973031274848E+01
  -0.2917573435311305E-33
   0.1012382323448547E+01
  -0.3713001656846760E-33
   0.9871424296255177E+00
  -0.1628244671844959E-32
   0.9551513534743895E+00
  -0.1127661435552151E-32
   0.9865075700346473E+00
  -0.2211838681337008E-33
   0.9864532950075658E+00
  -0.3388204086687967E-33
   0.9918946944284649E+00
  -0.1874188326458033E-32
   0.9933508198372867E+00
  -0.3729096804165518E-33
   0.9954406189970407E+00
  -0.1565351401067461E-32
   0.1037336789728439E+01
  -0.3394263789284274E-33
   0.1033536797990595E+01
  -0.1115525525761896E-32
   0.1001443320814550E+01
  -0.1341561527247698E-33
   0.1001930499797303E+01
  -0.2563381224127688E-33
   0.9912478515978024E+00
   0.1359207561285617E-35
   0.9910920509410774E+00
  -0.1051296855640425E-33
   0.9648489990836024E+00
  -0.7596127106070806E-33
   0.9933282604854832E+00
  -0.9676128679706925E-34
   0.1006058638637307E+01
  -0.1063917834562336E-34
   0.1001954027110565E+01
  -0.1681990253100998E-34
   0.9908735804765059E+00
  -0.1567822021938765E-33
   0.9740945214065758E+00
  -0.1142813368385038E-32
   0.9418802141957389E+00
  -0.2214245131823556E-32
   0.9819379692036646E+00
  -0.1186808621383394E-32
   0.9794803560690503E+00
  -0.1870959190995880E-33
   0.9704172061921295E+00
  -0.1362415611048536E-32
   0.9720478947062688E+00
  -0.1009894400113388E-32
   0.9557351702889216E+00
  -0.6648865414053535E-33
   0.9496731213610727E+00
  -0.1216948336086626E-32
   0.9528673572394057E+00
  -0.2014478110629597E-32
   0.1002659534063452E+01
  -0.3054613874881801E-33
   0.1002471631970974E+01
  -0.2888356849080442E-33
   0.1000509329298001E+01
  -0.1724215842330886E-33
   0.1001677321730963E+01
   0.3304834706143237E-34
   0.9607931434938084E+00
  -0.2070312769843415E-32
   0.9491625507087991E+00
  -0.2269353374676744E-32
   0.9584503069195320E+00
  -0.2025914245345823E-32
   0.1001121207785023E+01
  -0.2587312279340767E-33
   0.1000496140593597E+01
  -0.2081982749623302E-33
   0.1001156644177885E+01
  -0.6030277211248524E-34
   0.9807376183689177E+00
  -0.2102131749127052E-33
   0.9806000808946874E+00
  -0.9424154739717879E-33
   0.9628476109176162E+00
  -0.1659509099177545E-32
SCALARS u double 1
LOOKUP_TABLE default
   0.0000000000000000E+00
   0.0000000000000000E+00
   0.0000000000000000E+00
   0.0000000000000000E+00
   0.0000000000000000E+00
   0.0000000000000000E+00
   0.0000000000000000E+00
   0.0000000000000000E+00
   0.0000000000000000E+00
   0.0000000000000000E+00
   0.0000000000000000E+00
   0.0000000000000000E+00
   0.0000000000000000E+00
   0.0000000000000000E+00
   0.0000000000000000E+00
   0.0000000000000000E+00
   0.0000000000000000E+00
   0.0000000000000000E+00
   0.0000000000000000E+00
   0.0000000000000000E+00
   0.0000000000000000E+00
   0.0000000000000000E+00
   0.0000000000000000E+00
   0.0000000000000000E+00
   0.0000000000000000E+00
   0.0000000000000000E+00
   0.0000000000000000E+00
   0.0000000000000000E+00
   0.0000000000000000E+00
   0.0000000000000000E+00
   0.0000000000000000E+00
   0.0000000000000000E+00
   0.0000000000000000E+00
   0.0000000000000000E+00
   0.0000000000000000E+00
   0.0000000000000000E+00
   0.0000000000000000E+00
   0.0000000000000000E+00
   0.0000000000000000E+00
   0.0000000000000000E+00
   0.0000000000000000E+00
   0.0000000000000000E+00
   0.0000000000000000E+00
   0.0000000000000000E+00
   0.0000000000000000E+00
   0.0000000000000000E+00
   0.0000000000000000E+00
   0.0000000000000000E+00
   0.0000000000000000E+00
   0.0000000000000000E+00
   0.0000000000000000E+00
   0.0000000000000000E+00
   0.0000000000000000E+00
   0.0000000000000000E+00
   0.0000000000000000E+00
   0.0000000000000000E+00
   0.0000000000000000E+00
   0.0000000000000000E+00
   0.0000000000000000E+00
   0.0000000000000000E+00
   0.0000000000000000E+00
   0.0000000000000000E+00
   0.0000000000000000E+00
   0.0000000000000000E+00
   0.0000000000000000E+00
   0.0000000000000000E+00
   0.4950176835703052E+00
   0.1398291129109793E-32
   0.5338221300605306E+00
  -0.3133340734567560E-33
   0.5183269247791511E+00
  -0.3980685743027892E-33
   0.4930649880192750E+00
  -0.2504158505417830E-35
   0.4847578719332893E+00
   0.3238616532125382E-33
   0.4867666423653519E+00
   0.4273543362950946E-33
   0.4890763583300917E+00
   0.3949455283921145E-33
   0.4957848880329526E+00
   0.2355915737800564E-33
   0.4898301883790089E+00
   0.3623442731077036E-33
   0.4717388493441522E+00
   0.7149338723695956E-33
   0.4454814153587350E+00
   0.5933969840729194E-33
   0.4833907048923137E+00
  -0.1087405655529359E-32
   0.5098397462670703E+00
   0.6703387765910629E-35
   0.4390712699546498E+00
   0.1211985981383325E-32
   0.4949403964695978E+00
   0.3119793567670404E-33
   0.5225330362485409E+00
   0.1072917323180602E-33
   0.4962454545658530E+00
   0.3296973562643312E-33
   0.5226154963597839E+00
   0.1705268348488252E-33
   0.5038881743029435E+00
   0.2410072784464083E-33
   0.5646883609040221E+00
  -0.1996743176396269E-33
   0.5247509156866952E+00
   0.2238872863657115E-34
   0.4991466119501426E+00
   0.2343403369535374E-33
   0.5730561900933000E+00
  -0.4294649616222779E-35
   0.5696051096253441E+00
   0.2731007317740711E-33
   0.3737941449627635E+00
  -0.6392940298078125E-33
   0.3998658123888599E+00
   0.3242735324643724E-33
   0.5599326587320068E+00
  -0.3988244063765455E-33
   0.5564587630637219E+00
  -0.1069703572007604E-33
   0.4942627332975100E+00
  -0.2356396496451655E-34
   0.4948659466161610E+00
  -0.3603621076087249E-34
   0.4925735874286699E+00
  -0.4563376363188886E-34
   0.4914269544072239E+00
   0.4670342668667655E-35
   0.5162356851547860E+00
  -0.3098290147083560E-33
   0.5361798305996603E+00
  -0.3044484771520175E-33
   0.4947413356161654E+00
   0.9765678892842960E-33
   0.4524112203086075E+00
   0.1967067668202198E-32
   0.5128777326251583E+00
  -0.2782481719385056E-33
   0.5117942041098865E+00
  -0.2884425353237678E-33
   0.4783517503920865E+00
   0.1521968011935654E-32
   0.4931696655283799E+00
   0.1434989486123934E-32
   0.4603173591430899E+00
   0.2384122268274093E-32
   0.5244892719891533E+00
   0.5994909478235091E-33
   0.5297434248113100E+00
  -0.1149540120177034E-33
   0.5129579301457425E+00
  -0.3131249241138054E-33
   0.5328358320396505E+00
  -0.5322465590477551E-33
   0.5308941037924563E+00
  -0.4303193922864046E-33
   0.5309856171151749E+00
  -0.5572189683266686E-33
   0.5063656735877585E+00
  -0.2452666316486169E-33
   0.5282461954745448E+00
   0.3302591026706495E-33
   0.5410312730949749E+00
  -0.4711606839233553E-33
   0.5361261481086619E+00
   0.1359579627452719E-33
   0.5374105276950357E+00
  -0.4146468333644100E-33
   0.4965364818581571E+00
   0.2131725184530350E-33
   0.4975340903873425E+00
   0.1946055817100913E-33
   0.4963842644371573E+00
   0.2043638285973432E-33
   0.4955220267405979E+00
   0.2163797491690175E-33
   0.4904581830732188E+00
   0.3841347037747953E-33
   0.4903044384775864E+00
   0.4054434976327159E-33
   0.4862182763992254E+00
   0.2955681776780596E-33
   0.4854049561028918E+00
   0.2718485769590045E-33
   0.4932164387750166E+00
   0.3172842990406404E-33
   0.4909833312071516E+00
   0.3523625061849336E-33
   0.4832194696293118E+00
   0.2592965626206516E-33
   0.4872622776955319E+00
   0.2278152081904121E-33
   0.4880124909440706E+00
   0.1929082678422365E-33
   0.4872445931144350E+00
   0.3801660777282551E-33
   0.4882696668991785E+00
   0.3995991121838175E-33
   0.4952597556330110E+00
   0.2763191713136847E-33
   0.4900967167386313E+00
   0.4240639428779017E-33
   0.4904000090231433E+00
   0.4174386009045894E-33
   0.4944232925330947E+00
   0.3050202046270750E-33
   0.4868002480564693E+00
   0.3866458412541669E-33
   0.4892385983522651E+00
   0.4201435486077005E-33
   0.4881393369234510E+00
   0.4393905828529150E-33
   0.4878457828408817E+00
   0.3952703023192280E-33
   0.4446866579307660E+00
   0.4692303808650465E-33
   0.4700028779616818E+00
   0.6215979232947154E-33
   0.4891999056212482E+00
   0.3384717588929310E-33
   0.4885247843444321E+00
   0.3487380073830676E-33
   0.4506533042673947E+00
   0.1241485450412131E-32
   0.4687378565324211E+00
   0.4909708154937638E-33
   0.4877010456514727E+00
   0.3448021079962918E-33
   0.4868353683079787E+00
   0.3456940553080805E-33
   0.4908994715834261E+00
   0.2901703506698363E-33
   0.4793551576296785E+00
   0.5998995182397493E-33
   0.4658071746401745E+00
   0.6083670234303073E-33
   0.3792725225418827E+00
   0.1960466923328660E-32
   0.4901596530027755E+00
   0.2133136350866687E-33
   0.4486686689566483E+00
   0.7645120574879284E-33
   0.4436137388969923E+00
   0.1479951375838895E-32
   0.4845147240875902E+00
   0.4829895083935110E-33
   0.4621822644880402E+00
   0.7428565775672816E-33
   0.4665749534002636E+00
   0.7625598063131547E-33
   0.4748140298854403E+00
   0.5911559720992637E-33
   0.4894494216306591E+00
  -0.5099138504253255E-33
   0.5085556973424390E+00
  -0.4115088842831291E-35
   0.4315073868792255E+00
   0.1202765253533806E-32
   0.4927349360791424E+00
   0.3118919448928250E-33
   0.5318289234069751E+00
   0.1022453131197018E-34
   0.4913399195702620E+00
   0.3278218848647364E-33
   0.5207019993127412E+00
   0.1268919842697076E-33
   0.5060964599218043E+00
   0.2037701855654862E-33
   0.5688797395553089E+00
  -0.1510038084573623E-33
   0.5273992817885285E+00
  -0.1888330567254859E-35
   0.5015044841159930E+00
   0.2014109831963049E-33
   0.5821790085903791E+00
   0.2321339510022019E-33
   0.5689618251249910E+00
   0.3572805674024761E-33
   0.3406394441885656E+00
   0.1652754509155912E-33
   0.3789869409813023E+00
   0.6268658096696693E-33
   0.5751958207059770E+00
  -0.1594401125776197E-33
   0.5666485493442006E+00
  -0.1118799525330052E-33
   0.5704108783109851E+00
  -0.4886518247394064E-34
   0.5291056376122072E+00
   0.6199345648928737E-34
   0.5451902710932136E+00
   0.5563506574904871E-34
   0.5718804315148600E+00
  -0.3825929878520568E-34
   0.5389079125598439E+00
   0.2541855679015461E-33
   0.5475507504578900E+00
   0.1978886606106338E-33
   0.5821713868960826E+00
  -0.1946510143839942E-33
   0.4925601784132153E+00
   0.2852598681433316E-33
   0.5042157546030009E+00
   0.2404924104849936E-33
   0.4961735435792983E+00
   0.3344960765931120E-33
   0.5565207963003329E+00
  -0.2897562923793681E-33
   0.4758845213308644E+00
  -0.1583412276501082E-32
   0.4950268383155301E+00
   0.3164965988910609E-33
   0.5498525443359791E+00
  -0.2703550143466188E-34
   0.5891202296000831E+00
   0.1074992148241932E-33
   0.5841957609214528E+00
  -0.1448243879388784E-33
   0.5469097664634017E+00
  -0.5368696434651699E-34
   0.5805417617848166E+00
  -0.1151239074813725E-33
   0.5106251438259084E+00
   0.1791434987630889E-33
   0.5030200512792100E+00
   0.2601171673117501E-33
   0.5033624679818605E+00
   0.1692212924474253E-33
   0.5676446096787119E+00
  -0.2163222331782901E-33
   0.5563943082830264E+00
  -0.2582802146030348E-34
   0.4947255973013116E+00
   0.2990865900844219E-33
   0.5505243828696504E+00
  -0.5128562192765179E-34
   0.5510857281550438E+00