TITLE="fun3d_case_title"
VARIABLES="Iteration" "R_1" "R_2" "R_3" "R_4" "R_5" "C_L" "C_D" "C_M_x" "C_M_y" "C_M_z" "Wall Time" "C_x" "C_y" "C_z" "C_Lp" "C_Dp" "C_Lv" "C_Dv" "C_M_xp" "C_M_yp" "C_M_zp" "C_M_xv" "C_M_yv" "C_M_zv" "C_xp" "C_yp" "C_zp" "C_xv" "C_yv" "C_zv"
ZONE  I=100 F=POINT
1 -0.9927440686E-32 -0.4583850340E-32 -0.1617597716E-32 -0.1792687289E-32 -0.1969979264E-32  0.5700634099E-29 -0.3244280620E-30  0.1211266838E-29 -0.2234594495E-28  0.9175340013E-30  0.0000000000E+00 -0.3244280620E-30  0.4966689369E-31  0.5700634099E-29  0.5700714138E-29 -0.3257905175E-30 -0.8003962055E-34  0.1362455570E-32  0.1211318659E-29 -0.2234970206E-28  0.9176626892E-30 -0.5182114367E-34  0.3757116948E-32 -0.1286878513E-33 -0.3257905175E-30  0.4966161889E-31  0.5700714138E-29  0.1362455570E-32  0.5274804054E-35 -0.8003962055E-34
2 -0.8699292640E-32 -0.1076597500E-31 -0.3180643286E-32  0.6710692661E-32 -0.1063471700E-31  0.7098307331E-29 -0.2809748506E-30  0.3309634745E-32 -0.1760646234E-28  0.1355330826E-29  0.0000000000E+00 -0.2809748506E-30  0.1094135549E-30  0.7098307331E-29  0.7098404546E-29 -0.2823892805E-30 -0.9721491695E-34  0.1414429916E-32  0.3398061732E-32 -0.1761035279E-28  0.1355433947E-29 -0.8842698735E-34  0.3890452094E-32 -0.1031204252E-33 -0.2823892805E-30  0.1094059663E-30  0.7098404546E-29  0.1414429916E-32  0.7588577816E-35 -0.9721491695E-34
3 -0.3519662240E-32 -0.3356250745E-32 -0.1148858154E-32  0.2325476659E-32 -0.5820032593E-33  0.8549259599E-29 -0.2379863825E-30 -0.1501160623E-29 -0.1227469659E-28  0.1419863140E-29  0.0000000000E+00 -0.2379863825E-30  0.1160650855E-30  0.8549259599E-29  0.8549382481E-29 -0.2393436847E-30 -0.1228813224E-33  0.1357302200E-32 -0.1501077992E-29 -0.1227849227E-28  0.1419924267E-29 -0.8263043986E-34  0.3795675928E-32 -0.6112747498E-34 -0.2393436847E-30  0.1160605777E-30  0.8549382481E-29  0.1357302200E-32  0.4507777376E-35 -0.1228813224E-33
4 -0.2582298383E-33 -0.1777843174E-32 -0.1146211968E-32 -0.6746318488E-33 -0.1263880919E-33  0.8253355847E-29 -0.2120532943E-30 -0.2497352939E-29 -0.8714540974E-29  0.1380775986E-29  0.0000000000E+00 -0.2120532943E-30  0.1137806795E-30  0.8253355847E-29  0.8253518757E-29 -0.2133377226E-30 -0.1629098593E-33  0.1284428336E-32 -0.2497295306E-29 -0.8718265388E-29  0.1380796004E-29 -0.5763313431E-34  0.3724414066E-32 -0.2001812923E-34 -0.2133377226E-30  0.1137768534E-30  0.8253518757E-29  0.1284428336E-32  0.3826097984E-35 -0.1629098593E-33
5  0.1453243381E-33 -0.1333806965E-32 -0.6564484215E-33 -0.9857274765E-33 -0.2556184235E-33  0.6911294164E-29 -0.1992430009E-30 -0.2654722189E-29 -0.5847932162E-29  0.1326402724E-29  0.0000000000E+00 -0.1992430009E-30  0.1103578355E-30  0.6911294164E-29  0.6911468628E-29 -0.2004814234E-30 -0.1744645569E-33  0.1238422513E-32 -0.2654694262E-29 -0.5851575936E-29  0.1326389416E-29 -0.2792679821E-34  0.3643773751E-32  0.1330803385E-34 -0.2004814234E-30  0.1103527042E-30  0.6911468628E-29  0.1238422513E-32  0.5131251187E-35 -0.1744645569E-33
6 -0.3845878799E-33 -0.1485414474E-32 -0.3111662073E-33 -0.5640088145E-33 -0.1063826880E-32  0.6001460529E-29 -0.1924199540E-30 -0.2261486417E-29 -0.4744333164E-29  0.1299245033E-29  0.0000000000E+00 -0.1924199540E-30  0.1111217763E-30  0.6001460529E-29  0.6001621946E-29 -0.1936522663E-30 -0.1614169285E-33  0.1232312265E-32 -0.2261474500E-29 -0.4747892557E-29  0.1299210129E-29 -0.1191690198E-34  0.3559393102E-32  0.3490427138E-34 -0.1936522663E-30  0.1111140785E-30  0.6001621946E-29  0.1232312265E-32  0.7697787793E-35 -0.1614169285E-33
7 -0.3572774224E-33 -0.1306325969E-32 -0.2291725971E-33 -0.4548774582E-33 -0.1205340151E-32  0.5636511881E-29 -0.1886081641E-30 -0.1762462747E-29 -0.4521119040E-29  0.1291822953E-29  0.0000000000E+00 -0.1886081641E-30  0.1123214115E-30  0.5636511881E-29  0.5636656675E-29 -0.1898507705E-30 -0.1447935707E-33  0.1242606360E-32 -0.1762452529E-29 -0.4524612065E-29  0.1291773659E-29 -0.1021743665E-34  0.3493024637E-32  0.4929399110E-34 -0.1898507705E-30  0.1123106588E-30  0.5636656675E-29  0.1242606360E-32  0.1075261847E-34 -0.1447935707E-33
8 -0.1530814033E-33 -0.9578122173E-33 -0.2091122550E-33 -0.3756267322E-33 -0.7460537924E-33  0.5660881234E-29 -0.1856511231E-30 -0.1433064223E-29 -0.4812989202E-29  0.1293493769E-29  0.0000000000E+00 -0.1856511231E-30  0.1128095404E-30  0.5660881234E-29  0.5661017192E-29 -0.1869068615E-30 -0.1359570811E-33  0.1255738396E-32 -0.1433047923E-29 -0.4816445947E-29  0.1293434461E-29 -0.1630019351E-34  0.3456744927E-32  0.5930789961E-34 -0.1869068615E-30  0.1127959247E-30  0.5661017192E-29  0.1255738396E-32  0.1361574388E-34 -0.1359570811E-33
9 -0.6574338706E-34 -0.6387996322E-33 -0.1733865664E-33 -0.3167933134E-33 -0.4234837382E-33  0.5771734288E-29 -0.1832868467E-30 -0.1329385524E-29 -0.5079353469E-29  0.1296337136E-29  0.0000000000E+00 -0.1832868467E-30  0.1124083035E-30  0.5771734288E-29  0.5771868270E-29 -0.1845515894E-30 -0.1339824400E-33  0.1264742714E-32 -0.1329362526E-29 -0.5082794435E-29  0.1296271447E-29 -0.2299826786E-34  0.3440965882E-32  0.6568909179E-34 -0.1845515894E-30  0.1123928630E-30  0.5771868270E-29  0.1264742714E-32  0.1544058197E-34 -0.1339824400E-33
10 -0.6188239273E-34 -0.4269918071E-33 -0.1234521920E-33 -0.2314174017E-33 -0.2570509076E-33  0.5848683088E-29 -0.1814420489E-30 -0.1343404385E-29 -0.5208471852E-29  0.1298195959E-29  0.0000000000E+00 -0.1814420489E-30  0.1117100575E-30  0.5848683088E-29  0.5848818048E-29 -0.1827117273E-30 -0.1349602204E-33  0.1269678404E-32 -0.1343377729E-29 -0.5211906826E-29  0.1298126522E-29 -0.2665661466E-34  0.3434973864E-32  0.6943631582E-34 -0.1827117273E-30  0.1116935085E-30  0.5848818048E-29  0.1269678404E-32  0.1654898923E-34 -0.1349602204E-33
11 -0.5665843464E-34 -0.2977945537E-33 -0.7877699367E-34 -0.1533293266E-33 -0.1801630780E-33  0.5855319055E-29 -0.1801827827E-30 -0.1385183893E-29 -0.5172660706E-29  0.1298825421E-29  0.0000000000E+00 -0.1801827827E-30  0.1110779181E-30  0.5855319055E-29  0.5855455327E-29 -0.1814542751E-30 -0.1362722194E-33  0.1271492380E-32 -0.1385156167E-29 -0.5176092816E-29  0.1298753749E-29 -0.2772598444E-34  0.3432109752E-32  0.7167183351E-34 -0.1814542751E-30  0.1110607220E-30  0.5855455327E-29  0.1271492380E-32  0.1719605845E-34 -0.1362722194E-33
12 -0.4527377437E-34 -0.2127765360E-33 -0.5360966243E-34 -0.1212000271E-33 -0.1222332144E-33  0.5826343797E-29 -0.1793904253E-30 -0.1409965014E-29 -0.5075308457E-29  0.1298823483E-29  0.0000000000E+00 -0.1793904253E-30  0.1106576141E-30  0.5826343797E-29  0.5826480850E-29 -0.1806625146E-30 -0.1370523797E-33  0.1272089274E-32 -0.1409937342E-29 -0.5078738432E-29  0.1298750542E-29 -0.2767235268E-34  0.3429975109E-32  0.7294080513E-34 -0.1806625146E-30  0.1106400344E-30  0.5826480850E-29  0.1272089274E-32  0.1757965732E-34 -0.1370523797E-33
13 -0.3178583197E-34 -0.1471456864E-33 -0.3955024889E-34 -0.8371870235E-34 -0.7628587339E-34  0.5801107703E-29 -0.1789343395E-30 -0.1413793509E-29 -0.5001064495E-29  0.1298576694E-29  0.0000000000E+00 -0.1789343395E-30  0.1104177301E-30  0.5801107703E-29  0.5801244832E-29 -0.1802069426E-30 -0.1371283280E-33  0.1272603074E-32 -0.1413766046E-29 -0.5004492160E-29  0.1298503131E-29 -0.2746343419E-34  0.3427664752E-32  0.7356296012E-34 -0.1802069426E-30  0.1103999204E-30  0.5801244832E-29  0.1272603074E-32  0.1780974839E-34 -0.1371283280E-33
14 -0.2161850629E-34 -0.9807668279E-34 -0.2965900868E-34 -0.6032703902E-34 -0.4312472902E-34  0.5786100622E-29 -0.1786818768E-30 -0.1405650293E-29 -0.4958602904E-29  0.1298250106E-29  0.0000000000E+00 -0.1786818768E-30  0.1102782504E-30  0.5786100622E-29  0.5786237592E-29 -0.1799550440E-30 -0.1369704855E-33  0.1273167227E-32 -0.1405622853E-29 -0.4962028724E-29  0.1298176076E-29 -0.2743991179E-34  0.3425820713E-32  0.7402988165E-34 -0.1799550440E-30  0.1102602248E-30  0.5786237592E-29  0.1273167227E-32  0.1802553607E-34 -0.1369704855E-33
15 -0.1429858179E-34 -0.6161459441E-34 -0.2109359461E-34 -0.4313001387E-34 -0.2109704317E-34  0.5778423181E-29 -0.1785436385E-30 -0.1396612415E-29 -0.4935627059E-29  0.1297924071E-29  0.0000000000E+00 -0.1785436385E-30  0.1101875278E-30  0.5778423181E-29  0.5778559990E-29 -0.1798173003E-30 -0.1368093303E-33  0.1273661767E-32 -0.1396584838E-29 -0.4939051676E-29  0.1297849529E-29 -0.2757724131E-34  0.3424616702E-32  0.7454190401E-34 -0.1798173003E-30  0.1101692758E-30  0.5778559990E-29  0.1273661767E-32  0.1825205591E-34 -0.1368093303E-33
16 -0.9833774444E-35 -0.3612947369E-34 -0.1420589240E-34 -0.3006039068E-34 -0.7612847704E-35  0.5774468390E-29 -0.1784646827E-30 -0.1391283604E-29 -0.4921851810E-29  0.1297641365E-29  0.0000000000E+00 -0.1784646827E-30  0.1101220138E-30  0.5774468390E-29  0.5774605109E-29 -0.1797386811E-30 -0.1367187126E-33  0.1273998383E-32 -0.1391255853E-29 -0.4925275778E-29  0.1297566306E-29 -0.2775118840E-34  0.3423967706E-32  0.7505952396E-34 -0.1797386811E-30  0.1101035535E-30  0.5774605109E-29  0.1273998383E-32  0.1846036279E-34 -0.1367187126E-33
17 -0.6555809836E-35 -0.1978755263E-34 -0.9351864519E-35 -0.2026887538E-34 -0.1966345771E-36  0.5771858195E-29 -0.1784182412E-30 -0.1389452188E-29 -0.4911658109E-29  0.1297418411E-29  0.0000000000E+00 -0.1784182412E-30  0.1100736866E-30  0.5771858195E-29  0.5771994880E-29 -0.1796924085E-30 -0.1366842001E-33  0.1274167286E-32 -0.1389424308E-29 -0.4915081773E-29  0.1297342901E-29 -0.2788051750E-34  0.3423663736E-32  0.7550987260E-34 -0.1796924085E-30  0.1100550590E-30  0.5771994880E-29  0.1274167286E-32  0.1862753180E-34 -0.1366842001E-33
18 -0.4370453014E-35 -0.1044082534E-34 -0.6206121508E-35 -0.1309427374E-34  0.2908215963E-35  0.5769771928E-29 -0.1783902204E-30 -0.1389414473E-29 -0.4903517317E-29  0.1297256925E-29  0.0000000000E+00 -0.1783902204E-30  0.1100398492E-30  0.5769771928E-29  0.5769908604E-29 -0.1796644332E-30 -0.1366759845E-33  0.1274212776E-32 -0.1389386523E-29 -0.4906940846E-29  0.1297181064E-29 -0.2794980252E-34  0.3423528768E-32  0.7586048345E-34 -0.1796644332E-30  0.1100210992E-30  0.5769908604E-29  0.1274212776E-32  0.1875008117E-34 -0.1366759845E-33
19 -0.2855202481E-35 -0.5629693225E-35 -0.4161769201E-35 -0.8114573923E-35  0.3151527414E-35  0.5768112302E-29 -0.1783736578E-30 -0.1389832871E-29 -0.4897392458E-29  0.1297148396E-29  0.0000000000E+00 -0.1783736578E-30  0.1100181218E-30  0.5768112302E-29  0.5768248977E-29 -0.1796478489E-30 -0.1366750207E-33  0.1274191165E-32 -0.1389804894E-29 -0.4900815919E-29  0.1297072281E-29 -0.2797699164E-34  0.3423461241E-32  0.7611454801E-34 -0.1796478489E-30  0.1099992867E-30  0.5768248977E-29  0.1274191165E-32  0.1883510692E-34 -0.1366750207E-33
20 -0.1916029181E-35 -0.3418880915E-35 -0.2762600449E-35 -0.4880433510E-35  0.2080525103E-35  0.5766933499E-29 -0.1783641157E-30 -0.1390114907E-29 -0.4893334089E-29  0.1297079951E-29  0.0000000000E+00 -0.1783641157E-30  0.1100053715E-30  0.5766933499E-29  0.5767070174E-29 -0.1796382613E-30 -0.1366745323E-33  0.1274145603E-32 -0.1390086923E-29 -0.4896757508E-29  0.1297003661E-29 -0.2798442915E-34  0.3423419397E-32  0.7629006303E-34 -0.1796382613E-30  0.1099864792E-30  0.5767070174E-29  0.1274145603E-32  0.1889227323E-34 -0.1366745323E-33
21 -0.1348340126E-35 -0.2516986719E-35 -0.1766955836E-35 -0.2912638643E-35  0.6909562131E-36  0.5766192224E-29 -0.1783588118E-30 -0.1390161678E-29 -0.4890986971E-29  0.1297038779E-29  0.0000000000E+00 -0.1783588118E-30  0.1099984706E-30  0.5766192224E-29  0.5766328897E-29 -0.1796329117E-30 -0.1366734285E-33  0.1274099935E-32 -0.1390133692E-29 -0.4894410361E-29  0.1296962371E-29 -0.2798614755E-34  0.3423390319E-32  0.7640738227E-34 -0.1796329117E-30  0.1099795405E-30  0.5766328897E-29  0.1274099935E-32  0.1893015108E-34 -0.1366734285E-33
22 -0.1025587605E-35 -0.2180893052E-35 -0.1076879601E-35 -0.1772620496E-35 -0.3714974909E-36  0.5765774393E-29 -0.1783558956E-30 -0.1390064058E-29 -0.4889798866E-29  0.1297014593E-29  0.0000000000E+00 -0.1783558956E-30  0.1099949024E-30  0.5765774393E-29  0.5765911066E-29 -0.1796299586E-30 -0.1366722634E-33  0.1274063063E-32 -0.1390036070E-29 -0.4893222237E-29  0.1296938109E-29 -0.2798760847E-34  0.3423371007E-32  0.7648389741E-34 -0.1796299586E-30  0.1099759472E-30  0.5765911066E-29  0.1274063063E-32  0.1895526994E-34 -0.1366722634E-33
23 -0.8250891075E-36 -0.2003387364E-35 -0.6335926783E-36 -0.1119276488E-35 -0.9640732424E-36  0.5765555909E-29 -0.1783542786E-30 -0.1389924708E-29 -0.4889258243E-29  0.1297000264E-29  0.0000000000E+00 -0.1783542786E-30  0.1099930054E-30  0.5765555909E-29  0.5765692581E-29 -0.1796283143E-30 -0.1366714759E-33  0.1274035683E-32 -0.1389896718E-29 -0.4892681603E-29  0.1296923731E-29 -0.2798953090E-34  0.3423359737E-32  0.7653301929E-34 -0.1796283143E-30  0.1099740332E-30  0.5765692581E-29  0.1274035683E-32  0.1897220185E-34 -0.1366714759E-33
24 -0.6851241431E-36 -0.1804177502E-35 -0.3763348601E-36 -0.7240602055E-36 -0.1156826502E-35  0.5765443643E-29 -0.1783533336E-30 -0.1389801675E-29 -0.4889019267E-29  0.1296991417E-29  0.0000000000E+00 -0.1783533336E-30  0.1099918550E-30  0.5765443643E-29  0.5765580315E-29 -0.1796273492E-30 -0.1366712153E-33  0.1274015620E-32 -0.1389773684E-29 -0.4892442621E-29  0.1296914852E-29 -0.2799124792E-34  0.3423354510E-32  0.7656435586E-34 -0.1796273492E-30  0.1099728711E-30  0.5765580315E-29  0.1274015620E-32  0.1898394822E-34 -0.1366712153E-33
25 -0.5684741316E-36 -0.1544135973E-35 -0.2386453024E-36 -0.4705465599E-36 -0.1100085671E-35  0.5765380810E-29 -0.1783527427E-30 -0.1389712964E-29 -0.4888895397E-29  0.1296985622E-29  0.0000000000E+00 -0.1783527427E-30  0.1099910279E-30  0.5765380810E-29  0.5765517482E-29 -0.1796267433E-30 -0.1366713839E-33  0.1274000596E-32 -0.1389684972E-29 -0.4892318750E-29  0.1296909037E-29 -0.2799225910E-34  0.3423353104E-32  0.7658445976E-34 -0.1796267433E-30  0.1099720355E-30  0.5765517482E-29  0.1274000596E-32  0.1899236995E-34 -0.1366713839E-33
26 -0.4610996007E-36 -0.1253252076E-35 -0.1649474016E-36 -0.3118505125E-36 -0.9222254553E-36  0.5765339344E-29 -0.1783523496E-30 -0.1389655910E-29 -0.4888809187E-29  0.1296981639E-29  0.0000000000E+00 -0.1783523496E-30  0.1099903744E-30  0.5765339344E-29  0.5765476016E-29 -0.1796263387E-30 -0.1366717908E-33  0.1273989118E-32 -0.1389627918E-29 -0.4892232540E-29  0.1296905042E-29 -0.2799254007E-34  0.3423353616E-32  0.7659755281E-34 -0.1796263387E-30  0.1099713758E-30  0.5765476016E-29  0.1273989118E-32  0.1899856547E-34 -0.1366717908E-33
27 -0.3617145189E-36 -0.9742807035E-36 -0.1205202397E-36 -0.2202165187E-36 -0.7153944721E-36  0.5765308007E-29 -0.1783520842E-30 -0.1389621688E-29 -0.4888738126E-29  0.1296978852E-29  0.0000000000E+00 -0.1783520842E-30  0.1099898589E-30  0.5765308007E-29  0.5765444680E-29 -0.1796260646E-30 -0.1366722534E-33  0.1273980376E-32 -0.1389593695E-29 -0.4892161481E-29  0.1296902245E-29 -0.2799234273E-34  0.3423354727E-32  0.7660621737E-34 -0.1796260646E-30  0.1099708557E-30  0.5765444680E-29  0.1273980376E-32  0.1900316834E-34 -0.1366722534E-33
28 -0.2758392497E-36 -0.7357274520E-36 -0.8959271336E-37 -0.1676974564E-36 -0.5310239679E-36  0.5765283415E-29 -0.1783519110E-30 -0.1389602144E-29 -0.4888679649E-29  0.1296976918E-29  0.0000000000E+00 -0.1783519110E-30  0.1099894728E-30  0.5765283415E-29  0.5765420088E-29 -0.1796258849E-30 -0.1366726617E-33  0.1273973883E-32 -0.1389574152E-29 -0.4892103005E-29  0.1296900306E-29 -0.2799196081E-34  0.3423355756E-32  0.7661196406E-34 -0.1796258849E-30  0.1099704662E-30  0.5765420088E-29  0.1273973883E-32  0.1900655795E-34 -0.1366726617E-33
29 -0.2073952381E-36 -0.5470038655E-36 -0.6682885393E-37 -0.1324698040E-36 -0.3885188895E-36  0.5765264561E-29 -0.1783518082E-30 -0.1389591638E-29 -0.4888633937E-29  0.1296975605E-29  0.0000000000E+00 -0.1783518082E-30  0.1099892007E-30  0.5765264561E-29  0.5765401234E-29 -0.1796257774E-30 -0.1366729800E-33  0.1273969224E-32 -0.1389563647E-29 -0.4892057293E-29  0.1296898989E-29 -0.2799160255E-34  0.3423356492E-32  0.7661567467E-34 -0.1796257774E-30  0.1099701917E-30  0.5765401234E-29  0.1273969224E-32  0.1900899065E-34 -0.1366729800E-33
30 -0.1559880508E-36 -0.4043923609E-36 -0.5044293359E-37 -0.1040627710E-36 -0.2863742709E-36  0.5765250636E-29 -0.1783517573E-30 -0.1389586738E-29 -0.4888599307E-29  0.1296974728E-29  0.0000000000E+00 -0.1783517573E-30  0.1099890171E-30  0.5765250636E-29  0.5765387310E-29 -0.1796257233E-30 -0.1366732189E-33  0.1273965978E-32 -0.1389558747E-29 -0.4892022664E-29  0.1296898110E-29 -0.2799136523E-34  0.3423356974E-32  0.7661789863E-34 -0.1796257233E-30  0.1099700064E-30  0.5765387310E-29  0.1273965978E-32  0.1901066862E-34 -0.1366732189E-33
31 -0.1182279861E-36 -0.2986362306E-36 -0.3906700041E-37 -0.8017857489E-37 -0.2146825508E-36  0.5765240524E-29 -0.1783517423E-30 -0.1389585388E-29 -0.4888572657E-29  0.1296974137E-29  0.0000000000E+00 -0.1783517423E-30  0.1099888940E-30  0.5765240524E-29  0.5765377197E-29 -0.1796257060E-30 -0.1366734039E-33  0.1273963747E-32 -0.1389557397E-29 -0.4891996014E-29  0.1296897518E-29 -0.2799126316E-34  0.3423357315E-32  0.7661902810E-34 -0.1796257060E-30  0.1099698822E-30  0.5765377197E-29  0.1273963747E-32  0.1901176819E-34 -0.1366734039E-33
32 -0.9029981500E-37 -0.2202171123E-36 -0.3125698913E-37 -0.6121018580E-37 -0.1631784951E-36  0.5765233108E-29 -0.1783517490E-30 -0.1389586267E-29 -0.4888551280E-29  0.1296973723E-29  0.0000000000E+00 -0.1783517490E-30  0.1099888077E-30  0.5765233108E-29  0.5765369781E-29 -0.1796257112E-30 -0.1366735551E-33  0.1273962204E-32 -0.1389558276E-29 -0.4891974638E-29  0.1296897104E-29 -0.2799126547E-34  0.3423357597E-32  0.7661937880E-34 -0.1796257112E-30  0.1099697953E-30  0.5765369781E-29  0.1273962204E-32  0.1901244512E-34 -0.1366735551E-33
33 -0.6922115181E-37 -0.1616693062E-36 -0.2574905110E-37 -0.4708698569E-37 -0.1247360723E-36  0.5765227503E-29 -0.1783517667E-30 -0.1389588410E-29 -0.4888533539E-29  0.1296973417E-29  0.0000000000E+00 -0.1783517667E-30  0.1099887427E-30  0.5765227503E-29  0.5765364177E-29 -0.1796257278E-30 -0.1366736821E-33  0.1273961112E-32 -0.1389560419E-29 -0.4891956897E-29  0.1296896798E-29 -0.2799132876E-34  0.3423357853E-32  0.7661921713E-34 -0.1796257278E-30  0.1099697299E-30  0.5765364177E-29  0.1273961112E-32  0.1901283182E-34 -0.1366736821E-33
34 -0.5303302441E-37 -0.1178115683E-36 -0.2164093498E-37 -0.3675751942E-37 -0.9512132441E-37  0.5765223139E-29 -0.1783517880E-30 -0.1389591093E-29 -0.4888518749E-29  0.1296973180E-29  0.0000000000E+00 -0.1783517880E-30  0.1099886907E-30  0.5765223139E-29  0.5765359813E-29 -0.1796257483E-30 -0.1366737875E-33  0.1273960324E-32 -0.1389563101E-29 -0.4891942107E-29  0.1296896561E-29 -0.2799141578E-34  0.3423358083E-32  0.7661876182E-34 -0.1796257483E-30  0.1099696776E-30  0.5765359813E-29  0.1273960324E-32  0.1901303357E-34 -0.1366737875E-33
35 -0.4049672903E-37 -0.8512086111E-37 -0.1833993275E-37 -0.2890100518E-37 -0.7205893548E-37  0.5765219689E-29 -0.1783518084E-30 -0.1389593808E-29 -0.4888506679E-29  0.1296972992E-29  0.0000000000E+00 -0.1783518084E-30  0.1099886480E-30  0.5765219689E-29  0.5765356363E-29 -0.1796257681E-30 -0.1366738717E-33  0.1273959749E-32 -0.1389565816E-29 -0.4891930037E-29  0.1296896374E-29 -0.2799150220E-34  0.3423358276E-32  0.7661817945E-34 -0.1796257681E-30  0.1099696349E-30  0.5765356363E-29  0.1273959749E-32  0.1901312744E-34 -0.1366738717E-33
36 -0.3080756046E-37 -0.6103518501E-37 -0.1547929900E-37 -0.2258513401E-37 -0.5420859162E-37  0.5765216971E-29 -0.1783518257E-30 -0.1389596256E-29 -0.4888497139E-29  0.1296972845E-29  0.0000000000E+00 -0.1783518257E-30  0.1099886135E-30  0.5765216971E-29  0.5765353645E-29 -0.1796257850E-30 -0.1366739360E-33  0.1273959332E-32 -0.1389568265E-29 -0.4891920498E-29  0.1296896228E-29 -0.2799157606E-34  0.3423358428E-32  0.7661758383E-34 -0.1796257850E-30  0.1099696004E-30  0.5765353645E-29  0.1273959332E-32  0.1901316486E-34 -0.1366739360E-33
37 -0.2338058418E-37 -0.4352765056E-37 -0.1287696298E-37 -0.1738899444E-37 -0.4057622642E-37  0.5765214853E-29 -0.1783518394E-30 -0.1389598313E-29 -0.4888489804E-29  0.1296972733E-29  0.0000000000E+00 -0.1783518394E-30  0.1099885865E-30  0.5765214853E-29  0.5765351527E-29 -0.1796257984E-30 -0.1366739835E-33  0.1273959035E-32 -0.1389570322E-29 -0.4891913163E-29  0.1296896116E-29 -0.2799163407E-34  0.3423358539E-32  0.7661704174E-34 -0.1796257984E-30  0.1099695733E-30  0.5765351527E-29  0.1273959035E-32  0.1901317664E-34 -0.1366739835E-33
38 -0.1773329855E-37 -0.3094177022E-37 -0.1049479434E-37 -0.1318053330E-37 -0.3027456747E-37  0.5765213219E-29 -0.1783518497E-30 -0.1389599970E-29 -0.4888484239E-29  0.1296972650E-29  0.0000000000E+00 -0.1783518497E-30  0.1099885661E-30  0.5765213219E-29  0.5765349893E-29 -0.1796258085E-30 -0.1366740180E-33  0.1273958826E-32 -0.1389571978E-29 -0.4891907597E-29  0.1296896034E-29 -0.2799167765E-34  0.3423358620E-32  0.7661658343E-34 -0.1796258085E-30  0.1099695529E-30  0.5765349893E-29  0.1273958826E-32  0.1901317894E-34 -0.1366740180E-33
39 -0.1345139027E-37 -0.2195449887E-37 -0.8371344573E-38 -0.9877805586E-38 -0.2251788486E-37  0.5765211961E-29 -0.1783518572E-30 -0.1389601278E-29 -0.4888479998E-29  0.1296972590E-29  0.0000000000E+00 -0.1783518572E-30  0.1099885511E-30  0.5765211961E-29  0.5765348635E-29 -0.1796258159E-30 -0.1366740433E-33  0.1273958681E-32 -0.1389573286E-29 -0.4891903356E-29  0.1296895974E-29 -0.2799170991E-34  0.3423358678E-32  0.7661621464E-34 -0.1796258159E-30  0.1099695379E-30  0.5765348635E-29  0.1273958681E-32  0.1901317886E-34 -0.1366740433E-33
40 -0.1019602772E-37 -0.1555758826E-37 -0.6553020623E-38 -0.7350311678E-38 -0.1667379805E-37  0.5765210984E-29 -0.1783518626E-30 -0.1389602309E-29 -0.4888476713E-29  0.1296972548E-29  0.0000000000E+00 -0.1783518626E-30  0.1099885402E-30  0.5765210984E-29  0.5765347658E-29 -0.1796258212E-30 -0.1366740623E-33  0.1273958579E-32 -0.1389574317E-29 -0.4891900071E-29  0.1296895932E-29 -0.2799173402E-34  0.3423358723E-32  0.7661592731E-34 -0.1796258212E-30  0.1099695271E-30  0.5765347658E-29  0.1273958579E-32  0.1901317867E-34 -0.1366740623E-33
41 -0.7710196679E-38 -0.1101454393E-37 -0.5055463402E-38 -0.5435090111E-38 -0.1227588647E-37  0.5765210217E-29 -0.1783518665E-30 -0.1389603126E-29 -0.4888474123E-29  0.1296972518E-29  0.0000000000E+00 -0.1783518665E-30  0.1099885324E-30  0.5765210217E-29  0.5765346891E-29 -0.1796258250E-30 -0.1366740768E-33  0.1273958507E-32 -0.1389575134E-29 -0.4891897482E-29  0.1296895902E-29 -0.2799175242E-34  0.3423358757E-32  0.7661570767E-34 -0.1796258250E-30  0.1099695192E-30  0.5765346891E-29  0.1273958507E-32  0.1901317860E-34 -0.1366740768E-33
42 -0.5808647105E-38 -0.7798910188E-38 -0.3859428217E-38 -0.3983192884E-38 -0.8987455063E-38  0.5765209610E-29 -0.1783518694E-30 -0.1389603777E-29 -0.4888472064E-29  0.1296972496E-29  0.0000000000E+00 -0.1783518694E-30  0.1099885267E-30  0.5765209610E-29  0.5765346284E-29 -0.1796258278E-30 -0.1366740881E-33  0.1273958455E-32 -0.1389575786E-29 -0.4891895423E-29  0.1296895881E-29 -0.2799176680E-34  0.3423358784E-32  0.7661554122E-34 -0.1796258278E-30  0.1099695135E-30  0.5765346284E-29  0.1273958455E-32  0.1901317834E-34 -0.1366740881E-33
43 -0.4357887698E-38 -0.5533421447E-38 -0.2924513820E-38 -0.2883382596E-38 -0.6555188897E-38  0.5765209128E-29 -0.1783518715E-30 -0.1389604298E-29 -0.4888470431E-29  0.1296972480E-29  0.0000000000E+00 -0.1783518715E-30  0.1099885224E-30  0.5765209128E-29  0.5765345802E-29 -0.1796258299E-30 -0.1366740968E-33  0.1273958418E-32 -0.1389576307E-29 -0.4891893789E-29  0.1296895865E-29 -0.2799177822E-34  0.3423358805E-32  0.7661541528E-34 -0.1796258299E-30  0.1099695092E-30  0.5765345802E-29  0.1273958418E-32  0.1901317765E-34 -0.1366740968E-33
44 -0.3257936508E-38 -0.3943948045E-38 -0.2204117487E-38 -0.2058665510E-38 -0.4776243264E-38  0.5765208749E-29 -0.1783518731E-30 -0.1389604713E-29 -0.4888469150E-29  0.1296972468E-29  0.0000000000E+00 -0.1783518731E-30  0.1099885192E-30  0.5765208749E-29  0.5765345423E-29 -0.1796258315E-30 -0.1366741034E-33  0.1273958390E-32 -0.1389576722E-29 -0.4891892509E-29  0.1296895853E-29 -0.2799178735E-34  0.3423358821E-32  0.7661531975E-34 -0.1796258315E-30  0.1099695060E-30  0.5765345423E-29  0.1273958390E-32  0.1901317651E-34 -0.1366741034E-33
45 -0.2430047884E-38 -0.2829816236E-38 -0.1654514529E-38 -0.1452464855E-38 -0.3484991780E-38  0.5765208454E-29 -0.1783518743E-30 -0.1389605041E-29 -0.4888468163E-29  0.1296972459E-29  0.0000000000E+00 -0.1783518743E-30  0.1099885167E-30  0.5765208454E-29  0.5765345128E-29 -0.1796258327E-30 -0.1366741085E-33  0.1273958370E-32 -0.1389577049E-29 -0.4891891521E-29  0.1296895844E-29 -0.2799179464E-34  0.3423358834E-32  0.7661524700E-34 -0.1796258327E-30  0.1099695036E-30  0.5765345128E-29  0.1273958370E-32  0.1901317507E-34 -0.1366741085E-33
46 -0.1810635773E-38 -0.2045667175E-38 -0.1238327126E-38 -0.1017861114E-38 -0.2549347033E-38  0.5765208228E-29 -0.1783518752E-30 -0.1389605297E-29 -0.4888467411E-29  0.1296972452E-29  0.0000000000E+00 -0.1783518752E-30  0.1099885149E-30  0.5765208228E-29  0.5765344902E-29 -0.1796258335E-30 -0.1366741123E-33  0.1273958355E-32 -0.1389577306E-29 -0.4891890770E-29  0.1296895837E-29 -0.2799180043E-34  0.3423358843E-32  0.7661519141E-34 -0.1796258335E-30  0.1099695017E-30  0.5765344902E-29  0.1273958355E-32  0.1901317349E-34 -0.1366741123E-33
47 -0.1348685832E-38 -0.1488874424E-38 -0.9250055236E-39 -0.7134152083E-39 -0.1868933878E-38  0.5765208057E-29 -0.1783518759E-30 -0.1389605496E-29 -0.4888466846E-29  0.1296972447E-29  0.0000000000E+00 -0.1783518759E-30  0.1099885134E-30  0.5765208057E-29  0.5765344731E-29 -0.1796258342E-30 -0.1366741151E-33  0.1273958345E-32 -0.1389577504E-29 -0.4891890205E-29  0.1296895832E-29 -0.2799180499E-34  0.3423358850E-32  0.7661514888E-34 -0.1796258342E-30  0.1099695003E-30  0.5765344731E-29  0.1273958345E-32  0.1901317193E-34 -0.1366741151E-33
48 -0.1004361196E-38 -0.1089080521E-38 -0.6901798093E-39 -0.5033632846E-39 -0.1371073005E-38  0.5765207928E-29 -0.1783518764E-30 -0.1389605648E-29 -0.4888466422E-29  0.1296972443E-29  0.0000000000E+00 -0.1783518764E-30  0.1099885124E-30  0.5765207928E-29  0.5765344602E-29 -0.1796258347E-30 -0.1366741172E-33  0.1273958337E-32 -0.1389577656E-29 -0.4891889781E-29  0.1296895828E-29 -0.2799180854E-34  0.3423358855E-32  0.7661511632E-34 -0.1796258347E-30  0.1099694992E-30  0.5765344602E-29  0.1273958337E-32  0.1901317050E-34 -0.1366741172E-33
49 -0.7474776050E-39 -0.7989984840E-39 -0.5147305380E-39 -0.3589480149E-39 -0.1004796074E-38  0.5765207832E-29 -0.1783518767E-30 -0.1389605764E-29 -0.4888466105E-29  0.1296972440E-29  0.0000000000E+00 -0.1783518767E-30  0.1099885116E-30  0.5765207832E-29  0.5765344506E-29 -0.1796258351E-30 -0.1366741189E-33  0.1273958332E-32 -0.1389577772E-29 -0.4891889464E-29  0.1296895825E-29 -0.2799181128E-34  0.3423358859E-32  0.7661509143E-34 -0.1796258351E-30  0.1099694984E-30  0.5765344506E-29  0.1273958332E-32  0.1901316926E-34 -0.1366741189E-33
50 -0.5556424070E-39 -0.5869005609E-39 -0.3838665916E-39 -0.2588870013E-39 -0.7345908800E-39  0.5765207760E-29 -0.1783518770E-30 -0.1389605852E-29 -0.4888465867E-29  0.1296972438E-29  0.0000000000E+00 -0.1783518770E-30  0.1099885109E-30  0.5765207760E-29  0.5765344434E-29 -0.1796258353E-30 -0.1366741201E-33  0.1273958328E-32 -0.1389577860E-29 -0.4891889226E-29  0.1296895823E-29 -0.2799181338E-34  0.3423358863E-32  0.7661507246E-34 -0.1796258353E-30  0.1099694978E-30  0.5765344434E-29  0.1273958328E-32  0.1901316822E-34 -0.1366741201E-33
51 -0.4123632280E-39 -0.4311330923E-39 -0.2862951438E-39 -0.1885446997E-39 -0.5353130818E-39  0.5765207707E-29 -0.1783518772E-30 -0.1389605919E-29 -0.4888465690E-29  0.1296972436E-29  0.0000000000E+00 -0.1783518772E-30  0.1099885105E-30  0.5765207707E-29  0.5765344381E-29 -0.1796258355E-30 -0.1366741210E-33  0.1273958325E-32 -0.1389577927E-29 -0.4891889048E-29  0.1296895821E-29 -0.2799181497E-34  0.3423358865E-32  0.7661505803E-34 -0.1796258355E-30  0.1099694973E-30  0.5765344381E-29  0.1273958325E-32  0.1901316737E-34 -0.1366741210E-33
52 -0.3054470400E-39 -0.3165198365E-39 -0.2135011919E-39 -0.1383368369E-39 -0.3886932480E-39  0.5765207667E-29 -0.1783518774E-30 -0.1389605969E-29 -0.4888465557E-29  0.1296972435E-29  0.0000000000E+00 -0.1783518774E-30  0.1099885101E-30  0.5765207667E-29  0.5765344341E-29 -0.1796258357E-30 -0.1366741217E-33  0.1273958323E-32 -0.1389577977E-29 -0.4891888915E-29  0.1296895820E-29 -0.2799181617E-34  0.3423358867E-32  0.7661504711E-34 -0.1796258357E-30  0.1099694970E-30  0.5765344341E-29  0.1273958323E-32  0.1901316671E-34 -0.1366741217E-33
53 -0.2258014791E-39 -0.2321551603E-39 -0.1591329899E-39 -0.1020744692E-39 -0.2811760668E-39  0.5765207637E-29 -0.1783518775E-30 -0.1389606007E-29 -0.4888465457E-29  0.1296972434E-29  0.0000000000E+00 -0.1783518775E-30  0.1099885099E-30  0.5765207637E-29  0.5765344312E-29 -0.1796258358E-30 -0.1366741223E-33  0.1273958322E-32 -0.1389578015E-29 -0.4891888816E-29  0.1296895819E-29 -0.2799181707E-34  0.3423358868E-32  0.7661503886E-34 -0.1796258358E-30  0.1099694967E-30  0.5765344312E-29  0.1273958322E-32  0.1901316619E-34 -0.1366741223E-33
54 -0.1665964364E-39 -0.1700792715E-39 -0.1184865556E-39 -0.7567962592E-40 -0.2026146150E-39  0.5765207616E-29 -0.1783518775E-30 -0.1389606036E-29 -0.4888465384E-29  0.1296972433E-29  0.0000000000E+00 -0.1783518775E-30  0.1099885096E-30  0.5765207616E-29  0.5765344290E-29 -0.1796258359E-30 -0.1366741227E-33  0.1273958321E-32 -0.1389578044E-29 -0.4891888743E-29  0.1296895818E-29 -0.2799181774E-34  0.3423358869E-32  0.7661503265E-34 -0.1796258359E-30  0.1099694965E-30  0.5765344290E-29  0.1273958321E-32  0.1901316579E-34 -0.1366741227E-33