# vtk DataFile Version 2.0
FUN3D:global_image_vtk
ASCII
DATASET UNSTRUCTURED_GRID
POINTS 213 double
    0.2975342473757533E-18    0.0000000000000000E+00    0.2500000000000000E+01
    0.0000000000000000E+00    0.2975342473757533E-18    0.0000000000000000E+00
    0.1250000000000000E+01    0.0000000000000000E+00    0.2500000000000000E+01
    0.0000000000000000E+00    0.2975342473757533E-18    0.0000000000000000E+00
    0.2500000000000000E+01    0.0000000000000000E+00    0.2500000000000000E+01
    0.0000000000000000E+00    0.2975342473757533E-18    0.0000000000000000E+00
    0.3750000000000000E+01    0.0000000000000000E+00    0.2500000000000000E+01
    0.0000000000000000E+00    0.2975342473757533E-18    0.0000000000000000E+00
    0.5000000000000000E+01    0.0000000000000000E+00    0.2500000000000000E+01
    0.0000000000000000E+00    0.2975342473757533E-18    0.0000000000000000E+00
    0.5000000000000000E+01    0.0000000000000000E+00    0.1250000000000000E+01
    0.0000000000000000E+00    0.2975342473757533E-18    0.0000000000000000E+00
    0.5000000000000000E+01    0.0000000000000000E+00    0.2975342473757533E-18
    0.0000000000000000E+00    0.2975342473757533E-18    0.0000000000000000E+00
    0.5000000000000000E+01    0.0000000000000000E+00   -0.1250000000000000E+01
    0.0000000000000000E+00    0.2975342473757533E-18    0.0000000000000000E+00
    0.5000000000000000E+01    0.0000000000000000E+00   -0.2500000000000000E+01
    0.0000000000000000E+00    0.2975342473757533E-18    0.0000000000000000E+00
    0.3750000000000000E+01    0.0000000000000000E+00   -0.2500000000000000E+01
    0.0000000000000000E+00    0.2975342473757533E-18    0.0000000000000000E+00
    0.2500000000000000E+01    0.0000000000000000E+00   -0.2500000000000000E+01
    0.0000000000000000E+00    0.2975342473757533E-18    0.0000000000000000E+00
    0.1250000000000000E+01    0.0000000000000000E+00   -0.2500000000000000E+01
    0.0000000000000000E+00    0.2975342473757533E-18    0.0000000000000000E+00
    0.2975342473757533E-18    0.0000000000000000E+00   -0.2500000000000000E+01
    0.0000000000000000E+00    0.2975342473757533E-18    0.0000000000000000E+00
    0.2975342473757533E-18    0.0000000000000000E+00   -0.1250000000000000E+01
    0.0000000000000000E+00    0.2975342473757533E-18    0.0000000000000000E+00
    0.2975342473757533E-18    0.0000000000000000E+00    0.2975342473757533E-18
    0.0000000000000000E+00    0.2975342473757533E-18    0.0000000000000000E+00
    0.2975342473757533E-18    0.0000000000000000E+00    0.1250000000000000E+01
    0.0000000000000000E+00    0.2975342473757533E-18    0.0000000000000000E+00
    0.9058375365086910E+00    0.0000000000000000E+00    0.1578994732800803E+01
    0.0000000000000000E+00    0.2975342473757533E-18    0.0000000000000000E+00
    0.3982050490726493E+01    0.0000000000000000E+00   -0.1583989954232354E+01
    0.0000000000000000E+00    0.2975342473757533E-18    0.0000000000000000E+00
    0.4033849428301197E+01    0.0000000000000000E+00    0.1453322699199022E+01
    0.0000000000000000E+00    0.2975342473757533E-18    0.0000000000000000E+00
    0.1040505887381675E+01    0.0000000000000000E+00   -0.1479596339503735E+01
    0.0000000000000000E+00    0.2975342473757533E-18    0.0000000000000000E+00
    0.1099454400140349E+01    0.0000000000000000E+00   -0.3227322616384110E+00
    0.0000000000000000E+00    0.2975342473757533E-18    0.0000000000000000E+00
    0.7354504170366591E+00    0.0000000000000000E+00    0.6593508822075582E+00
    0.0000000000000000E+00    0.2975342473757533E-18    0.0000000000000000E+00
    0.1622302608453282E+01    0.0000000000000000E+00    0.8256214013940779E+00
    0.0000000000000000E+00    0.2975342473757533E-18    0.0000000000000000E+00
    0.2145871574390382E+01    0.0000000000000000E+00   -0.1650070333782557E+01
    0.0000000000000000E+00    0.2975342473757533E-18    0.0000000000000000E+00
    0.4086422318222992E+01    0.0000000000000000E+00   -0.4612828702537229E+00
    0.0000000000000000E+00    0.2975342473757533E-18    0.0000000000000000E+00
    0.2979540174134984E+01    0.0000000000000000E+00   -0.8579242121530853E+00
    0.0000000000000000E+00    0.2975342473757533E-18    0.0000000000000000E+00
    0.3045064261640043E+01    0.0000000000000000E+00   -0.1836846154397680E+01
    0.0000000000000000E+00    0.2975342473757533E-18    0.0000000000000000E+00
    0.3428197553792836E+01    0.0000000000000000E+00    0.3508002863614053E+00
    0.0000000000000000E+00    0.2975342473757533E-18    0.0000000000000000E+00
    0.4309693860063405E+01    0.0000000000000000E+00    0.5185680230613409E+00
    0.0000000000000000E+00    0.2975342473757533E-18    0.0000000000000000E+00
    0.1827272193562204E+01    0.0000000000000000E+00    0.1738996113203182E+01
    0.0000000000000000E+00    0.2975342473757533E-18    0.0000000000000000E+00
    0.2808563282768077E+01    0.0000000000000000E+00    0.1325493893339706E+01
    0.0000000000000000E+00    0.2975342473757533E-18    0.0000000000000000E+00
    0.1895995683864404E+01    0.0000000000000000E+00   -0.8731419609589618E+00
    0.0000000000000000E+00    0.2975342473757533E-18    0.0000000000000000E+00
    0.2273179336307740E+01    0.0000000000000000E+00    0.4906150219227333E-01
    0.0000000000000000E+00    0.2975342473757533E-18    0.0000000000000000E+00
    0.5000000000000000E+01    0.0000000000000000E+00    0.2500000000000000E+01
    0.0000000000000000E+00    0.1250000000000000E+01    0.0000000000000000E+00
    0.5000000000000000E+01    0.0000000000000000E+00    0.2500000000000000E+01
    0.0000000000000000E+00    0.2500000000000000E+01    0.0000000000000000E+00
    0.5000000000000000E+01    0.0000000000000000E+00    0.2500000000000000E+01
    0.0000000000000000E+00    0.3750000000000000E+01    0.0000000000000000E+00
    0.5000000000000000E+01    0.0000000000000000E+00    0.2500000000000000E+01
    0.0000000000000000E+00    0.5000000000000000E+01    0.0000000000000000E+00
    0.3750000000000000E+01    0.0000000000000000E+00    0.2500000000000000E+01
    0.0000000000000000E+00    0.5000000000000000E+01    0.0000000000000000E+00
    0.2500000000000000E+01    0.0000000000000000E+00    0.2500000000000000E+01
    0.0000000000000000E+00    0.5000000000000000E+01    0.0000000000000000E+00
    0.1250000000000000E+01    0.0000000000000000E+00    0.2500000000000000E+01
    0.0000000000000000E+00    0.5000000000000000E+01    0.0000000000000000E+00
    0.2975342473757533E-18    0.0000000000000000E+00    0.2500000000000000E+01
    0.0000000000000000E+00    0.5000000000000000E+01    0.0000000000000000E+00
    0.2975342473757533E-18    0.0000000000000000E+00    0.2500000000000000E+01
    0.0000000000000000E+00    0.3750000000000000E+01    0.0000000000000000E+00
    0.2975342473757533E-18    0.0000000000000000E+00    0.2500000000000000E+01
    0.0000000000000000E+00    0.2500000000000000E+01    0.0000000000000000E+00
    0.2975342473757533E-18    0.0000000000000000E+00    0.2500000000000000E+01
    0.0000000000000000E+00    0.1250000000000000E+01    0.0000000000000000E+00
    0.9631080833812172E+00    0.0000000000000000E+00    0.2500000000000000E+01
    0.0000000000000000E+00    0.9613285771248219E+00    0.0000000000000000E+00
    0.3981732467264904E+01    0.0000000000000000E+00    0.2500000000000000E+01
    0.0000000000000000E+00    0.4069753913607991E+01    0.0000000000000000E+00
    0.4035525118777670E+01    0.0000000000000000E+00    0.2500000000000000E+01
    0.0000000000000000E+00    0.1012015867579395E+01    0.0000000000000000E+00
    0.9641717640894248E+00    0.0000000000000000E+00    0.2500000000000000E+01
    0.0000000000000000E+00    0.3972455192261839E+01    0.0000000000000000E+00
    0.1547743040396780E+01    0.0000000000000000E+00    0.2500000000000000E+01
    0.0000000000000000E+00    0.2928177746738678E+01    0.0000000000000000E+00
    0.6985170616192014E+00    0.0000000000000000E+00    0.2500000000000000E+01
    0.0000000000000000E+00    0.3068281976055466E+01    0.0000000000000000E+00
    0.8931277594515110E+00    0.0000000000000000E+00    0.2500000000000000E+01
    0.0000000000000000E+00    0.2052465503257726E+01    0.0000000000000000E+00
    0.2183293750162785E+01    0.0000000000000000E+00    0.2500000000000000E+01
    0.0000000000000000E+00    0.3959073795658649E+01    0.0000000000000000E+00
    0.3855333506014705E+01    0.0000000000000000E+00    0.2500000000000000E+01
    0.0000000000000000E+00    0.2931218481500625E+01    0.0000000000000000E+00
    0.3152495579421047E+01    0.0000000000000000E+00    0.2500000000000000E+01
    0.0000000000000000E+00    0.3635850502723324E+01    0.0000000000000000E+00
    0.3103247580566054E+01    0.0000000000000000E+00    0.2500000000000000E+01
    0.0000000000000000E+00    0.4331682712472464E+01    0.0000000000000000E+00
    0.3266837581688852E+01    0.0000000000000000E+00    0.2500000000000000E+01
    0.0000000000000000E+00    0.1886092433583972E+01    0.0000000000000000E+00
    0.4231539241296245E+01    0.0000000000000000E+00    0.2500000000000000E+01
    0.0000000000000000E+00    0.1915865356532799E+01    0.0000000000000000E+00
    0.1909741006522088E+01    0.0000000000000000E+00    0.2500000000000000E+01
    0.0000000000000000E+00    0.7170024419130505E+00    0.0000000000000000E+00
    0.2880784107213163E+01    0.0000000000000000E+00    0.2500000000000000E+01
    0.0000000000000000E+00    0.9046598906449592E+00    0.0000000000000000E+00
    0.2014316024535771E+01    0.0000000000000000E+00    0.2500000000000000E+01
    0.0000000000000000E+00    0.1762464314805728E+01    0.0000000000000000E+00
    0.2670003247036656E+01    0.0000000000000000E+00    0.2500000000000000E+01
    0.0000000000000000E+00    0.2850479545835163E+01    0.0000000000000000E+00
    0.5000000000000000E+01    0.0000000000000000E+00    0.1250000000000000E+01
    0.0000000000000000E+00    0.5000000000000000E+01    0.0000000000000000E+00
    0.5000000000000000E+01    0.0000000000000000E+00    0.2975342473757533E-18
[...]
POINT_DATA 213
SCALARS rho double 1
LOOKUP_TABLE default
   0.1344271449750176E+01
  -0.1928282735909515E-31
   0.9569758915553350E+00
  -0.2975550917690735E-32
   0.9462964200959275E+00
  -0.2740505838309624E-32
   0.9418612718929344E+00
  -0.3820724408752988E-32
   0.8437304900410492E+00
  -0.5453589999381603E-32
   0.7738004326021131E+00
  -0.5551253207945131E-32
   0.7629818923545170E+00
  -0.5640063534071280E-32
   0.7664577919363426E+00
  -0.5583744320892532E-32
   0.8307874046188995E+00
  -0.5444603857390541E-32
   0.9352972565159595E+00
  -0.3901335947837204E-32
   0.9342219822012762E+00
  -0.3069212169178250E-32
   0.9617195286396170E+00
  -0.3096015032288036E-32
   0.1449457451807616E+01
  -0.1164883923089820E-31
   0.1494090644662716E+01
  -0.1158715776680766E-31
   0.1644667277204179E+01
  -0.1495063609412152E-31
   0.1425832049575549E+01
  -0.1139475596017293E-31
   0.1009014435352246E+01
  -0.4175711699766469E-32
   0.9508810865006231E+00
  -0.3941506986729621E-32
   0.9436508501899916E+00
  -0.3978404955048218E-32
   0.9581561034484508E+00
  -0.2759093321960014E-32
   0.9415852462543769E+00
  -0.2397402946662242E-32
   0.1036377240648759E+01
  -0.4045715348794509E-32
   0.9256161101056338E+00
  -0.2282769029382146E-32
   0.9322349872514423E+00
  -0.2807208956403664E-32
   0.9537479579704201E+00
  -0.4006417275027504E-32
   0.9518769567196889E+00
  -0.3491712892530615E-32
   0.9348583129228468E+00
  -0.3481930778684611E-32
   0.9564028419902154E+00
  -0.3739259263464259E-32
   0.9376098403686576E+00
  -0.4071811500430138E-32
   0.9300661525860481E+00
  -0.2036829143233100E-32
   0.9445157493356443E+00
  -0.3138398875504608E-32
   0.8863506519304666E+00
  -0.2153642783787050E-32
   0.9423579969834129E+00
  -0.2963510207695446E-32
   0.9635003079922752E+00
  -0.1730808474355220E-32
   0.1008299039511914E+01
  -0.1425408576981028E-33
   0.1006735291839010E+01
   0.5375829771611672E-34
   0.1001964617623820E+01
  -0.1691037679315371E-33
   0.1003219581551892E+01
  -0.2755541314496343E-33
   0.1004132053992170E+01
  -0.3103921277404797E-33
   0.1005228602964922E+01
  -0.2754886932628880E-33
   0.1004260408276860E+01
  -0.2173246033552700E-33
   0.1008308190003036E+01
  -0.3337081246439971E-33
   0.1023893138001629E+01
  -0.7543519887363208E-33
   0.1063553956096207E+01
  -0.3298395993061182E-33
   0.1019182513304046E+01
  -0.2264986059409043E-32
   0.1001780766443424E+01
  -0.1587969251922144E-33
   0.9643309939207234E+00
  -0.2159056953449788E-32
   0.1005283709011390E+01
  -0.3199891039422160E-33
   0.1000721163302677E+01
  -0.2039911993962978E-33
   0.1008742083839902E+01
  -0.4310960412070870E-33
   0.1008078083670681E+01
  -0.1915857237255526E-33
   0.1002349807136933E+01
  -0.2883854544654265E-33
   0.9979986848188783E+00
  -0.6202313669280645E-34
   0.1000583560954855E+01
  -0.1500851463364285E-33
   0.1001620123677907E+01
  -0.2711392414934153E-33
   0.9826893073889261E+00
  -0.7000820043974869E-33
   0.9842439642575473E+00
  -0.7269247805193498E-33
   0.9833314037112089E+00
  -0.2330491981122123E-32
   0.9788207413060998E+00
  -0.2203379908866756E-32
   0.9902638161504593E+00
  -0.6302770736110625E-33
   0.9934561553250141E+00
  -0.1439043142063444E-33
   0.1002011751677790E+01
  -0.1565846239338907E-33
   0.1002134465686980E+01
  -0.1504768157462677E-33
   0.1002276326550655E+01
  -0.1465623568729948E-33
   0.1001794758391337E+01
  -0.1751476069959625E-33
   0.1009778638885410E+01
  -0.1191067411327880E-34
   0.1006429109017517E+01
  -0.3720887600459326E-35
   0.9558786961035391E+00
  -0.1098877547483049E-32
   0.9249398411695917E+00
  -0.2388763187756707E-32
   0.1007036755524016E+01
  -0.9884897654657434E-35
   0.1004504925174852E+01
  -0.7834545217466758E-35
   0.9143642077255967E+00
  -0.1658013716724383E-32
   0.9089667861105239E+00
  -0.1513740320221455E-32
   0.8751688903722308E+00
  -0.2639350098062947E-32
   0.9767271885714355E+00
  -0.7203953020724553E-33
   0.1000452621148914E+01
  -0.1075527549197954E-33
   0.1005831087460265E+01
   0.2623540729472234E-34
   0.1012882803225222E+01
   0.2235505941176735E-33
   0.1011618951276812E+01
   0.8360361479512278E-34
   0.1010438648581242E+01
   0.2406387218523992E-33
   0.1005468280913244E+01
  -0.1660506911425668E-34
   0.9907612680193273E+00
  -0.7345472291112536E-33
   0.1005140325682018E+01
   0.7815994777038106E-34
   0.9860567246293181E+00
  -0.1678517959264451E-33
   0.1005609737622722E+01
   0.1985097099050151E-33
   0.1004248005740170E+01
  -0.2229017367223585E-33
   0.1002888437724275E+01
  -0.2014680665991316E-33
   0.1003345420478465E+01
  -0.1914741987155552E-33
   0.1003992731903475E+01
  -0.1975114915927543E-33
   0.1005101716205732E+01
  -0.2631647325661197E-33
   0.1003211645199608E+01
  -0.2827008075743678E-33
   0.1002663160013491E+01
  -0.2403852819322420E-33
   0.1002586231472191E+01
  -0.2857397907058134E-33
   0.1004060870975031E+01
  -0.2192628246718287E-33
   0.1004320346069443E+01
  -0.2364985194056399E-33
   0.1001641920442119E+01
  -0.2822291040454632E-33
   0.1002273116038139E+01
  -0.2716077288483836E-33
   0.1002543475641264E+01
  -0.2618081177994438E-33
   0.1003469520872006E+01
  -0.3218506931396764E-33
   0.1003372640318021E+01
  -0.2771357402572568E-33
   0.1003232230073994E+01
  -0.2057991094463714E-33
   0.1004423863500638E+01
  -0.2792839403599089E-33
   0.1004313070891119E+01
  -0.2847440422636943E-33
   0.1003659849431758E+01
  -0.2017039407682520E-33
   0.1003723103982404E+01
  -0.2861914369255026E-33
   0.1004329726476614E+01
  -0.2949015057829950E-33
   0.1004465021926478E+01
  -0.3296461238897020E-33
   0.1003623375387118E+01
  -0.2971116183766501E-33
   0.1064422801050726E+01
  -0.3272023506157010E-33
   0.1028473621467180E+01
  -0.6739236267247665E-33
   0.1009586657364690E+01
  -0.3297565893310359E-33
   0.1006638837513467E+01
  -0.3140391355958339E-33
   0.1163935522449655E+01
  -0.1936456006649825E-32
   0.1086087969851714E+01
  -0.2072531770844225E-33
   0.1007893419313066E+01
  -0.3218977819845462E-33
   0.1007245533350530E+01
  -0.3110852289065051E-33
   0.1006798074183511E+01
  -0.2877635495190568E-33
   0.1013018287009750E+01
  -0.6515860373104035E-33
   0.1019384609577787E+01
  -0.6003454474987676E-33
   0.1235203670049669E+01
  -0.3625430486127125E-32
   0.1032529466771676E+01
  -0.3550658801084341E-33
   0.1046681191677586E+01
  -0.9425350080508847E-33
   0.1200953642609221E+01
  -0.2853997178143222E-32
   0.1014718916076712E+01
  -0.4712885878552115E-33
   0.1032291153305964E+01
  -0.8168047080780298E-33
   0.1028095236789671E+01
  -0.1073191091208652E-32
   0.1014628639880929E+01
  -0.5972451630824001E-33
   0.1029216893275061E+01
  -0.1371238074468013E-32
   0.1001994816403710E+01
  -0.1816128812753038E-33
   0.9606929197107102E+00
  -0.1520939008511492E-32
   0.1006852582841265E+01
  -0.3083656817370775E-33
   0.1001327193356237E+01
  -0.2359836056063463E-33
   0.1010821905420695E+01
  -0.3917818998549684E-33
   0.1012246098910495E+01
  -0.2928428652412679E-33
   0.1000946006966713E+01
  -0.2787340229981572E-33
   0.9979121234054540E+00
  -0.6394604475482278E-34
   0.9980632373041487E+00
  -0.1907327995015158E-33
   0.1001184143414438E+01
  -0.2494024869456970E-33
   0.9841362011963152E+00
  -0.3900706300436806E-33
   0.9814879615545311E+00
  -0.3992230940508545E-33
   0.9648483322370287E+00
  -0.1572614644733832E-32
   0.9680877129643131E+00
  -0.1608146791731191E-32
   0.9914124472212150E+00
  -0.4074918154294769E-33
   0.9910858388733228E+00
  -0.1515307702866955E-33
   0.9925545095931545E+00
  -0.7981760972530088E-35
   0.1001727533894395E+01
  -0.1968592805716047E-33
   0.9993409402184039E+00
  -0.2592897554793532E-34
   0.9941410835133628E+00
   0.3033318907633734E-34
   0.1007038753603811E+01
   0.7702996172637981E-34
   0.1022539494137117E+01
  -0.1780145575362708E-33
   0.1001088098525223E+01
  -0.3870788030124237E-33
   0.1008798496301348E+01
  -0.3739035069480914E-33
   0.1004773846126416E+01
  -0.3298453251989415E-33
   0.1009050237488261E+01
  -0.3968128221575487E-33
   0.9966470332397744E+00
  -0.2323679917554257E-33
   0.1004988557993257E+01
  -0.2497208246976773E-32
   0.1003325535215992E+01
  -0.2893228711147374E-33
   0.9949431085504667E+00
  -0.1048095536057177E-33
   0.9832680782005647E+00
  -0.2009554897506698E-33
   0.9943957454994550E+00
  -0.7612395399958579E-34
   0.9973420656290610E+00
  -0.4446165199937370E-34
   0.9932190085629584E+00
  -0.1585784758181304E-34
   0.1001306487169727E+01
  -0.2535184481253466E-33
   0.1003001636984007E+01
  -0.2796935025558135E-33
   0.1002183579663472E+01
  -0.2374891700384854E-33
   0.9947078544999161E+00
   0.7800076189865779E-34
   0.9937965521463272E+00
  -0.6994498683552246E-34
   0.1004867865562282E+01
  -0.3387397219476199E-33
   0.1020077607445938E+01
  -0.1930557993572569E-33
   0.1005364552430872E+01
  -0.2737391483989567E-33
   0.9816998152693479E+00
  -0.2023224404312424E-33
   0.1004973031274851E+01
  -0.2917573435313354E-33
   0.1012382323448551E+01
  -0.3713001656851291E-33
   0.9871424296255200E+00
  -0.1628244671844914E-32
   0.9551513534743908E+00
  -0.1127661435552359E-32
   0.9865075700346509E+00
  -0.2211838681337968E-33
   0.9864532950075720E+00
  -0.3388204086686053E-33
   0.9918946944284674E+00
  -0.1874188326458527E-32
   0.9933508198372905E+00
  -0.3729096804164349E-33
   0.9954406189970404E+00
  -0.1565351401067679E-32
   0.1037336789728438E+01
  -0.3394263789287683E-33
   0.1033536797990594E+01
  -0.1115525525762308E-32
   0.1001443320814533E+01
  -0.1341561527242446E-33
   0.1001930499797307E+01
  -0.2563381224131704E-33
   0.9912478515978050E+00
   0.1359207561007547E-35
   0.9910920509410811E+00
  -0.1051296855646005E-33
   0.9648489990836010E+00
  -0.7596127106072557E-33
   0.9933282604854873E+00
  -0.9676128679773395E-34
   0.1006058638637305E+01
  -0.1063917834560826E-34
   0.1001954027110563E+01
  -0.1681990253073640E-34
   0.9908735804765094E+00
  -0.1567822021944179E-33
   0.9740945214065105E+00
  -0.1142813368385009E-32
   0.9418802141957385E+00
  -0.2214245131821782E-32
   0.9819379692037095E+00
  -0.1186808621383659E-32
   0.9794803560690509E+00
  -0.1870959190999730E-33
   0.9704172061921259E+00
  -0.1362415611049113E-32
   0.9720478947062736E+00
  -0.1009894400113823E-32
   0.9557351702889383E+00
  -0.6648865414052020E-33
   0.9496731213610599E+00
  -0.1216948336087343E-32
   0.9528673572393889E+00
  -0.2014478110630546E-32
   0.1002659534063451E+01
  -0.3054613874888732E-33
   0.1002471631970977E+01
  -0.2888356849083659E-33
   0.1000509329298001E+01
  -0.1724215842329215E-33
   0.1001677321730968E+01
   0.3304834706142969E-34
   0.9607931434938209E+00
  -0.2070312769843287E-32
   0.9491625507087902E+00
  -0.2269353374677549E-32
   0.9584503069195054E+00
  -0.2025914245343681E-32
   0.1001121207785028E+01
  -0.2587312279343280E-33
   0.1000496140593599E+01
  -0.2081982749627162E-33
   0.1001156644177894E+01
  -0.6030277211272796E-34
   0.9807376183689186E+00
  -0.2102131749128328E-33
   0.9806000808946838E+00
  -0.9424154739723394E-33
   0.9628476109176024E+00
  -0.1659509099177181E-32
SCALARS u double 1
LOOKUP_TABLE default
   0.0000000000000000E+00
   0.0000000000000000E+00
   0.0000000000000000E+00
   0.0000000000000000E+00
   0.0000000000000000E+00
   0.0000000000000000E+00
   0.0000000000000000E+00
   0.0000000000000000E+00
   0.0000000000000000E+00
   0.0000000000000000E+00
   0.0000000000000000E+00
   0.0000000000000000E+00
   0.0000000000000000E+00
   0.0000000000000000E+00
   0.0000000000000000E+00
   0.0000000000000000E+00
   0.0000000000000000E+00
   0.0000000000000000E+00
   0.0000000000000000E+00
   0.0000000000000000E+00
   0.0000000000000000E+00
   0.0000000000000000E+00
   0.0000000000000000E+00
   0.0000000000000000E+00
   0.0000000000000000E+00
   0.0000000000000000E+00
   0.0000000000000000E+00
   0.0000000000000000E+00
   0.0000000000000000E+00
   0.0000000000000000E+00
   0.0000000000000000E+00
   0.0000000000000000E+00
   0.0000000000000000E+00
   0.0000000000000000E+00
   0.0000000000000000E+00
   0.0000000000000000E+00
   0.0000000000000000E+00
   0.0000000000000000E+00
   0.0000000000000000E+00
   0.0000000000000000E+00
   0.0000000000000000E+00
   0.0000000000000000E+00
   0.0000000000000000E+00
   0.0000000000000000E+00
   0.0000000000000000E+00
   0.0000000000000000E+00
   0.0000000000000000E+00
   0.0000000000000000E+00
   0.0000000000000000E+00
   0.0000000000000000E+00
   0.0000000000000000E+00
   0.0000000000000000E+00
   0.0000000000000000E+00
   0.0000000000000000E+00
   0.0000000000000000E+00
   0.0000000000000000E+00
   0.0000000000000000E+00
   0.0000000000000000E+00
   0.0000000000000000E+00
   0.0000000000000000E+00
   0.0000000000000000E+00
   0.0000000000000000E+00
   0.0000000000000000E+00
   0.0000000000000000E+00
   0.0000000000000000E+00
   0.0000000000000000E+00
   0.4950176835701818E+00
   0.1398291129104988E-32
   0.5338221300605378E+00
  -0.3133340734561824E-33
   0.5183269247791599E+00
  -0.3980685743028183E-33
   0.4930649880192357E+00
  -0.2504158503913609E-35
   0.4847578719331868E+00
   0.3238616532159987E-33
   0.4867666423653342E+00
   0.4273543362961199E-33
   0.4890763583300933E+00
   0.3949455283915793E-33
   0.4957848880329643E+00
   0.2355915737796173E-33
   0.4898301883790104E+00
   0.3623442731076755E-33
   0.4717388493441518E+00
   0.7149338723699288E-33
   0.4454814153587309E+00
   0.5933969840731630E-33
   0.4833907048923157E+00
  -0.1087405655529161E-32
   0.5098397462670492E+00
   0.6703387767141801E-35
   0.4390712699548461E+00
   0.1211985981389569E-32
   0.4949403964695952E+00
   0.3119793567675452E-33
   0.5225330362485353E+00
   0.1072917323185027E-33
   0.4962454545658518E+00
   0.3296973562645851E-33
   0.5226154963597834E+00
   0.1705268348490421E-33
   0.5038881743029399E+00
   0.2410072784464932E-33
   0.5646883609039988E+00
  -0.1996743176412294E-33
   0.5247509156866859E+00
   0.2238872863680691E-34
   0.4991466119501306E+00
   0.2343403369545766E-33
   0.5730561900932969E+00
  -0.4294649616159060E-35
   0.5696051096253556E+00
   0.2731007317740974E-33
   0.3737941449627858E+00
  -0.6392940298067836E-33
   0.3998658123890081E+00
   0.3242735324714876E-33
   0.5599326587320036E+00
  -0.3988244063762266E-33
   0.5564587630637040E+00
  -0.1069703572009999E-33
   0.4942627332974650E+00
  -0.2356396496361713E-34
   0.4948659466161268E+00
  -0.3603621075766639E-34
   0.4925735874286463E+00
  -0.4563376362976068E-34
   0.4914269544072054E+00
   0.4670342669237937E-35
   0.5162356851547940E+00
  -0.3098290147088218E-33
   0.5361798305996535E+00
  -0.3044484771513814E-33
   0.4947413356161287E+00
   0.9765678892801851E-33
   0.4524112203086245E+00
   0.1967067668199282E-32
   0.5128777326251647E+00
  -0.2782481719389499E-33
   0.5117942041099125E+00
  -0.2884425353242388E-33
   0.4783517503921223E+00
   0.1521968011933832E-32
   0.4931696655283837E+00
   0.1434989486124437E-32
   0.4603173591431267E+00
   0.2384122268274228E-32
   0.5244892719891575E+00
   0.5994909478220724E-33
   0.5297434248113125E+00
  -0.1149540120172652E-33
   0.5129579301457563E+00
  -0.3131249241144759E-33
   0.5328358320396596E+00
  -0.5322465590480328E-33
   0.5308941037924598E+00
  -0.4303193922859868E-33
   0.5309856171151870E+00
  -0.5572189683277225E-33
   0.5063656735877793E+00
  -0.2452666316491261E-33
   0.5282461954746369E+00
   0.3302591026720349E-33
   0.5410312730949548E+00
  -0.4711606839238459E-33
   0.5361261481086734E+00
   0.1359579627456338E-33
   0.5374105276950031E+00
  -0.4146468333653215E-33
   0.4965364818581627E+00
   0.2131725184527901E-33
   0.4975340903873436E+00
   0.1946055817101909E-33
   0.4963842644371580E+00
   0.2043638285976161E-33
   0.4955220267406009E+00
   0.2163797491687275E-33
   0.4904581830732153E+00
   0.3841347037743934E-33
   0.4903044384775790E+00
   0.4054434976327628E-33
   0.4862182763991962E+00
   0.2955681776788336E-33
   0.4854049561027936E+00
   0.2718485769623444E-33
   0.4932164387750113E+00
   0.3172842990410144E-33
   0.4909833312071485E+00
   0.3523625061852283E-33
   0.4832194696292672E+00
   0.2592965626229000E-33
   0.4872622776954769E+00
   0.2278152081946787E-33
   0.4880124909440279E+00
   0.1929082678454297E-33
   0.4872445931143835E+00
   0.3801660777314947E-33
   0.4882696668991510E+00
   0.3995991121843128E-33
   0.4952597556330074E+00
   0.2763191713141770E-33
   0.4900967167386137E+00
   0.4240639428790269E-33
   0.4904000090231351E+00
   0.4174386009044566E-33
   0.4944232925330834E+00
   0.3050202046280344E-33
   0.4868002480564174E+00
   0.3866458412565726E-33
   0.4892385983522470E+00
   0.4201435486085749E-33
   0.4881393369234298E+00
   0.4393905828547862E-33
   0.4878457828408418E+00
   0.3952703023219456E-33
   0.4446866579307119E+00
   0.4692303808607774E-33
   0.4700028779616863E+00
   0.6215979232956129E-33
   0.4891999056212460E+00
   0.3384717588930686E-33
   0.4885247843444298E+00
   0.3487380073837687E-33
   0.4506533042674282E+00
   0.1241485450415191E-32
   0.4687378565324286E+00
   0.4909708154942330E-33
   0.4877010456514703E+00
   0.3448021079960927E-33
   0.4868353683079836E+00
   0.3456940553072421E-33
   0.4908994715834299E+00
   0.2901703506698508E-33
   0.4793551576296742E+00
   0.5998995182399907E-33
   0.4658071746401799E+00
   0.6083670234315558E-33
   0.3792725225418789E+00
   0.1960466923328640E-32
   0.4901596530027654E+00
   0.2133136350861004E-33
   0.4486686689566485E+00
   0.7645120574883082E-33
   0.4436137388969804E+00
   0.1479951375838287E-32
   0.4845147240875889E+00
   0.4829895083937285E-33
   0.4621822644880353E+00
   0.7428565775673805E-33
   0.4665749534002611E+00
   0.7625598063138084E-33
   0.4748140298854368E+00
   0.5911559720997920E-33
   0.4894494216306556E+00
  -0.5099138504253458E-33
   0.5085556973424351E+00
  -0.4115088839928637E-35
   0.4315073868792282E+00
   0.1202765253533628E-32
   0.4927349360791387E+00
   0.3118919448933245E-33
   0.5318289234069701E+00
   0.1022453131282724E-34
   0.4913399195702613E+00
   0.3278218848655807E-33
   0.5207019993127323E+00
   0.1268919842692355E-33
   0.5060964599218005E+00
   0.2037701855669453E-33
   0.5688797395553084E+00
  -0.1510038084569304E-33
   0.5273992817885249E+00
  -0.1888330565603988E-35
   0.5015044841159850E+00
   0.2014109831982532E-33
   0.5821790085903720E+00
   0.2321339510019072E-33
   0.5689618251249861E+00
   0.3572805674017350E-33
   0.3406394441885711E+00
   0.1652754509160587E-33
   0.3789869409813056E+00
   0.6268658096696927E-33
   0.5751958207059672E+00
  -0.1594401125780319E-33
   0.5666485493441931E+00
  -0.1118799525324798E-33
   0.5704108783109844E+00
  -0.4886518247401053E-34
   0.5291056376122061E+00
   0.6199345648933647E-34
   0.5451902710932107E+00
   0.5563506574931627E-34
   0.5718804315148578E+00
  -0.3825929878502712E-34
   0.5389079125598429E+00
   0.2541855679019172E-33
   0.5475507504578859E+00
   0.1978886606106310E-33
   0.5821713868960795E+00
  -0.1946510143838021E-33
   0.4925601784132149E+00
   0.2852598681433962E-33
   0.5042157546029978E+00
   0.2404924104852838E-33
   0.4961735435792954E+00
   0.3344960765934670E-33
   0.5565207963003321E+00
  -0.2897562923790212E-33
   0.4758845213308665E+00
  -0.1583412276500899E-32
   0.4950268383155212E+00
   0.3164965988919676E-33
   0.5498525443359704E+00
  -0.2703550143464631E-34
   0.5891202296000619E+00
   0.1074992148233436E-33
   0.5841957609214304E+00
  -0.1448243879400695E-33
   0.5469097664633994E+00
  -0.5368696434630615E-34
   0.5805417617847887E+00
  -0.1151239074828682E-33
   0.5106251438258953E+00
   0.1791434987639844E-33
   0.5030200512792006E+00
   0.2601171673124727E-33
   0.5033624679818332E+00
   0.1692212924488753E-33
   0.5676446096787215E+00
  -0.2163222331786546E-33
   0.5563943082830257E+00
  -0.2582802146018964E-34
   0.4947255973013097E+00
   0.2990865900845226E-33
   0.5505243828696472E+00
  -0.5128562192734164E-34
   0.5510857281550394E+00