# vtk DataFile Version 2.0
FUN3D:global_image_vtk
ASCII
DATASET UNSTRUCTURED_GRID
POINTS 213 double
   -0.2863280043523366E-18    0.0000000000000000E+00    0.2500000000000000E+01
    0.0000000000000000E+00   -0.2863280043523366E-18    0.0000000000000000E+00
    0.1250000000000000E+01    0.0000000000000000E+00    0.2500000000000000E+01
    0.0000000000000000E+00   -0.2863280043523366E-18    0.0000000000000000E+00
    0.2500000000000000E+01    0.0000000000000000E+00    0.2500000000000000E+01
    0.0000000000000000E+00   -0.2863280043523366E-18    0.0000000000000000E+00
    0.3750000000000000E+01    0.0000000000000000E+00    0.2500000000000000E+01
    0.0000000000000000E+00   -0.2863280043523366E-18    0.0000000000000000E+00
    0.5000000000000000E+01    0.0000000000000000E+00    0.2500000000000000E+01
    0.0000000000000000E+00   -0.2863280043523366E-18    0.0000000000000000E+00
    0.5000000000000000E+01    0.0000000000000000E+00    0.1250000000000000E+01
    0.0000000000000000E+00   -0.2863280043523366E-18    0.0000000000000000E+00
    0.5000000000000000E+01    0.0000000000000000E+00   -0.2863280043523366E-18
    0.0000000000000000E+00   -0.2863280043523366E-18    0.0000000000000000E+00
    0.5000000000000000E+01    0.0000000000000000E+00   -0.1250000000000000E+01
    0.0000000000000000E+00   -0.2863280043523366E-18    0.0000000000000000E+00
    0.5000000000000000E+01    0.0000000000000000E+00   -0.2500000000000000E+01
    0.0000000000000000E+00   -0.2863280043523366E-18    0.0000000000000000E+00
    0.3750000000000000E+01    0.0000000000000000E+00   -0.2500000000000000E+01
    0.0000000000000000E+00   -0.2863280043523366E-18    0.0000000000000000E+00
    0.2500000000000000E+01    0.0000000000000000E+00   -0.2500000000000000E+01
    0.0000000000000000E+00   -0.2863280043523366E-18    0.0000000000000000E+00
    0.1250000000000000E+01    0.0000000000000000E+00   -0.2500000000000000E+01
    0.0000000000000000E+00   -0.2863280043523366E-18    0.0000000000000000E+00
   -0.2863280043523366E-18    0.0000000000000000E+00   -0.2500000000000000E+01
    0.0000000000000000E+00   -0.2863280043523366E-18    0.0000000000000000E+00
   -0.2863280043523366E-18    0.0000000000000000E+00   -0.1250000000000000E+01
    0.0000000000000000E+00   -0.2863280043523366E-18    0.0000000000000000E+00
   -0.2863280043523366E-18    0.0000000000000000E+00   -0.2863280043523366E-18
    0.0000000000000000E+00   -0.2863280043523366E-18    0.0000000000000000E+00
   -0.2863280043523366E-18    0.0000000000000000E+00    0.1250000000000000E+01
    0.0000000000000000E+00   -0.2863280043523366E-18    0.0000000000000000E+00
    0.9058375365086910E+00    0.0000000000000000E+00    0.1578994732800803E+01
    0.0000000000000000E+00   -0.2863280043523366E-18    0.0000000000000000E+00
    0.3982050490726493E+01    0.0000000000000000E+00   -0.1583989954232354E+01
    0.0000000000000000E+00   -0.2863280043523366E-18    0.0000000000000000E+00
    0.4033849428301197E+01    0.0000000000000000E+00    0.1453322699199022E+01
    0.0000000000000000E+00   -0.2863280043523366E-18    0.0000000000000000E+00
    0.1040505887381675E+01    0.0000000000000000E+00   -0.1479596339503735E+01
    0.0000000000000000E+00   -0.2863280043523366E-18    0.0000000000000000E+00
    0.1099454400140349E+01    0.0000000000000000E+00   -0.3227322616384110E+00
    0.0000000000000000E+00   -0.2863280043523366E-18    0.0000000000000000E+00
    0.7354504170366591E+00    0.0000000000000000E+00    0.6593508822075582E+00
    0.0000000000000000E+00   -0.2863280043523366E-18    0.0000000000000000E+00
    0.1622302608453282E+01    0.0000000000000000E+00    0.8256214013940779E+00
    0.0000000000000000E+00   -0.2863280043523366E-18    0.0000000000000000E+00
    0.2145871574390382E+01    0.0000000000000000E+00   -0.1650070333782557E+01
    0.0000000000000000E+00   -0.2863280043523366E-18    0.0000000000000000E+00
    0.4086422318222992E+01    0.0000000000000000E+00   -0.4612828702537229E+00
    0.0000000000000000E+00   -0.2863280043523366E-18    0.0000000000000000E+00
    0.2979540174134984E+01    0.0000000000000000E+00   -0.8579242121530853E+00
    0.0000000000000000E+00   -0.2863280043523366E-18    0.0000000000000000E+00
    0.3045064261640043E+01    0.0000000000000000E+00   -0.1836846154397680E+01
    0.0000000000000000E+00   -0.2863280043523366E-18    0.0000000000000000E+00
    0.3428197553792836E+01    0.0000000000000000E+00    0.3508002863614053E+00
    0.0000000000000000E+00   -0.2863280043523366E-18    0.0000000000000000E+00
    0.4309693860063405E+01    0.0000000000000000E+00    0.5185680230613409E+00
    0.0000000000000000E+00   -0.2863280043523366E-18    0.0000000000000000E+00
    0.1827272193562204E+01    0.0000000000000000E+00    0.1738996113203182E+01
    0.0000000000000000E+00   -0.2863280043523366E-18    0.0000000000000000E+00
    0.2808563282768077E+01    0.0000000000000000E+00    0.1325493893339706E+01
    0.0000000000000000E+00   -0.2863280043523366E-18    0.0000000000000000E+00
    0.1895995683864404E+01    0.0000000000000000E+00   -0.8731419609589618E+00
    0.0000000000000000E+00   -0.2863280043523366E-18    0.0000000000000000E+00
    0.2273179336307740E+01    0.0000000000000000E+00    0.4906150219227333E-01
    0.0000000000000000E+00   -0.2863280043523366E-18    0.0000000000000000E+00
    0.5000000000000000E+01    0.0000000000000000E+00    0.2500000000000000E+01
    0.0000000000000000E+00    0.1250000000000000E+01    0.0000000000000000E+00
    0.5000000000000000E+01    0.0000000000000000E+00    0.2500000000000000E+01
    0.0000000000000000E+00    0.2500000000000000E+01    0.0000000000000000E+00
    0.5000000000000000E+01    0.0000000000000000E+00    0.2500000000000000E+01
    0.0000000000000000E+00    0.3750000000000000E+01    0.0000000000000000E+00
    0.5000000000000000E+01    0.0000000000000000E+00    0.2500000000000000E+01
    0.0000000000000000E+00    0.5000000000000000E+01    0.0000000000000000E+00
    0.3750000000000000E+01    0.0000000000000000E+00    0.2500000000000000E+01
    0.0000000000000000E+00    0.5000000000000000E+01    0.0000000000000000E+00
    0.2500000000000000E+01    0.0000000000000000E+00    0.2500000000000000E+01
    0.0000000000000000E+00    0.5000000000000000E+01    0.0000000000000000E+00
    0.1250000000000000E+01    0.0000000000000000E+00    0.2500000000000000E+01
    0.0000000000000000E+00    0.5000000000000000E+01    0.0000000000000000E+00
   -0.2863280043523366E-18    0.0000000000000000E+00    0.2500000000000000E+01
    0.0000000000000000E+00    0.5000000000000000E+01    0.0000000000000000E+00
   -0.2863280043523366E-18    0.0000000000000000E+00    0.2500000000000000E+01
    0.0000000000000000E+00    0.3750000000000000E+01    0.0000000000000000E+00
   -0.2863280043523366E-18    0.0000000000000000E+00    0.2500000000000000E+01
    0.0000000000000000E+00    0.2500000000000000E+01    0.0000000000000000E+00
   -0.2863280043523366E-18    0.0000000000000000E+00    0.2500000000000000E+01
    0.0000000000000000E+00    0.1250000000000000E+01    0.0000000000000000E+00
    0.9631080833812172E+00    0.0000000000000000E+00    0.2500000000000000E+01
    0.0000000000000000E+00    0.9613285771248219E+00    0.0000000000000000E+00
    0.3981732467264904E+01    0.0000000000000000E+00    0.2500000000000000E+01
    0.0000000000000000E+00    0.4069753913607991E+01    0.0000000000000000E+00
    0.4035525118777670E+01    0.0000000000000000E+00    0.2500000000000000E+01
    0.0000000000000000E+00    0.1012015867579395E+01    0.0000000000000000E+00
    0.9641717640894248E+00    0.0000000000000000E+00    0.2500000000000000E+01
    0.0000000000000000E+00    0.3972455192261839E+01    0.0000000000000000E+00
    0.1547743040396780E+01    0.0000000000000000E+00    0.2500000000000000E+01
    0.0000000000000000E+00    0.2928177746738678E+01    0.0000000000000000E+00
    0.6985170616192014E+00    0.0000000000000000E+00    0.2500000000000000E+01
    0.0000000000000000E+00    0.3068281976055466E+01    0.0000000000000000E+00
    0.8931277594515110E+00    0.0000000000000000E+00    0.2500000000000000E+01
    0.0000000000000000E+00    0.2052465503257726E+01    0.0000000000000000E+00
    0.2183293750162785E+01    0.0000000000000000E+00    0.2500000000000000E+01
    0.0000000000000000E+00    0.3959073795658649E+01    0.0000000000000000E+00
    0.3855333506014705E+01    0.0000000000000000E+00    0.2500000000000000E+01
    0.0000000000000000E+00    0.2931218481500625E+01    0.0000000000000000E+00
    0.3152495579421047E+01    0.0000000000000000E+00    0.2500000000000000E+01
    0.0000000000000000E+00    0.3635850502723324E+01    0.0000000000000000E+00
    0.3103247580566054E+01    0.0000000000000000E+00    0.2500000000000000E+01
    0.0000000000000000E+00    0.4331682712472464E+01    0.0000000000000000E+00
    0.3266837581688852E+01    0.0000000000000000E+00    0.2500000000000000E+01
    0.0000000000000000E+00    0.1886092433583972E+01    0.0000000000000000E+00
    0.4231539241296245E+01    0.0000000000000000E+00    0.2500000000000000E+01
    0.0000000000000000E+00    0.1915865356532799E+01    0.0000000000000000E+00
    0.1909741006522088E+01    0.0000000000000000E+00    0.2500000000000000E+01
    0.0000000000000000E+00    0.7170024419130505E+00    0.0000000000000000E+00
    0.2880784107213163E+01    0.0000000000000000E+00    0.2500000000000000E+01
    0.0000000000000000E+00    0.9046598906449592E+00    0.0000000000000000E+00
    0.2014316024535771E+01    0.0000000000000000E+00    0.2500000000000000E+01
    0.0000000000000000E+00    0.1762464314805728E+01    0.0000000000000000E+00
    0.2670003247036656E+01    0.0000000000000000E+00    0.2500000000000000E+01
    0.0000000000000000E+00    0.2850479545835163E+01    0.0000000000000000E+00
    0.5000000000000000E+01    0.0000000000000000E+00    0.1250000000000000E+01
    0.0000000000000000E+00    0.5000000000000000E+01    0.0000000000000000E+00
    0.5000000000000000E+01    0.0000000000000000E+00   -0.2863280043523366E-18
[...]
POINT_DATA 213
SCALARS rho double 1
LOOKUP_TABLE default
   0.1344271449750181E+01
  -0.4945910084775644E-08
   0.9569758915553371E+00
  -0.6674753191181569E-09
   0.9462964200959080E+00
  -0.1434375910744125E-08
   0.9418612718928586E+00
  -0.2613536036824936E-08
   0.8437304900409557E+00
  -0.2281955884014433E-08
   0.7738004326021114E+00
  -0.2223947403837965E-08
   0.7629818923545161E+00
  -0.2395057665865869E-08
   0.7664577919363360E+00
  -0.4101398412323166E-08
   0.8307874046188978E+00
  -0.4496495055792543E-08
   0.9352972565159566E+00
  -0.1263564721944174E-08
   0.9342219822012731E+00
  -0.1310397992878335E-08
   0.9617195286396083E+00
  -0.1922816467258879E-08
   0.1449457451807604E+01
  -0.2864822197181759E-08
   0.1494090644662714E+01
  -0.6306198765404266E-08
   0.1644667277204173E+01
  -0.7545002467442542E-08
   0.1425832049575553E+01
  -0.5418677424198355E-08
   0.1009014435352247E+01
  -0.1239269050283828E-08
   0.9508810865006223E+00
  -0.1018712070351977E-08
   0.9436508501899402E+00
  -0.8878881485818506E-09
   0.9581561034484412E+00
   0.1230643900464960E-09
   0.9415852462543761E+00
   0.3546965154274945E-10
   0.1036377240648760E+01
  -0.9193176614812115E-09
   0.9256161101056299E+00
  -0.2362438153129188E-09
   0.9322349872514397E+00
  -0.1799974633324515E-08
   0.9537479579704220E+00
  -0.2840284940142964E-08
   0.9518769567196872E+00
  -0.1713227453368261E-08
   0.9348583129228439E+00
  -0.2284237494057513E-08
   0.9564028419902103E+00
  -0.1202145327019898E-08
   0.9376098403686673E+00
  -0.1480836450267378E-08
   0.9300661525860440E+00
  -0.1463765175607286E-08
   0.9445157493356163E+00
  -0.5110854160829286E-09
   0.8863506519304640E+00
   0.3608915451031923E-09
   0.9423579969834128E+00
  -0.1843465767221798E-08
   0.9635003079921026E+00
  -0.6068817440034339E-09
   0.1008299039511913E+01
  -0.6253333966502896E-10
   0.1006735291839016E+01
   0.4582662545997886E-11
   0.1001964617623831E+01
  -0.6375664987218722E-10
   0.1003219581551884E+01
  -0.1068264907469749E-09
   0.1004132053992160E+01
  -0.1240612825855848E-09
   0.1005228602964919E+01
  -0.1119468731793170E-09
   0.1004260408276864E+01
  -0.8549095931598471E-10
   0.1008308190003037E+01
  -0.1378722083650962E-09
   0.1023893138001628E+01
  -0.2877217905879166E-09
   0.1063553956096204E+01
  -0.2129697252131304E-09
   0.1019182513304049E+01
  -0.5964231118814869E-09
   0.1001780766443437E+01
  -0.6421919742189217E-10
   0.9643309939204600E+00
  -0.8132472440391340E-09
   0.1005283709011389E+01
  -0.1275244164247788E-09
   0.1000721163302672E+01
  -0.8507034145149032E-10
   0.1008742083839902E+01
  -0.1666486120436551E-09
   0.1008078083670681E+01
  -0.1016434309144023E-09
   0.1002349807136925E+01
  -0.1142779195578540E-09
   0.9979986848188684E+00
  -0.3037775153860277E-10
   0.1000583560954853E+01
  -0.6365683499253841E-10
   0.1001620123677899E+01
  -0.1048596402541335E-09
   0.9826893073889390E+00
  -0.2286227058969025E-09
   0.9842439642575318E+00
  -0.2577788521855308E-09
   0.9833314037112092E+00
  -0.7100495460014414E-09
   0.9788207413061800E+00
  -0.7740790472244330E-09
   0.9902638161504501E+00
  -0.1623192335751701E-09
   0.9934561553250069E+00
  -0.4980183334556383E-10
   0.1002011751677770E+01
  -0.5894270517144785E-10
   0.1002134465686947E+01
  -0.5625284473132617E-10
   0.1002276326550650E+01
  -0.5731978965452330E-10
   0.1001794758391340E+01
  -0.6533170697736771E-10
   0.1009778638885412E+01
  -0.1516773523252440E-10
   0.1006429109017502E+01
   0.9502556101943299E-11
   0.9558786961035035E+00
  -0.3814301552151432E-09
   0.9249398411695698E+00
  -0.7810253389308372E-09
   0.1007036755524024E+01
  -0.1606722978324466E-10
   0.1004504925174877E+01
  -0.1829983213259921E-10
   0.9143642077256208E+00
  -0.6069409031027249E-09
   0.9089667861105257E+00
  -0.6701255947820939E-09
   0.8751688903722686E+00
  -0.8701196356176743E-09
   0.9767271885714484E+00
  -0.2498445907398262E-09
   0.1000452621148908E+01
  -0.1367233632512759E-10
   0.1005831087460285E+01
  -0.1120134853302778E-10
   0.1012882803225224E+01
   0.5746969886442267E-10
   0.1011618951276806E+01
   0.2238423569476238E-10
   0.1010438648581254E+01
   0.4406425635194075E-10
   0.1005468280913278E+01
  -0.2063315010870022E-10
   0.9907612680193837E+00
  -0.2640702435563346E-09
   0.1005140325681998E+01
  -0.4900891983730038E-11
   0.9860567246293236E+00
  -0.3377328304038333E-10
   0.1005609737622695E+01
   0.2559245671661524E-10
   0.1004248005740174E+01
  -0.8671838879454663E-10
   0.1002888437724274E+01
  -0.7812865271681239E-10
   0.1003345420478464E+01
  -0.8056802200424883E-10
   0.1003992731903480E+01
  -0.8194640557982654E-10
   0.1005101716205729E+01
  -0.1154867615142263E-09
   0.1003211645199605E+01
  -0.1160775369878105E-09
   0.1002663160013484E+01
  -0.9341767543128107E-10
   0.1002586231472169E+01
  -0.1041358029536852E-09
   0.1004060870975029E+01
  -0.9477772393767482E-10
   0.1004320346069438E+01
  -0.9838976707239067E-10
   0.1001641920442108E+01
  -0.1028417000172566E-09
   0.1002273116038102E+01
  -0.9783487878860508E-10
   0.1002543475641196E+01
  -0.9433349505849283E-10
   0.1003469520871977E+01
  -0.1175078579558140E-09
   0.1003372640318011E+01
  -0.1100948861789798E-09
   0.1003232230073990E+01
  -0.8603611200061693E-10
   0.1004423863500629E+01
  -0.1174342280442967E-09
   0.1004313070891116E+01
  -0.1190051159059107E-09
   0.1003659849431757E+01
  -0.8745921660761534E-10
   0.1003723103982407E+01
  -0.1119102171919791E-09
   0.1004329726476608E+01
  -0.1185122084473270E-09
   0.1004465021926474E+01
  -0.1294439919102627E-09
   0.1003623375387112E+01
  -0.1134520235242249E-09
   0.1064422801050700E+01
  -0.2356577692419018E-09
   0.1028473621467182E+01
  -0.2664670498133481E-09
   0.1009586657364687E+01
  -0.1429116226645267E-09
   0.1006638837513464E+01
  -0.1301526996311946E-09
   0.1163935522449671E+01
  -0.1263745805130953E-08
   0.1086087969851713E+01
  -0.2297974842269780E-09
   0.1007893419313062E+01
  -0.1394785507978244E-09
   0.1007245533350528E+01
  -0.1364740505277132E-09
   0.1006798074183509E+01
  -0.1227108170371887E-09
   0.1013018287009748E+01
  -0.2489785279109303E-09
   0.1019384609577788E+01
  -0.2213087908645257E-09
   0.1235203670049665E+01
  -0.2239035155787952E-08
   0.1032529466771669E+01
  -0.1556972022681807E-09
   0.1046681191677586E+01
  -0.3620634171566421E-09
   0.1200953642609215E+01
  -0.1791224137810946E-08
   0.1014718916076709E+01
  -0.1937017297259356E-09
   0.1032291153305960E+01
  -0.3309512883629380E-09
   0.1028095236789670E+01
  -0.3908966161431303E-09
   0.1014628639880928E+01
  -0.2332668931820471E-09
   0.1029216893275057E+01
  -0.3394329310960337E-09
   0.1001994816403715E+01
  -0.7251914854797199E-10
   0.9606929197106809E+00
  -0.4540838280201452E-09
   0.1006852582841261E+01
  -0.1285964158487192E-09
   0.1001327193356230E+01
  -0.1103489307485693E-09
   0.1010821905420694E+01
  -0.1581200321502537E-09
   0.1012246098910489E+01
  -0.1474016457160522E-09
   0.1000946006966710E+01
  -0.1072179712702440E-09
   0.9979121234054472E+00
  -0.3076741124206034E-10
   0.9980632373041451E+00
  -0.8062848682590253E-10
   0.1001184143414436E+01
  -0.9582563218389826E-10
   0.9841362011963062E+00
  -0.1277556926354534E-09
   0.9814879615545142E+00
  -0.1155808617689469E-09
   0.9648483322370170E+00
  -0.2842170717990923E-09
   0.9680877129642962E+00
  -0.6583524948764153E-09
   0.9914124472212119E+00
  -0.1104186560844468E-09
   0.9910858388733197E+00
  -0.6839254246735739E-10
   0.9925545095931522E+00
  -0.4152853910773136E-10
   0.1001727533894392E+01
  -0.8968518574107540E-10
   0.9993409402184000E+00
  -0.3816348901843541E-10
   0.9941410835133585E+00
  -0.4165473010314055E-10
   0.1007038753603808E+01
  -0.1939516385926910E-10
   0.1022539494137114E+01
  -0.1164686886608667E-09
   0.1001088098525222E+01
  -0.1962321438629280E-09
   0.1008798496301346E+01
  -0.1488154354944514E-09
   0.1004773846126413E+01
  -0.1277597770048371E-09
   0.1009050237488259E+01
  -0.1583389770006141E-09
   0.9966470332397741E+00
  -0.7384480863286124E-10
   0.1004988557993260E+01
  -0.7880980306244035E-09
   0.1003325535215987E+01
  -0.1132134816550945E-09
   0.9949431085504643E+00
  -0.5234370663640419E-10
   0.9832680782005426E+00
  -0.1101964940212153E-09
   0.9943957454994272E+00
  -0.4377409023570392E-10
   0.9973420656290573E+00
  -0.4125779340547862E-10
   0.9932190085629442E+00
  -0.4523115742827021E-10
   0.1001306487169719E+01
  -0.9712441303408491E-10
   0.1003001636984000E+01
  -0.1078492796982274E-09
   0.1002183579663466E+01
  -0.9249238718478805E-10
   0.9947078544999144E+00
  -0.7618713974264170E-11
   0.9937965521463240E+00
  -0.5722355187194523E-10
   0.1004867865562279E+01
  -0.1292958477822870E-09
   0.1020077607445935E+01
  -0.1587117956661124E-09
   0.1005364552430869E+01
  -0.1344141791034825E-09
   0.9816998152693482E+00
  -0.9455113836087675E-10
   0.1004973031274848E+01
  -0.1182938952103501E-09
   0.1012382323448547E+01
  -0.1484806335873147E-09
   0.9871424296255175E+00
  -0.5139119600248409E-09
   0.9551513534743895E+00
  -0.1633660515944811E-09
   0.9865075700346476E+00
  -0.1061161393438566E-09
   0.9864532950075661E+00
  -0.1197414526844395E-09
   0.9918946944284649E+00
  -0.6623265625880153E-09
   0.9933508198372865E+00
  -0.1641254435811565E-09
   0.9954406189970405E+00
  -0.5538678568858608E-09
   0.1037336789728439E+01
  -0.2630912495613552E-09
   0.1033536797990595E+01
  -0.5426948446352506E-09
   0.1001443320814550E+01
  -0.5965627574754154E-10
   0.1001930499797304E+01
  -0.1005870911515163E-09
   0.9912478515978023E+00
  -0.2125279496791941E-10
   0.9910920509410772E+00
  -0.5389768099012076E-10
   0.9648489990836021E+00
  -0.2783951002253108E-09
   0.9933282604854832E+00
  -0.3790990877782346E-10
   0.1006058638637307E+01
  -0.1124002837002929E-10
   0.1001954027110565E+01
  -0.2309421589030887E-10
   0.9908735804765060E+00
  -0.7837298533873007E-10
   0.9740945214065743E+00
  -0.3970827581502425E-09
   0.9418802141957385E+00
  -0.6823665723291258E-09
   0.9819379692036662E+00
  -0.3940120644669349E-09
   0.9794803560690505E+00
  -0.7676129155554193E-10
   0.9704172061921293E+00
  -0.2106523726864774E-09
   0.9720478947062690E+00
  -0.3885434607335549E-09
   0.9557351702889216E+00
  -0.2755852799493483E-09
   0.9496731213610722E+00
  -0.4451303204578178E-09
   0.9528673572394051E+00
  -0.8870707827892273E-09
   0.1002659534063452E+01
  -0.1135773258965048E-09
   0.1002471631970974E+01
  -0.1103691366452321E-09
   0.1000509329298002E+01
  -0.7157422694434434E-10
   0.1001677321730963E+01
  -0.1442664147910631E-10
   0.9607931434938088E+00
  -0.6038591492192927E-09
   0.9491625507087988E+00
  -0.8640668743795731E-09
   0.9584503069195307E+00
  -0.8197535293771109E-09
   0.1001121207785023E+01
  -0.9862393098101824E-10
   0.1000496140593597E+01
  -0.8285756378911701E-10
   0.1001156644177885E+01
  -0.3635548659344688E-10
   0.9807376183689175E+00
  -0.9826173079265895E-10
   0.9806000808946869E+00
  -0.1839682375815421E-09
   0.9628476109176152E+00
  -0.6308549941054206E-09
SCALARS u double 1
LOOKUP_TABLE default
   0.0000000000000000E+00
   0.0000000000000000E+00
   0.0000000000000000E+00
   0.0000000000000000E+00
   0.0000000000000000E+00
   0.0000000000000000E+00
   0.0000000000000000E+00
   0.0000000000000000E+00
   0.0000000000000000E+00
   0.0000000000000000E+00
   0.0000000000000000E+00
   0.0000000000000000E+00
   0.0000000000000000E+00
   0.0000000000000000E+00
   0.0000000000000000E+00
   0.0000000000000000E+00
   0.0000000000000000E+00
   0.0000000000000000E+00
   0.0000000000000000E+00
   0.0000000000000000E+00
   0.0000000000000000E+00
   0.0000000000000000E+00
   0.0000000000000000E+00
   0.0000000000000000E+00
   0.0000000000000000E+00
   0.0000000000000000E+00
   0.0000000000000000E+00
   0.0000000000000000E+00
   0.0000000000000000E+00
   0.0000000000000000E+00
   0.0000000000000000E+00
   0.0000000000000000E+00
   0.0000000000000000E+00
   0.0000000000000000E+00
   0.0000000000000000E+00
   0.0000000000000000E+00
   0.0000000000000000E+00
   0.0000000000000000E+00
   0.0000000000000000E+00
   0.0000000000000000E+00
   0.0000000000000000E+00
   0.0000000000000000E+00
   0.0000000000000000E+00
   0.0000000000000000E+00
   0.0000000000000000E+00
   0.0000000000000000E+00
   0.0000000000000000E+00
   0.0000000000000000E+00
   0.0000000000000000E+00
   0.0000000000000000E+00
   0.0000000000000000E+00
   0.0000000000000000E+00
   0.0000000000000000E+00
   0.0000000000000000E+00
   0.0000000000000000E+00
   0.0000000000000000E+00
   0.0000000000000000E+00
   0.0000000000000000E+00
   0.0000000000000000E+00
   0.0000000000000000E+00
   0.0000000000000000E+00
   0.0000000000000000E+00
   0.0000000000000000E+00
   0.0000000000000000E+00
   0.0000000000000000E+00
   0.0000000000000000E+00
   0.4950176835703065E+00
   0.4760954518290638E-09
   0.5338221300605301E+00
  -0.1167617089530646E-09
   0.5183269247791520E+00
  -0.1479992048405711E-09
   0.4930649880192736E+00
  -0.6082160108931298E-11
   0.4847578719332885E+00
   0.1241463927076702E-09
   0.4867666423653532E+00
   0.1704834769757513E-09
   0.4890763583300930E+00
   0.1638212562602287E-09
   0.4957848880329541E+00
   0.9454469340768288E-10
   0.4898301883790103E+00
   0.1503014522945569E-09
   0.4717388493441518E+00
   0.2814244973455678E-09
   0.4454814153587355E+00
   0.2713875619248891E-09
   0.4833907048923139E+00
  -0.3521049261077435E-09
   0.5098397462670722E+00
  -0.4473640902212782E-11
   0.4390712699546571E+00
   0.4425850961729988E-09
   0.4949403964695982E+00
   0.1240636090715142E-09
   0.5225330362485406E+00
   0.2275616175670074E-10
   0.4962454545658530E+00
   0.1247398377778931E-09
   0.5226154963597838E+00
   0.4731410441920892E-10
   0.5038881743029437E+00
   0.8731171349122005E-10
   0.5646883609040210E+00
  -0.8408168601489100E-10
   0.5247509156866951E+00
  -0.5110312484805931E-11
   0.4991466119501437E+00
   0.8398465054352652E-10
   0.5730561900932997E+00
  -0.7815014899288049E-11
   0.5696051096253445E+00
   0.9333621067414238E-10
   0.3737941449627640E+00
  -0.1970814834286515E-09
   0.3998658123888646E+00
   0.1226185557056875E-09
   0.5599326587320065E+00
  -0.1608660764175488E-09
   0.5564587630637212E+00
  -0.5804848845101317E-10
   0.4942627332975086E+00
  -0.1509780169100482E-10
   0.4948659466161586E+00
  -0.2220986969158067E-10
   0.4925735874286687E+00
  -0.2501585961045302E-10
   0.4914269544072222E+00
  -0.5669908373869814E-11
   0.5162356851547857E+00
  -0.1349689871994253E-09
   0.5361798305996600E+00
  -0.1403153853008855E-09
   0.4947413356161641E+00
   0.3762202186838507E-09
   0.4524112203086087E+00
   0.6344503785205934E-09
   0.5128777326251577E+00
  -0.1175149815301667E-09
   0.5117942041098880E+00
  -0.1087841780791220E-09
   0.4783517503920882E+00
   0.6132390103899550E-09
   0.4931696655283802E+00
   0.6607238059212309E-09
   0.4603173591430897E+00
   0.8128453015244582E-09
   0.5244892719891517E+00
   0.2120387175408645E-09
   0.5297434248113091E+00
  -0.6623231743842255E-10
   0.5129579301457439E+00
  -0.1229771901001227E-09
   0.5328358320396513E+00
  -0.2012440303875929E-09
   0.5308941037924561E+00
  -0.1807275071877493E-09
   0.5309856171151758E+00
  -0.1955956186349309E-09
   0.5063656735877597E+00
  -0.9550160031658311E-10
   0.5282461954745462E+00
   0.1088601937020449E-09
   0.5410312730949731E+00
  -0.1613246025927220E-09
   0.5361261481086619E+00
   0.6858299819894899E-10
   0.5374105276950342E+00
  -0.1171069298594844E-09
   0.4965364818581578E+00
   0.8308758227218321E-10
   0.4975340903873433E+00
   0.7575611036935077E-10
   0.4963842644371577E+00
   0.8647737050482616E-10
   0.4955220267405971E+00
   0.9328293654961957E-10
   0.4904581830732184E+00
   0.1659415353974781E-09
   0.4903044384775858E+00
   0.1655307880350154E-09
   0.4862182763992239E+00
   0.1164583725471581E-09
   0.4854049561028892E+00
   0.1011265353438969E-09
   0.4932164387750164E+00
   0.1375801974235864E-09
   0.4909833312071522E+00
   0.1477233044289929E-09
   0.4832194696293098E+00
   0.9777149464440160E-10
   0.4872622776955288E+00
   0.8322226768526394E-10
   0.4880124909440671E+00
   0.7086008088806450E-10
   0.4872445931144329E+00
   0.1443189780739779E-09
   0.4882696668991773E+00
   0.1607477866875770E-09
   0.4952597556330110E+00
   0.1180217131051212E-09
   0.4900967167386303E+00
   0.1770583262677330E-09
   0.4904000090231428E+00
   0.1743830825743613E-09
   0.4944232925330942E+00
   0.1305930032332217E-09
   0.4868002480564700E+00
   0.1500730521893989E-09
   0.4892385983522653E+00
   0.1681904939995544E-09
   0.4881393369234500E+00
   0.1771178298313847E-09
   0.4878457828408801E+00
   0.1540441125685405E-09
   0.4446866579307636E+00
   0.2069573778691133E-09
   0.4700028779616828E+00
   0.2573890694303190E-09
   0.4891999056212488E+00
   0.1464814163289604E-09
   0.4885247843444320E+00
   0.1524175427089032E-09
   0.4506533042673968E+00
   0.7645856673892664E-09
   0.4687378565324214E+00
   0.2420389652725205E-09
   0.4877010456514728E+00
   0.1532578793205316E-09
   0.4868353683079777E+00
   0.1610281265371380E-09
   0.4908994715834269E+00
   0.1295189080953358E-09
   0.4793551576296795E+00
   0.2387854201701474E-09
   0.4658071746401748E+00
   0.2396825603495410E-09
   0.3792725225418830E+00
   0.1223986312986560E-08
   0.4901596530027760E+00
   0.8061480728578964E-10
   0.4486686689566487E+00
   0.3151463970993189E-09
   0.4436137388969925E+00
   0.9533537086452355E-09
   0.4845147240875908E+00
   0.1984934950332123E-09
   0.4621822644880394E+00
   0.3047093698992316E-09
   0.4665749534002634E+00
   0.2603802788160792E-09
   0.4748140298854399E+00
   0.2436054381991908E-09
   0.4894494216306592E+00
  -0.1910556240557950E-09
   0.5085556973424387E+00
  -0.1846024647778801E-10
   0.4315073868792256E+00
   0.6815699310793536E-09
   0.4927349360791424E+00
   0.1289723795508899E-09
   0.5318289234069747E+00
  -0.3572543886977710E-10
   0.4913399195702620E+00
   0.1292234324372901E-09
   0.5207019993127410E+00
   0.1714622471444999E-10
   0.5060964599218044E+00
   0.6717701209402671E-10
   0.5688797395553084E+00
  -0.8456684178686966E-10
   0.5273992817885282E+00
  -0.2808359373302817E-10
   0.5015044841159929E+00
   0.6864142280061975E-10
   0.5821790085903789E+00
   0.1160037734770337E-09
   0.5689618251249906E+00
   0.1780897967451674E-09
   0.3406394441885661E+00
   0.1217298060393924E-09
   0.3789869409813027E+00
   0.3279208042370357E-09
   0.5751958207059769E+00
  -0.8773909137011254E-10
   0.5666485493442003E+00
  -0.8431442788923521E-10
   0.5704108783109851E+00
  -0.5173101563510533E-10
   0.5291056376122073E+00
  -0.1450250077842899E-10
   0.5451902710932136E+00
  -0.1721704849769102E-10
   0.5718804315148605E+00
  -0.5477204343777279E-10
   0.5389079125598440E+00
   0.4829089813861962E-10
   0.5475507504578904E+00
   0.7790948937575165E-10
   0.5821713868960829E+00
  -0.8298549247660588E-10
   0.4925601784132155E+00
   0.1058743522059464E-09
   0.5042157546030009E+00
   0.8630949005820864E-10
   0.4961735435792984E+00
   0.1236850314876414E-09
   0.5565207963003326E+00
  -0.1241713954115253E-09
   0.4758845213308647E+00
  -0.5661223564376347E-09
   0.4950268383155297E+00
   0.1249373801886350E-09
   0.5498525443359789E+00
  -0.3273898542614482E-10
   0.5891202296000824E+00
   0.5188812883475662E-10
   0.5841957609214516E+00
  -0.6538684866936039E-10
   0.5469097664634025E+00
  -0.4473508518208630E-10
   0.5805417617848152E+00
  -0.3444550439659603E-10
   0.5106251438259086E+00
   0.5080856106612455E-10
   0.5030200512792103E+00
   0.9022552677180684E-10
   0.5033624679818614E+00
   0.5477772751603272E-10
   0.5676446096787118E+00
  -0.9024703772500494E-10
   0.5563943082830268E+00
  -0.4972372004524887E-10
   0.4947255973013117E+00
   0.1145814802388869E-09
   0.5505243828696509E+00
  -0.7783345423359148E-10
   0.5510857281550434E+00