title="tecplot geometry and solution file"
variables = x y z rho u v w p mach temperature
zone t="boundary 1 bc-1", solutiontime= 0.3000000E+02, strandid=1001, i=32, j=46, f=feblock
 -0.476928439289E-18 -0.476928439289E-18 -0.476928439289E-18 -0.476928439289E-18 -0.476928439289E-18 -0.476928439289E-18 -0.476928439289E-18
 -0.476928439289E-18 -0.476928439289E-18 -0.476928439289E-18 -0.476928439289E-18 -0.476928439289E-18 -0.476928439289E-18 -0.476928439289E-18
 -0.476928439289E-18 -0.476928439289E-18 -0.476928439289E-18 -0.476928439289E-18 -0.476928439289E-18 -0.476928439289E-18 -0.476928439289E-18
 -0.476928439289E-18 -0.476928439289E-18 -0.476928439289E-18 -0.476928439289E-18 -0.476928439289E-18 -0.476928439289E-18 -0.476928439289E-18
 -0.476928439289E-18 -0.476928439289E-18 -0.476928439289E-18 -0.476928439289E-18
  0.250000000000E+01  0.250000000000E+01  0.125000000000E+01  0.146289271009E+01  0.157686156160E+01  0.308372018325E+00 -0.476928439289E-18
 -0.125000000000E+01 -0.600232012419E+00  0.250000000000E+01  0.477386199275E+00  0.742988685424E+00 -0.739814786992E+00  0.177790177481E+01
  0.155830813274E+01  0.250000000000E+01 -0.250000000000E+01 -0.154800130438E+01 -0.487811078581E+00  0.250000000000E+01  0.627766083140E+00
 -0.345533899378E+00 -0.178862290564E+01 -0.158811787973E+01  0.125000000000E+01 -0.250000000000E+01 -0.144524380962E+01 -0.476928439289E-18
 -0.125000000000E+01 -0.250000000000E+01 -0.250000000000E+01 -0.250000000000E+01
 -0.476928439289E-18  0.125000000000E+01 -0.476928439289E-18  0.103724302461E+01  0.219251206392E+01  0.922061490191E+00 -0.476928439289E-18
 -0.476928439289E-18  0.715990576545E+00  0.250000000000E+01  0.202479342020E+01  0.324151231464E+01  0.175434191980E+01  0.310152362409E+01
  0.404200324774E+01  0.375000000000E+01 -0.476928439289E-18  0.930412228790E+00  0.299062775774E+01  0.500000000000E+01  0.429310310915E+01
  0.409252726285E+01  0.187029682677E+01  0.284428995242E+01  0.500000000000E+01  0.125000000000E+01  0.394624082883E+01  0.500000000000E+01
  0.500000000000E+01  0.250000000000E+01  0.375000000000E+01  0.500000000000E+01
  0.134427120874E+01  0.106355337947E+01  0.142583183049E+01  0.108608762451E+01  0.103229060216E+01  0.120095338336E+01  0.164466686833E+01
  0.149409013972E+01  0.123520338835E+01  0.102389267991E+01  0.102809468302E+01  0.101301783275E+01  0.103252921020E+01  0.101471847592E+01
  0.100663847937E+01  0.100830781976E+01  0.144945702826E+01  0.116393504797E+01  0.101462809007E+01  0.100426007868E+01  0.100679777131E+01
  0.100724510280E+01  0.104668059826E+01  0.101938406299E+01  0.100424766514E+01  0.106442280594E+01  0.100789301844E+01  0.100288822791E+01
  0.100334523372E+01  0.102847313690E+01  0.100958633687E+01  0.100399293491E+01
  0.000000000000E+00  0.445482009065E+00  0.000000000000E+00  0.468737737898E+00  0.462182942033E+00  0.443614218197E+00  0.000000000000E+00
  0.000000000000E+00  0.379272885511E+00  0.471739271404E+00  0.466575692996E+00  0.479355714301E+00  0.490159750597E+00  0.484515186837E+00
  0.488524405474E+00  0.489830825205E+00  0.000000000000E+00  0.450654222551E+00  0.474814731491E+00  0.495785238627E+00  0.490899381125E+00
  0.486835557966E+00  0.448669240511E+00  0.465807889243E+00  0.496536816641E+00  0.444686413424E+00  0.487701103995E+00  0.497534334239E+00
  0.496384326353E+00  0.470003391026E+00  0.489200218520E+00  0.495522109388E+00
  0.000000000000E+00  0.000000000000E+00  0.000000000000E+00  0.186086033994E-01 -0.276691070100E-02  0.332951066703E-01  0.000000000000E+00
  0.000000000000E+00 -0.594712675697E-02  0.000000000000E+00  0.356640480817E-02 -0.566633203129E-02 -0.416070570136E-02  0.305673587904E-04
 -0.106165695743E-02  0.000000000000E+00  0.000000000000E+00 -0.764121933948E-02  0.359683814766E-03  0.000000000000E+00 -0.203492638414E-02
 -0.138317021108E-02  0.156558514308E-02 -0.158520431402E-02 -0.634634451228E-04  0.000000000000E+00 -0.283713909329E-04 -0.196313363026E-03
  0.807242059554E-03  0.000000000000E+00  0.000000000000E+00  0.000000000000E+00
  0.000000000000E+00  0.452184654466E-01  0.000000000000E+00  0.123932977580E+00  0.247646622463E-01  0.165644446003E+00  0.000000000000E+00
  0.000000000000E+00  0.155763018947E+00  0.351819571102E-02  0.259784071096E-01 -0.651227653506E-02  0.748997093313E-01  0.371831586495E-02
 -0.149392613835E-03  0.458690576717E-03  0.000000000000E+00  0.140954002974E+00 -0.808568051189E-02  0.237161037726E-02 -0.304072413882E-03
 -0.438187303381E-02  0.255018604544E-01 -0.194954198446E-02  0.308350480728E-02  0.837460364472E-01 -0.121907946092E-02  0.268489511015E-02
  0.264017887679E-02  0.279392055069E-02 -0.834874466451E-03  0.344925351639E-02
  0.960184401878E+00  0.782340138081E+00  0.101844189487E+01  0.808726232239E+00  0.746125385260E+00  0.879446185580E+00  0.117475196547E+01
  0.106719888439E+01  0.916619813460E+00  0.737394762023E+00  0.743553488289E+00  0.725758743702E+00  0.757454828302E+00  0.729187894108E+00
  0.720784623941E+00  0.722781357503E+00  0.103531891344E+01  0.858316782801E+00  0.728064561363E+00  0.718614925871E+00  0.721013056982E+00
  0.721151172638E+00  0.760018281395E+00  0.732627920486E+00  0.718530835160E+00  0.791042941705E+00  0.722107560829E+00  0.717199162967E+00
  0.717636661510E+00  0.741799245668E+00  0.724056263823E+00  0.718400655852E+00
  0.000000000000E+00  0.441238959293E+00  0.000000000000E+00  0.475214846831E+00  0.460124412180E+00  0.468828258220E+00  0.000000000000E+00
  0.000000000000E+00  0.402302845893E+00  0.469815441314E+00  0.464411893430E+00  0.478714636688E+00  0.489298401133E+00  0.483069062825E+00
  0.487929751362E+00  0.488962306244E+00  0.000000000000E+00  0.464776563599E+00  0.473796390573E+00  0.495346987092E+00  0.490266071632E+00
  0.486286308722E+00  0.445718211966E+00  0.464383015525E+00  0.496127757210E+00  0.443623932311E+00  0.486964554523E+00  0.497246546405E+00
  0.496059357819E+00  0.467732911132E+00  0.488212429153E+00  0.495098383622E+00
  0.999990295028E+00  0.102982719482E+01  0.999990757903E+00  0.104247272465E+01  0.101190065780E+01  0.102520603786E+01  0.999991416700E+00
  0.999992168096E+00  0.103891209412E+01  0.100826257194E+01  0.101252822410E+01  0.100300528612E+01  0.102702833890E+01  0.100605544886E+01
  0.100244377122E+01  0.100355653370E+01  0.999992721792E+00  0.103239738163E+01  0.100459507861E+01  0.100179317846E+01  0.100260281513E+01
  0.100234951640E+01  0.101657143136E+01  0.100617532284E+01  0.100168833262E+01  0.104043253508E+01  0.100303362229E+01  0.100118717142E+01
  0.100134160441E+01  0.100976769025E+01  0.100405357356E+01  0.100176095192E+01
        12        19        11        11
        11         5        12        12
        10        14         5         5
        19        13        11        11
        19        24        13        13
        30        23        24        24
        19        12        22        22
        28        22        21        21
        11        13         6         6
         7         6         9         9
        15        12        14        14
        18        13        23        23
        15        25        21        21
        27        19        22        22
        18         8         9         9
        27        31        24        24
         4        11         6         6
         5        14        12        12
         4         2         5         5
        21        12        15        15
        14        16        15        15
        24        19        27        27
        22        29        27        27
        23        26        18        18
        17         8        18        18
         5        11         4         4
         6         3         4         4
        26        23        30        30
         5         2        10        10
        16        14        10        10
         3         6         7         7
        21        25        28        28
        29        22        28        28
         6        13         9         9
         2         4         1         1
        31        27        32        32
        25        15        20        20
        24        23        13        13
         8         7         9         9
        13        18         9         9
        31        30        24        24
        12        21        22        22
        29        32        27        27
         3         1         4         4
        26        17        18        18
        16        20        15        15
zone t="boundary 2 bc-2", solutiontime= 0.3000000E+02, strandid=1002, i=33, j=48, f=feblock
  0.500000000000E+01  0.375000000000E+01  0.250000000000E+01  0.288078410721E+01  0.125000000000E+01  0.190974100652E+01  0.326683758169E+01
  0.201431602454E+01 -0.476928439289E-18  0.963108083381E+00  0.500000000000E+01  0.403552511878E+01  0.423153924130E+01  0.500000000000E+01
  0.385533350601E+01  0.500000000000E+01  0.398173246726E+01  0.315249557942E+01  0.267000324704E+01  0.154774304040E+01  0.218329375016E+01
  0.893127759452E+00 -0.476928439289E-18  0.698517061619E+00  0.964171764089E+00  0.310324758057E+01 -0.476928439289E-18 -0.476928439289E-18
  0.125000000000E+01  0.500000000000E+01  0.375000000000E+01  0.250000000000E+01 -0.476928439289E-18
 -0.250000000000E+01 -0.250000000000E+01 -0.250000000000E+01 -0.250000000000E+01 -0.250000000000E+01 -0.250000000000E+01 -0.250000000000E+01
 -0.250000000000E+01 -0.250000000000E+01 -0.250000000000E+01 -0.250000000000E+01 -0.250000000000E+01 -0.250000000000E+01 -0.250000000000E+01
 -0.250000000000E+01 -0.250000000000E+01 -0.250000000000E+01 -0.250000000000E+01 -0.250000000000E+01 -0.250000000000E+01 -0.250000000000E+01
 -0.250000000000E+01 -0.250000000000E+01 -0.250000000000E+01 -0.250000000000E+01 -0.250000000000E+01 -0.250000000000E+01 -0.250000000000E+01
 -0.250000000000E+01 -0.250000000000E+01 -0.250000000000E+01 -0.250000000000E+01 -0.250000000000E+01
 -0.476928439289E-18 -0.476928439289E-18 -0.476928439289E-18  0.904659890645E+00 -0.476928439289E-18  0.717002441913E+00  0.188609243358E+01
  0.176246431481E+01 -0.476928439289E-18  0.961328577125E+00  0.125000000000E+01  0.101201586758E+01  0.191586535653E+01  0.250000000000E+01
  0.293121848150E+01  0.375000000000E+01  0.406975391361E+01  0.363585050272E+01  0.285047954584E+01  0.292817774674E+01  0.395907379566E+01
  0.205246550326E+01  0.125000000000E+01  0.306828197606E+01  0.397245519226E+01  0.433168271247E+01  0.250000000000E+01  0.375000000000E+01
  0.500000000000E+01  0.500000000000E+01  0.500000000000E+01  0.500000000000E+01  0.500000000000E+01
  0.830787063224E+00  0.935297145629E+00  0.934221470338E+00  0.968087273730E+00  0.961718889871E+00  0.964848095637E+00  0.984135704430E+00
  0.991412151759E+00  0.144945702826E+01  0.102921645057E+01  0.955878533444E+00  0.960693593567E+00  0.981487645386E+00  0.100642877086E+01
  0.997911858483E+00  0.100978038058E+01  0.100199531368E+01  0.998062611855E+00  0.991085526955E+00  0.100132671882E+01  0.100094552131E+01
  0.101224568237E+01  0.106442280594E+01  0.101082128386E+01  0.100685200175E+01  0.100118341097E+01  0.102847313690E+01  0.100958633687E+01
  0.100510125221E+01  0.100179258846E+01  0.100266100002E+01  0.100321124559E+01  0.100399293491E+01
  0.000000000000E+00  0.000000000000E+00  0.000000000000E+00  0.378986744369E+00  0.000000000000E+00  0.340639658659E+00  0.582178729299E+00
  0.575196125968E+00  0.000000000000E+00  0.489449751649E+00  0.494740393045E+00  0.431507184270E+00  0.568960879910E+00  0.536179921481E+00
  0.568880597858E+00  0.516236782872E+00  0.508560964532E+00  0.527401878919E+00  0.566649023395E+00  0.531829595200E+00  0.506098823206E+00
  0.520702323506E+00  0.444686413424E+00  0.491340585245E+00  0.492735629055E+00  0.501507735457E+00  0.470003391026E+00  0.489200218520E+00
  0.490458801999E+00  0.491425943662E+00  0.486215870185E+00  0.490305794560E+00  0.495522109388E+00
  0.000000000000E+00  0.000000000000E+00  0.000000000000E+00  0.000000000000E+00  0.000000000000E+00  0.000000000000E+00  0.000000000000E+00
  0.000000000000E+00  0.000000000000E+00  0.000000000000E+00  0.000000000000E+00  0.000000000000E+00  0.000000000000E+00  0.000000000000E+00
  0.000000000000E+00  0.000000000000E+00  0.000000000000E+00  0.000000000000E+00  0.000000000000E+00  0.000000000000E+00  0.000000000000E+00
  0.000000000000E+00  0.000000000000E+00  0.000000000000E+00  0.000000000000E+00  0.000000000000E+00  0.000000000000E+00  0.000000000000E+00
  0.000000000000E+00  0.000000000000E+00  0.000000000000E+00  0.000000000000E+00  0.000000000000E+00
  0.000000000000E+00  0.000000000000E+00  0.000000000000E+00 -0.229664628317E-02  0.000000000000E+00  0.183566373628E-01  0.121123910820E-01
  0.454986537761E-01  0.000000000000E+00  0.870790381960E-01 -0.995419272069E-01 -0.211866940334E-01 -0.306434869716E-01 -0.414440983387E-01
 -0.137784885780E-02  0.260092690893E-02  0.610320192682E-03  0.504303393933E-03  0.150971557904E-01  0.284026593988E-01  0.564171086831E-02
  0.553420924885E-01  0.837460364472E-01  0.110441679785E-01  0.679149117543E-02 -0.758256564742E-03  0.279392055069E-02 -0.834874466451E-03
  0.400605792433E-02  0.602956850928E-02 -0.143186001830E-03  0.120031552902E-02  0.344925351639E-02
  0.593415466159E+00  0.668065174255E+00  0.667296741555E+00  0.684257289317E+00  0.686937349904E+00  0.679200913046E+00  0.695811323440E+00
  0.702343383465E+00  0.103531891344E+01  0.723694313445E+00  0.672591473670E+00  0.675702595861E+00  0.694092985647E+00  0.720959767065E+00
  0.712691050172E+00  0.724771831468E+00  0.716580007955E+00  0.713298190220E+00  0.706429141983E+00  0.717736799603E+00  0.715375917207E+00
  0.730937224036E+00  0.791042941705E+00  0.724372301043E+00  0.721010155000E+00  0.715456483844E+00  0.741799245668E+00  0.724056263823E+00
  0.719312437611E+00  0.715891167699E+00  0.716607630888E+00  0.717367565483E+00  0.718400655852E+00
  0.000000000000E+00  0.000000000000E+00  0.000000000000E+00  0.380991700989E+00  0.000000000000E+00  0.343630111593E+00  0.585285868089E+00
  0.579373677210E+00  0.000000000000E+00  0.501056427681E+00  0.508459333078E+00  0.435373029714E+00  0.572639048554E+00  0.537002156797E+00
  0.568923426817E+00  0.514995282692E+00  0.508252845110E+00  0.527255581395E+00  0.567447224491E+00  0.531657854997E+00  0.505983499459E+00
  0.520795965021E+00  0.443623932311E+00  0.490664431406E+00  0.492156614315E+00  0.501394222434E+00  0.467732911132E+00  0.488212429153E+00
  0.490003434422E+00  0.491351351175E+00  0.486072978085E+00  0.490037862527E+00  0.495098383622E+00
  0.999993487379E+00  0.999993690057E+00  0.999993543115E+00  0.989539095326E+00  0.999993137282E+00  0.985524335451E+00  0.989838950494E+00
  0.991798148840E+00  0.999992721792E+00  0.984411042268E+00  0.985091756109E+00  0.984688188347E+00  0.990058493832E+00  0.100289628349E+01
  0.999855309623E+00  0.100485272201E+01  0.100121427460E+01  0.100055593151E+01  0.997896520409E+00  0.100350015690E+01  0.100058021417E+01
  0.101093255469E+01  0.104043253508E+01  0.100326461033E+01  0.100254477842E+01  0.100045512781E+01  0.100976769025E+01  0.100405357356E+01
  0.100192633373E+01  0.100045423207E+01  0.100058811824E+01  0.100109981431E+01  0.100176095192E+01
        15         7        19        19
         8        20        19        19
        18        19        21        21
         7         4         8         8
         3         6         4         4
        19         7         8         8
        19        18        15        15
        14        13        15        15
         8        22        20        20
        27        24        22        22
        19        20        21        21
        32        26        21        21
        17        18        26        26
        17        16        15        15
        25        29        21        21
        12         7        13        13
        10         8         6         6
        25        20        24        24
         4         6         8         8
        12         2         4         4
        10        23        22        22
        26        31        17        17
        30        16        17        17
         4         7        12        12
        13        11        12        12
        21        20        25        25
        24        28        25        25
        22         8        10        10
         6         5        10        10
        31        26        32        32
         4         2         3         3
         5         6         3         3
        11        13        14        14
        22        23        27        27
        28        24        27        27
        15        13         7         7
         2        12         1         1
        29        25        33        33
        23        10         9         9
        21        26        18        18
        16        14        15        15
        18        17        15        15
        29        32        21        21
        22        24        20        20
        28        33        25        25
        11         1        12        12
        31        30        17        17
         5         9        10        10
zone t="boundary 3 bc-3", solutiontime= 0.3000000E+02, strandid=1003, i=33, j=48, f=feblock
  0.375000000000E+01  0.250000000000E+01  0.500000000000E+01  0.403552511878E+01  0.288078410721E+01  0.125000000000E+01  0.190974100652E+01
  0.500000000000E+01  0.326683758169E+01  0.423153924130E+01  0.201431602454E+01 -0.476928439289E-18  0.963108083381E+00  0.500000000000E+01
  0.267000324704E+01  0.385533350601E+01  0.893127759452E+00  0.154774304040E+01 -0.476928439289E-18  0.500000000000E+01  0.315249557942E+01
  0.218329375016E+01  0.398173246726E+01 -0.476928439289E-18  0.698517061619E+00  0.964171764089E+00  0.125000000000E+01 -0.476928439289E-18
  0.500000000000E+01  0.310324758057E+01  0.250000000000E+01  0.375000000000E+01 -0.476928439289E-18
  0.250000000000E+01  0.250000000000E+01  0.250000000000E+01  0.250000000000E+01  0.250000000000E+01  0.250000000000E+01  0.250000000000E+01
  0.250000000000E+01  0.250000000000E+01  0.250000000000E+01  0.250000000000E+01  0.250000000000E+01  0.250000000000E+01  0.250000000000E+01
  0.250000000000E+01  0.250000000000E+01  0.250000000000E+01  0.250000000000E+01  0.250000000000E+01  0.250000000000E+01  0.250000000000E+01
  0.250000000000E+01  0.250000000000E+01  0.250000000000E+01  0.250000000000E+01  0.250000000000E+01  0.250000000000E+01  0.250000000000E+01
  0.250000000000E+01  0.250000000000E+01  0.250000000000E+01  0.250000000000E+01  0.250000000000E+01
 -0.476928439289E-18 -0.476928439289E-18 -0.476928439289E-18  0.101201586758E+01  0.904659890645E+00 -0.476928439289E-18  0.717002441913E+00
  0.125000000000E+01  0.188609243358E+01  0.191586535653E+01  0.176246431481E+01 -0.476928439289E-18  0.961328577125E+00  0.250000000000E+01
  0.285047954584E+01  0.293121848150E+01  0.205246550326E+01  0.292817774674E+01  0.125000000000E+01  0.375000000000E+01  0.363585050272E+01
  0.395907379566E+01  0.406975391361E+01  0.250000000000E+01  0.306828197606E+01  0.397245519226E+01  0.500000000000E+01  0.375000000000E+01
  0.500000000000E+01  0.433168271247E+01  0.500000000000E+01  0.500000000000E+01  0.500000000000E+01
  0.941860797025E+00  0.946295849265E+00  0.843730469240E+00  0.964337075470E+00  0.978822846749E+00  0.956975365825E+00  0.983330916315E+00
  0.963504939670E+00  0.982688815701E+00  0.984244430411E+00  0.990263116162E+00  0.134427120874E+01  0.101918219900E+01  0.100829754703E+01
  0.993455633402E+00  0.997997647833E+00  0.100807761545E+01  0.100072059484E+01  0.106355337947E+01  0.100673652455E+01  0.100058280581E+01
  0.100234908107E+01  0.100178182822E+01  0.102389267991E+01  0.100874162851E+01  0.100528322376E+01  0.100522801712E+01  0.100830781976E+01
  0.100196259780E+01  0.100161970010E+01  0.100413152333E+01  0.100321754208E+01  0.100426007868E+01
  0.000000000000E+00  0.000000000000E+00  0.000000000000E+00  0.439068932944E+00  0.399864956540E+00  0.000000000000E+00  0.373794148092E+00
  0.495011013518E+00  0.573056275944E+00  0.569603264788E+00  0.559933349037E+00  0.000000000000E+00  0.483390969408E+00  0.533822545251E+00
  0.556459191137E+00  0.564688377418E+00  0.522616033474E+00  0.522533646044E+00  0.445482009065E+00  0.518327220260E+00  0.524751690683E+00
  0.503888983340E+00  0.509844833999E+00  0.471739271404E+00  0.496246055908E+00  0.494940663108E+00  0.489078139762E+00  0.489830825205E+00
  0.493066874496E+00  0.499150324712E+00  0.486770865042E+00  0.484761548319E+00  0.495785238627E+00
  0.000000000000E+00  0.000000000000E+00  0.000000000000E+00  0.000000000000E+00  0.000000000000E+00  0.000000000000E+00  0.000000000000E+00
  0.000000000000E+00  0.000000000000E+00  0.000000000000E+00  0.000000000000E+00  0.000000000000E+00  0.000000000000E+00  0.000000000000E+00
  0.000000000000E+00  0.000000000000E+00  0.000000000000E+00  0.000000000000E+00  0.000000000000E+00  0.000000000000E+00  0.000000000000E+00
  0.000000000000E+00  0.000000000000E+00  0.000000000000E+00  0.000000000000E+00  0.000000000000E+00  0.000000000000E+00  0.000000000000E+00
  0.000000000000E+00  0.000000000000E+00  0.000000000000E+00  0.000000000000E+00  0.000000000000E+00
  0.000000000000E+00  0.000000000000E+00  0.000000000000E+00 -0.226116406951E-01  0.111963994609E-01  0.000000000000E+00  0.179817060827E-01
 -0.100759849024E+00  0.390462477149E-02 -0.389310683387E-01  0.340378045029E-01  0.000000000000E+00  0.652294163990E-01 -0.424919831278E-01
  0.843937174856E-02 -0.650843290185E-02  0.490054413299E-01  0.135871895510E-01  0.452184654466E-01  0.738593522176E-03 -0.699696123542E-03
  0.243773738073E-02  0.869599224119E-03  0.351819571102E-02  0.103942853547E-01  0.431637952087E-02  0.337408240670E-02  0.458690576717E-03
  0.573084159392E-02  0.341275823473E-03  0.160752422181E-02  0.570181418904E-03  0.237161037726E-02
  0.672750540186E+00  0.675918447730E+00  0.602658369357E+00  0.676093504546E+00  0.691308527561E+00  0.683546879037E+00  0.690066233819E+00
  0.677276452235E+00  0.695201564127E+00  0.696250846041E+00  0.703343679448E+00  0.960184401878E+00  0.719725943130E+00  0.722865734147E+00
  0.709447212125E+00  0.713700751572E+00  0.726066943492E+00  0.716602405886E+00  0.782340138081E+00  0.722285095851E+00  0.716127924721E+00
  0.716550995747E+00  0.716545806610E+00  0.737394762023E+00  0.722682435175E+00  0.719440785578E+00  0.719565398491E+00  0.722781357503E+00
  0.716029319689E+00  0.715846789583E+00  0.718145985549E+00  0.717061415071E+00  0.718614925871E+00
  0.000000000000E+00  0.000000000000E+00  0.000000000000E+00  0.443766880981E+00  0.402286631987E+00  0.000000000000E+00  0.377550348393E+00
  0.509225888289E+00  0.575832234741E+00  0.573705598847E+00  0.562554716593E+00  0.000000000000E+00  0.490563634683E+00  0.534527373037E+00
  0.556587487125E+00  0.564391360826E+00  0.522731093928E+00  0.522052644864E+00  0.441238959293E+00  0.517182743496E+00  0.524229465817E+00
  0.503688312987E+00  0.509494185936E+00  0.469815441314E+00  0.495615089000E+00  0.494484090205E+00  0.488564295211E+00  0.488962306244E+00
  0.492982489097E+00  0.499009518444E+00  0.486465290665E+00  0.484600467049E+00  0.495346987092E+00
  0.999989339439E+00  0.999989408764E+00  0.999989626853E+00  0.981535326643E+00  0.988771299935E+00  0.999989827144E+00  0.982469595247E+00
  0.984101891012E+00  0.990427665633E+00  0.990354788241E+00  0.994363149709E+00  0.999990295028E+00  0.988651804720E+00  0.100368391334E+01
  0.999768951507E+00  0.100118577871E+01  0.100834866811E+01  0.100252095681E+01  0.102982719482E+01  0.100443274833E+01  0.100199512603E+01
  0.100082038582E+01  0.100137984239E+01  0.100826257194E+01  0.100298766369E+01  0.100192371264E+01  0.100215228856E+01  0.100355653370E+01
  0.100047751260E+01  0.100056489037E+01  0.100126761924E+01  0.100066629519E+01  0.100179317846E+01
        15         9        16        16
        15        18        11        11
        22        15        21        21
        11         5         9         9
         5         7         2         2
        11         9        15        15
        16        21        15        15
        16        10        14        14
        18        17        11        11
        17        25        24        24
        22        18        15        15
        22        30        31        31
        30        21        23        23
        16        20        23        23
        22        27        26        26
        10         9         4         4
         7        11        13        13
        25        18        26        26
        11         7         5         5
         5         1         4         4
        17        19        13        13
        23        32        30        30
        23        20        29        29
         4         9         5         5
         4         8        10        10
        26        18        22        22
        26        28        25        25
        13        11        17        17
        13         6         7         7
        31        30        32        32
         2         1         5         5
         2         7         6         6
        14        10         8         8
        24        19        17        17
        24        25        28        28
         9        10        16        16
         3         4         1         1
        33        26        27        27
        12        13        19        19
        21        30        22        22
        16        14        20        20
        16        23        21        21
        22        31        27        27
        18        25        17        17
        26        33        28        28
         4         3         8         8
        23        29        32        32
        13        12         6         6
zone t="boundary 4 bc-4", solutiontime= 0.3000000E+02, strandid=1004, i=32, j=46, f=feblock
  0.125000000000E+01  0.219251206392E+01  0.103724302461E+01  0.500000000000E+01  0.250000000000E+01  0.375000000000E+01  0.404200324774E+01
  0.500000000000E+01 -0.476928439289E-18  0.310152362409E+01  0.202479342020E+01  0.324151231464E+01  0.922061490191E+00 -0.476928439289E-18
  0.299062775774E+01  0.394624082883E+01  0.500000000000E+01  0.409252726285E+01  0.500000000000E+01  0.429310310915E+01  0.175434191980E+01
  0.284428995242E+01 -0.476928439289E-18 -0.476928439289E-18  0.715990576545E+00  0.930412228790E+00  0.125000000000E+01  0.187029682677E+01
  0.500000000000E+01  0.375000000000E+01  0.250000000000E+01 -0.476928439289E-18
  0.250000000000E+01  0.157686156160E+01  0.146289271009E+01  0.250000000000E+01  0.250000000000E+01  0.250000000000E+01  0.155830813274E+01
  0.125000000000E+01  0.250000000000E+01  0.177790177481E+01  0.477386199275E+00  0.742988685424E+00  0.308372018325E+00  0.125000000000E+01
 -0.487811078581E+00 -0.144524380962E+01 -0.125000000000E+01 -0.345533899378E+00 -0.476928439289E-18  0.627766083140E+00 -0.739814786992E+00
 -0.158811787973E+01 -0.476928439289E-18 -0.125000000000E+01 -0.600232012419E+00 -0.154800130438E+01 -0.250000000000E+01 -0.178862290564E+01
 -0.250000000000E+01 -0.250000000000E+01 -0.250000000000E+01 -0.250000000000E+01
  0.500000000000E+01  0.500000000000E+01  0.500000000000E+01  0.500000000000E+01  0.500000000000E+01  0.500000000000E+01  0.500000000000E+01
  0.500000000000E+01  0.500000000000E+01  0.500000000000E+01  0.500000000000E+01  0.500000000000E+01  0.500000000000E+01  0.500000000000E+01
  0.500000000000E+01  0.500000000000E+01  0.500000000000E+01  0.500000000000E+01  0.500000000000E+01  0.500000000000E+01  0.500000000000E+01
  0.500000000000E+01  0.500000000000E+01  0.500000000000E+01  0.500000000000E+01  0.500000000000E+01  0.500000000000E+01  0.500000000000E+01
  0.500000000000E+01  0.500000000000E+01  0.500000000000E+01  0.500000000000E+01
  0.100522801712E+01  0.100432870186E+01  0.100431975040E+01  0.100196259780E+01  0.100413152333E+01  0.100321754208E+01  0.100258235260E+01
  0.100200856747E+01  0.100426007868E+01  0.100372244719E+01  0.100446418987E+01  0.100346787976E+01  0.100365957742E+01  0.100424766514E+01
  0.100362226648E+01  0.100163979853E+01  0.100227386846E+01  0.100226992393E+01  0.100213193767E+01  0.100253969903E+01  0.100442335607E+01
  0.100337175513E+01  0.100288822791E+01  0.100334523372E+01  0.100323184063E+01  0.100406047894E+01  0.100510125221E+01  0.100431286967E+01
  0.100179258846E+01  0.100266100002E+01  0.100321124559E+01  0.100399293491E+01
  0.489078139762E+00  0.489240916170E+00  0.490984451258E+00  0.493066874496E+00  0.486770865042E+00  0.484761548319E+00  0.485407219992E+00
  0.494264600793E+00  0.495785238627E+00  0.486804665062E+00  0.488140547457E+00  0.487247724149E+00  0.494423962549E+00  0.496536816641E+00
  0.487846408206E+00  0.483216499064E+00  0.492572279578E+00  0.487262589832E+00  0.494866961684E+00  0.488014800252E+00  0.490097608731E+00
  0.488269032709E+00  0.497534334239E+00  0.496384326353E+00  0.495260238971E+00  0.493217223415E+00  0.490458801999E+00  0.490400896571E+00
  0.491425943662E+00  0.486215870185E+00  0.490305794560E+00  0.495522109388E+00
  0.000000000000E+00 -0.897817338847E-04 -0.129723494375E-02  0.000000000000E+00  0.000000000000E+00  0.000000000000E+00  0.425104154983E-03
  0.797901809659E-03  0.000000000000E+00  0.273708613630E-03 -0.942062606548E-03 -0.819989542425E-03 -0.174501757847E-02 -0.634634451228E-04
 -0.109817396590E-02 -0.102090041883E-02 -0.133122616834E-02 -0.213268911937E-02 -0.132840489994E-02 -0.106355845918E-02 -0.623729765365E-03
 -0.760449282994E-03 -0.196313363026E-03  0.807242059554E-03  0.519904887770E-04  0.161651604352E-02  0.000000000000E+00  0.791730012921E-03
  0.000000000000E+00  0.000000000000E+00  0.000000000000E+00  0.000000000000E+00