title="tecplot geometry and solution file"
variables = x y z rho u v w p mach temperature
zone t="boundary 1 bc-1", solutiontime= 0.2000000E+02, strandid=1001, i=32, j=46, f=feblock
 -0.547473805950E-02 -0.138053898625E-17 -0.567611393137E-02 -0.138053898625E-17 -0.138053898625E-17 -0.138053898625E-17 -0.525163715706E-02
 -0.425779957523E-02 -0.138053898625E-17 -0.138053898625E-17 -0.138053898625E-17 -0.138053898625E-17 -0.138053898625E-17 -0.138053898625E-17
 -0.138053898625E-17 -0.138053898625E-17 -0.338397811579E-02 -0.138053898625E-17 -0.138053898625E-17 -0.138053898625E-17 -0.138053898625E-17
 -0.138053898625E-17 -0.138053898625E-17 -0.138053898625E-17 -0.138053898625E-17 -0.138053898625E-17 -0.138053898625E-17 -0.138053898625E-17
 -0.138053898625E-17 -0.138053898625E-17 -0.138053898625E-17 -0.138053898625E-17
  0.250494199996E+01  0.250494199996E+01  0.127822171177E+01  0.146289271009E+01  0.157686156160E+01  0.308372018325E+00  0.261949834557E-01
 -0.122573470438E+01 -0.600232012419E+00  0.250494199996E+01  0.477386199275E+00  0.742988685424E+00 -0.739814786992E+00  0.177790177481E+01
  0.155830813274E+01  0.250494199996E+01 -0.249658902117E+01 -0.154800130438E+01 -0.487811078581E+00  0.250494199996E+01  0.627766083140E+00
 -0.345533899378E+00 -0.178862290564E+01 -0.158811787973E+01  0.125000000000E+01 -0.249658902117E+01 -0.144524380962E+01 -0.138053898625E-17
 -0.125000000000E+01 -0.249658902117E+01 -0.249658902117E+01 -0.249658902117E+01
  0.805555099614E-04  0.125000000000E+01  0.823774297186E-04  0.103724302461E+01  0.219251206392E+01  0.922061490191E+00  0.103961354043E-03
  0.342005475211E-04  0.715990576545E+00  0.250000000000E+01  0.202479342020E+01  0.324151231464E+01  0.175434191980E+01  0.310152362409E+01
  0.404200324774E+01  0.375000000000E+01  0.810770748851E-04  0.930412228790E+00  0.299062775774E+01  0.500000000000E+01  0.429310310915E+01
  0.409252726285E+01  0.187029682677E+01  0.284428995242E+01  0.500000000000E+01  0.125000000000E+01  0.394624082883E+01  0.500000000000E+01
  0.500000000000E+01  0.250000000000E+01  0.375000000000E+01  0.500000000000E+01
  0.121960388049E+01  0.105830819673E+01  0.128672571532E+01  0.108337589047E+01  0.102354095959E+01  0.116941407224E+01  0.145633661595E+01
  0.134803943347E+01  0.119311512583E+01  0.101662650894E+01  0.101711987234E+01  0.100667829874E+01  0.102800815004E+01  0.100987683763E+01
  0.100346712148E+01  0.100488573074E+01  0.130025393310E+01  0.114205259558E+01  0.100787532045E+01  0.100194815246E+01  0.100379374214E+01
  0.100390834229E+01  0.103478272480E+01  0.101223799162E+01  0.100190552897E+01  0.106019160547E+01  0.100437682634E+01  0.100077729582E+01
  0.100130169110E+01  0.102043679344E+01  0.100593443199E+01  0.100184648467E+01
  0.000000000000E+00  0.451841548675E+00  0.000000000000E+00  0.472892577374E+00  0.470175884322E+00  0.459506533438E+00  0.000000000000E+00
  0.000000000000E+00  0.401766667724E+00  0.478881935336E+00  0.474234157393E+00  0.485491376392E+00  0.492569755842E+00  0.489508275228E+00
  0.492183904091E+00  0.493568657348E+00  0.000000000000E+00  0.464538234051E+00  0.481637572224E+00  0.498272237766E+00  0.494017928042E+00
  0.490673516714E+00  0.458613141502E+00  0.473154109931E+00  0.498762122351E+00  0.451315575102E+00  0.491520360251E+00  0.499572430970E+00
  0.498567207866E+00  0.477380009817E+00  0.492960015409E+00  0.497870292474E+00
  0.000000000000E+00  0.000000000000E+00  0.000000000000E+00  0.156908806876E-01 -0.426032517006E-02  0.288073719074E-01  0.000000000000E+00
  0.000000000000E+00 -0.370490098929E-02  0.000000000000E+00  0.249653977224E-02 -0.528752561288E-02 -0.303799986821E-02 -0.174573554739E-03
 -0.108716049630E-02  0.000000000000E+00  0.000000000000E+00 -0.850441939144E-02  0.949704537338E-03  0.000000000000E+00 -0.167174836653E-02
 -0.105424616812E-02  0.212847964197E-02 -0.124235805669E-02  0.763793529727E-04  0.000000000000E+00  0.215846441633E-03 -0.173365491187E-03
  0.618476456410E-03  0.000000000000E+00  0.000000000000E+00  0.000000000000E+00
  0.000000000000E+00  0.388532213229E-01  0.000000000000E+00  0.103906637502E+00  0.224247018570E-01  0.135339890778E+00  0.000000000000E+00
  0.000000000000E+00  0.126994664718E+00  0.342181556023E-02  0.213596500397E-01 -0.708540969422E-02  0.635991299086E-01  0.292530042507E-02
 -0.794996350416E-03  0.241078799216E-03  0.000000000000E+00  0.115614631069E+00 -0.829839971650E-02  0.114778939766E-02 -0.750767133542E-03
 -0.442147497442E-02  0.223689977924E-01 -0.264683238419E-02  0.181139455903E-02  0.687893552853E-01 -0.175731144639E-02  0.156750577481E-02
  0.143656620643E-02  0.232616833946E-02 -0.110686039450E-02  0.212196726990E-02
  0.908105207820E+00  0.774898475643E+00  0.958083474323E+00  0.800620323994E+00  0.737947833678E+00  0.857913369760E+00  0.108437410412E+01
  0.100373707354E+01  0.887194657473E+00  0.730580563817E+00  0.733315229483E+00  0.720301181020E+00  0.748107930408E+00  0.724223922295E+00
  0.717575660097E+00  0.719224910826E+00  0.968156453932E+00  0.840780619809E+00  0.722226447072E+00  0.716323851468E+00  0.717949026636E+00
  0.717912005485E+00  0.749167391167E+00  0.726421762258E+00  0.716252840820E+00  0.782035829316E+00  0.718599586513E+00  0.715132883535E+00
  0.715580830625E+00  0.734166139489E+00  0.720294810015E+00  0.716217028210E+00
  0.000000000000E+00  0.447925214880E+00  0.000000000000E+00  0.476256828889E+00  0.468540671431E+00  0.473520510720E+00  0.000000000000E+00
  0.000000000000E+00  0.412988167606E+00  0.477443715638E+00  0.472515002156E+00  0.485151957712E+00  0.492060223260E+00  0.488541627849E+00
  0.491906701409E+00  0.493071143237E+00  0.000000000000E+00  0.471604564169E+00  0.480937175611E+00  0.498048622192E+00  0.493693167214E+00
  0.490409255159E+00  0.456077116346E+00  0.472056285378E+00  0.498554365632E+00  0.449243871732E+00  0.491117231777E+00  0.499472932354E+00
  0.498442373487E+00  0.475665054607E+00  0.492355128036E+00  0.497661916772E+00
  0.104242640687E+01  0.102508689742E+01  0.104242640687E+01  0.103460716031E+01  0.100936553391E+01  0.102707735966E+01  0.104242640687E+01
  0.104242640687E+01  0.104103325285E+01  0.100608510633E+01  0.100936118662E+01  0.100173178928E+01  0.101881595251E+01  0.100399717415E+01
  0.100113486793E+01  0.100201927877E+01  0.104242640687E+01  0.103068183750E+01  0.100321637547E+01  0.100090347948E+01  0.100132985005E+01
  0.100116391640E+01  0.101357929785E+01  0.100469501795E+01  0.100084683451E+01  0.103269084135E+01  0.100165534960E+01  0.100040842366E+01
  0.100051080686E+01  0.100724768245E+01  0.100246368148E+01  0.100085577465E+01
        12        19        11        11
        11         5        12        12
        10        14         5         5
        19        13        11        11
        19        24        13        13
        30        23        24        24
        19        12        22        22
        28        22        21        21
        11        13         6         6
         7         6         9         9
        15        12        14        14
        18        13        23        23
        15        25        21        21
        27        19        22        22
        18         8         9         9
        27        31        24        24
         4        11         6         6
         5        14        12        12
         4         2         5         5
        21        12        15        15
        14        16        15        15
        24        19        27        27
        22        29        27        27
        23        26        18        18
        17         8        18        18
         5        11         4         4
         6         3         4         4
        26        23        30        30
         5         2        10        10
        16        14        10        10
         3         6         7         7
        21        25        28        28
        29        22        28        28
         6        13         9         9
         2         4         1         1
        31        27        32        32
        25        15        20        20
        24        23        13        13
         8         7         9         9
        13        18         9         9
        31        30        24        24
        12        21        22        22
        29        32        27        27
         3         1         4         4
        26        17        18        18
        16        20        15        15
zone t="boundary 2 bc-2", solutiontime= 0.2000000E+02, strandid=1002, i=33, j=48, f=feblock
  0.500195254569E+01  0.375034811445E+01  0.249861145586E+01  0.288036674135E+01  0.124717525353E+01  0.190856697906E+01  0.326577190006E+01
  0.201394855912E+01 -0.338397811579E-02  0.962374243892E+00  0.500000000000E+01  0.403430189815E+01  0.423029563516E+01  0.500000000000E+01
  0.385439188840E+01  0.500000000000E+01  0.398133433219E+01  0.315200081383E+01  0.266958028789E+01  0.154798029748E+01  0.218327860401E+01
  0.893688440127E+00 -0.138053898625E-17  0.699009761219E+00  0.964460898511E+00  0.310303671661E+01 -0.138053898625E-17 -0.138053898625E-17
  0.125000000000E+01  0.500000000000E+01  0.375000000000E+01  0.250000000000E+01 -0.138053898625E-17
 -0.249658902117E+01 -0.249658902117E+01 -0.249658902117E+01 -0.249658902117E+01 -0.249658902117E+01 -0.249658902117E+01 -0.249658902117E+01
 -0.249658902117E+01 -0.249658902117E+01 -0.249658902117E+01 -0.249658902117E+01 -0.249658902117E+01 -0.249658902117E+01 -0.249658902117E+01
 -0.249658902117E+01 -0.249658902117E+01 -0.249658902117E+01 -0.249658902117E+01 -0.249658902117E+01 -0.249658902117E+01 -0.249658902117E+01
 -0.249658902117E+01 -0.249658902117E+01 -0.249658902117E+01 -0.249658902117E+01 -0.249658902117E+01 -0.249658902117E+01 -0.249658902117E+01
 -0.249658902117E+01 -0.249658902117E+01 -0.249658902117E+01 -0.249658902117E+01 -0.249658902117E+01
  0.108218466124E-03  0.145871002877E-03  0.100891403625E-03  0.901663364691E+00  0.110859770246E-03  0.714928312397E+00  0.188140647111E+01
  0.175892165294E+01  0.810770748851E-04  0.957504290555E+00  0.125000000000E+01  0.100596696999E+01  0.191313518634E+01  0.250000000000E+01
  0.292898096729E+01  0.375000000000E+01  0.406883369623E+01  0.363389290091E+01  0.284756861229E+01  0.292582308304E+01  0.395754055152E+01
  0.205027257041E+01  0.125000000000E+01  0.306703272778E+01  0.397155766783E+01  0.433068622257E+01  0.250000000000E+01  0.375000000000E+01
  0.500000000000E+01  0.500000000000E+01  0.500000000000E+01  0.500000000000E+01  0.500000000000E+01
  0.768742176714E+00  0.889533853155E+00  0.898746960908E+00  0.950544836225E+00  0.924964894687E+00  0.947981056736E+00  0.981007053745E+00
  0.987806268346E+00  0.130025393310E+01  0.101390607865E+01  0.944830349571E+00  0.944263085947E+00  0.978077230380E+00  0.100716400422E+01
  0.997783392942E+00  0.100978880487E+01  0.100011902987E+01  0.996169565910E+00  0.989925647978E+00  0.998869503686E+00  0.997944464200E+00
  0.100913913360E+01  0.106019160547E+01  0.100643264105E+01  0.100351423785E+01  0.998474716589E+00  0.102043679344E+01  0.100593443199E+01
  0.100235246137E+01  0.999801987024E+00  0.100018711210E+01  0.100028823140E+01  0.100184648467E+01
  0.000000000000E+00  0.000000000000E+00  0.000000000000E+00  0.385189500884E+00  0.000000000000E+00  0.340894488743E+00  0.583427022426E+00
  0.571749914588E+00  0.000000000000E+00  0.480965340422E+00  0.505178071058E+00  0.443662608520E+00  0.572001572714E+00  0.532011205081E+00
  0.566425597502E+00  0.512663637895E+00  0.508246719665E+00  0.526960020246E+00  0.564515261509E+00  0.531485549745E+00  0.508163684430E+00
  0.521926009955E+00  0.451315575102E+00  0.494980118066E+00  0.496092066661E+00  0.503545551763E+00  0.477380009817E+00  0.492960015409E+00
  0.494502682419E+00  0.491654872455E+00  0.489330843951E+00  0.494545441575E+00  0.497870292474E+00
  0.000000000000E+00  0.000000000000E+00  0.000000000000E+00  0.000000000000E+00  0.000000000000E+00  0.000000000000E+00  0.000000000000E+00
  0.000000000000E+00  0.000000000000E+00  0.000000000000E+00  0.000000000000E+00  0.000000000000E+00  0.000000000000E+00  0.000000000000E+00
  0.000000000000E+00  0.000000000000E+00  0.000000000000E+00  0.000000000000E+00  0.000000000000E+00  0.000000000000E+00  0.000000000000E+00
  0.000000000000E+00  0.000000000000E+00  0.000000000000E+00  0.000000000000E+00  0.000000000000E+00  0.000000000000E+00  0.000000000000E+00
  0.000000000000E+00  0.000000000000E+00  0.000000000000E+00  0.000000000000E+00  0.000000000000E+00
  0.000000000000E+00  0.000000000000E+00  0.000000000000E+00 -0.142349322228E-02  0.000000000000E+00  0.169035289175E-01  0.876981972672E-02
  0.404047820760E-01  0.000000000000E+00  0.730705183962E-01 -0.112204781751E+00 -0.263058955044E-01 -0.368311856869E-01 -0.483528501296E-01
 -0.588550710121E-02 -0.166825577598E-03 -0.196711155297E-02 -0.316975663723E-02  0.106576751002E-01  0.235316213126E-01  0.229064899399E-02
  0.486659983661E-01  0.687893552853E-01  0.868912371466E-02  0.441975809364E-02 -0.352533839840E-02  0.232616833946E-02 -0.110686039450E-02
  0.136399532745E-02  0.548150008837E-02 -0.148039734916E-02 -0.124548197179E-02  0.212196726990E-02
  0.572397960773E+00  0.662338270239E+00  0.669198260818E+00  0.681374028738E+00  0.688719879750E+00  0.681182198217E+00  0.693025701971E+00
  0.700086929516E+00  0.968156453932E+00  0.722090917762E+00  0.666756601264E+00  0.671483580800E+00  0.691230454657E+00  0.720034173850E+00
  0.710710213177E+00  0.723776690700E+00  0.714753907136E+00  0.710894420814E+00  0.704011236341E+00  0.714161156033E+00  0.712432912237E+00
  0.725805426368E+00  0.782035829316E+00  0.720438567579E+00  0.717728752127E+00  0.712834591548E+00  0.734166139489E+00  0.720294810015E+00
  0.716526151109E+00  0.714324707556E+00  0.714316978863E+00  0.714494355974E+00  0.716217028210E+00
  0.000000000000E+00  0.000000000000E+00  0.000000000000E+00  0.384509349469E+00  0.000000000000E+00  0.340296437708E+00  0.586722813608E+00
  0.575418394605E+00  0.000000000000E+00  0.487200493782E+00  0.520631336716E+00  0.445430225579E+00  0.576244501401E+00  0.533969764553E+00
  0.567249542135E+00  0.511777866705E+00  0.508114274439E+00  0.527212365443E+00  0.565848991755E+00  0.531751793445E+00  0.508305980208E+00
  0.522384303812E+00  0.449243871732E+00  0.494520753878E+00  0.495789238953E+00  0.503685608181E+00  0.475665054607E+00  0.492355128036E+00
  0.494311249108E+00  0.491623327075E+00  0.489368151431E+00  0.494546053988E+00  0.497661916772E+00
  0.104242640687E+01  0.104242640687E+01  0.104242640687E+01  0.100355459719E+01  0.104242640687E+01  0.100598537358E+01  0.989020393947E+00
  0.992220572728E+00  0.104242640687E+01  0.997062061424E+00  0.987964921104E+00  0.995566836309E+00  0.989413316721E+00  0.100087755238E+01
  0.997204709445E+00  0.100346464735E+01  0.100053637628E+01  0.999079095767E+00  0.995646221402E+00  0.100095719687E+01  0.999460503978E+00
  0.100692517323E+01  0.103269084135E+01  0.100216741138E+01  0.100130144155E+01  0.999492938166E+00  0.100724768245E+01  0.100246368148E+01
  0.100078230983E+01  0.100025265358E+01  0.999856685126E+00  0.100000386585E+01  0.100085577465E+01
        15         7        19        19
         8        20        19        19
        18        19        21        21
         7         4         8         8
         3         6         4         4
        19         7         8         8
        19        18        15        15
        14        13        15        15
         8        22        20        20
        27        24        22        22
        19        20        21        21
        32        26        21        21
        17        18        26        26
        17        16        15        15
        25        29        21        21
        12         7        13        13
        10         8         6         6
        25        20        24        24
         4         6         8         8
        12         2         4         4
        10        23        22        22
        26        31        17        17
        30        16        17        17
         4         7        12        12
        13        11        12        12
        21        20        25        25
        24        28        25        25
        22         8        10        10
         6         5        10        10
        31        26        32        32
         4         2         3         3
         5         6         3         3
        11        13        14        14
        22        23        27        27
        28        24        27        27
        15        13         7         7
         2        12         1         1
        29        25        33        33
        23        10         9         9
        21        26        18        18
        16        14        15        15
        18        17        15        15
        29        32        21        21
        22        24        20        20
        28        33        25        25
        11         1        12        12
        31        30        17        17
         5         9        10        10
zone t="boundary 3 bc-3", solutiontime= 0.2000000E+02, strandid=1003, i=33, j=48, f=feblock
  0.375059098657E+01  0.249769607633E+01  0.500322138025E+01  0.403612219887E+01  0.287976772043E+01  0.124541906321E+01  0.190552234484E+01
  0.500000000000E+01  0.326671105082E+01  0.423253757181E+01  0.201271135153E+01 -0.547473805950E-02  0.958895614436E+00  0.500000000000E+01
  0.266968147277E+01  0.385584488388E+01  0.890374186977E+00  0.154654012335E+01 -0.138053898625E-17  0.500000000000E+01  0.315261137201E+01
  0.218304199244E+01  0.398195308498E+01 -0.138053898625E-17  0.697379936714E+00  0.963757270369E+00  0.125000000000E+01 -0.138053898625E-17
  0.500000000000E+01  0.310330738803E+01  0.250000000000E+01  0.375000000000E+01 -0.138053898625E-17
  0.250494199996E+01  0.250494199996E+01  0.250494199996E+01  0.250494199996E+01  0.250494199996E+01  0.250494199996E+01  0.250494199996E+01
  0.250494199996E+01  0.250494199996E+01  0.250494199996E+01  0.250494199996E+01  0.250494199996E+01  0.250494199996E+01  0.250494199996E+01
  0.250494199996E+01  0.250494199996E+01  0.250494199996E+01  0.250494199996E+01  0.250494199996E+01  0.250494199996E+01  0.250494199996E+01
  0.250494199996E+01  0.250494199996E+01  0.250494199996E+01  0.250494199996E+01  0.250494199996E+01  0.250494199996E+01  0.250494199996E+01
  0.250494199996E+01  0.250494199996E+01  0.250494199996E+01  0.250494199996E+01  0.250494199996E+01
  0.135804630540E-03  0.110291624817E-03  0.968352334446E-04  0.101756767185E+01  0.908094754997E+00  0.104111079957E-03  0.722629266617E+00
  0.125000000000E+01  0.188965673342E+01  0.191862703992E+01  0.176708252859E+01  0.805555099614E-04  0.969652727920E+00  0.250000000000E+01
  0.285339441810E+01  0.293325064381E+01  0.205656233203E+01  0.293157024792E+01  0.125000000000E+01  0.375000000000E+01  0.363766843534E+01
  0.396069448925E+01  0.407056387650E+01  0.250000000000E+01  0.307031999891E+01  0.397359822904E+01  0.500000000000E+01  0.375000000000E+01
  0.500000000000E+01  0.433260783674E+01  0.500000000000E+01  0.500000000000E+01  0.500000000000E+01
  0.896707871645E+00  0.910457398903E+00  0.781968385490E+00  0.945869399945E+00  0.960188027430E+00  0.922184357800E+00  0.963953817974E+00
  0.950749068294E+00  0.978091058272E+00  0.979679084509E+00  0.986796747664E+00  0.121960388049E+01  0.100544034868E+01  0.100849033319E+01
  0.992241931928E+00  0.997802997054E+00  0.100536945810E+01  0.998281820212E+00  0.105830819673E+01  0.100698755211E+01  0.998809798773E+00
  0.999315456616E+00  0.100000688244E+01  0.101662650894E+01  0.100449351969E+01  0.100204276406E+01  0.100247481013E+01  0.100488573074E+01
  0.100009606400E+01  0.998729161134E+00  0.100100752286E+01  0.100046016828E+01  0.100194815246E+01
  0.000000000000E+00  0.000000000000E+00  0.000000000000E+00  0.451170393865E+00  0.403009081734E+00  0.000000000000E+00  0.369768930091E+00
  0.504385988511E+00  0.572418586722E+00  0.570664826258E+00  0.555899678911E+00  0.000000000000E+00  0.475071333542E+00  0.529014366079E+00
  0.555022865017E+00  0.562209003067E+00  0.524000958353E+00  0.523277214057E+00  0.451841548675E+00  0.514529366481E+00  0.524736532070E+00
  0.506256784083E+00  0.509834506986E+00  0.478881935336E+00  0.499516020084E+00  0.498082197119E+00  0.493193533833E+00  0.493568657348E+00
  0.493166350429E+00  0.501447216262E+00  0.491122364807E+00  0.487915922424E+00  0.498272237766E+00
  0.000000000000E+00  0.000000000000E+00  0.000000000000E+00  0.000000000000E+00  0.000000000000E+00  0.000000000000E+00  0.000000000000E+00
  0.000000000000E+00  0.000000000000E+00  0.000000000000E+00  0.000000000000E+00  0.000000000000E+00  0.000000000000E+00  0.000000000000E+00
  0.000000000000E+00  0.000000000000E+00  0.000000000000E+00  0.000000000000E+00  0.000000000000E+00  0.000000000000E+00  0.000000000000E+00
  0.000000000000E+00  0.000000000000E+00  0.000000000000E+00  0.000000000000E+00  0.000000000000E+00  0.000000000000E+00  0.000000000000E+00
  0.000000000000E+00  0.000000000000E+00  0.000000000000E+00  0.000000000000E+00  0.000000000000E+00
  0.000000000000E+00  0.000000000000E+00  0.000000000000E+00 -0.279294457667E-01  0.124037051787E-01  0.000000000000E+00  0.162342549618E-01
 -0.114456952448E+00  0.477996791012E-03 -0.461013278377E-01  0.299434762876E-01  0.000000000000E+00  0.536026664865E-01 -0.502853775230E-01
  0.508172134061E-02 -0.105794941127E-01  0.439395084315E-01  0.106038329823E-01  0.388532213229E-01 -0.220397138720E-02 -0.366933933038E-02
 -0.402482181499E-03 -0.148817499603E-02  0.342181556023E-02  0.804183583792E-02  0.207773077026E-02  0.578210772734E-03  0.241078799216E-03
  0.509451872060E-02 -0.211402995185E-02 -0.621785923316E-03 -0.724470549640E-03  0.114778939766E-02
  0.667679974751E+00  0.677917739248E+00  0.582246067410E+00  0.670529270413E+00  0.688130597843E+00  0.686649518982E+00  0.690434802515E+00
  0.670672442680E+00  0.691906357856E+00  0.692625780602E+00  0.700948908098E+00  0.908105207820E+00  0.717681180979E+00  0.721493409474E+00
  0.706705673039E+00  0.711396332284E+00  0.721304742956E+00  0.713319224039E+00  0.774898475643E+00  0.721215432133E+00  0.713532461850E+00
  0.713575745708E+00  0.714554391024E+00  0.730580563817E+00  0.718615513445E+00  0.716238843796E+00  0.716751667963E+00  0.719224910826E+00
  0.714521205467E+00  0.713135411276E+00  0.715143151250E+00  0.714634294465E+00  0.716323851468E+00
  0.000000000000E+00  0.000000000000E+00  0.000000000000E+00  0.453747081920E+00  0.402530806290E+00  0.000000000000E+00  0.369616485333E+00
  0.520451374906E+00  0.575195982868E+00  0.575469399343E+00  0.558254461829E+00  0.000000000000E+00  0.478249130097E+00  0.530977771282E+00
  0.555846095229E+00  0.562830014041E+00  0.524678218164E+00  0.523288962171E+00  0.447925214880E+00  0.513842094022E+00  0.524713731924E+00
  0.506335337074E+00  0.509742573215E+00  0.477443715638E+00  0.499191236971E+00  0.497914728131E+00  0.492953588906E+00  0.493071143237E+00
  0.493135068373E+00  0.501536945374E+00  0.491075446863E+00  0.487909670780E+00  0.498048622192E+00
  0.104242640687E+01  0.104242640687E+01  0.104242640687E+01  0.992463630425E+00  0.100332727493E+01  0.104242640687E+01  0.100275418334E+01
  0.987580688811E+00  0.990366789274E+00  0.989789522075E+00  0.994458558625E+00  0.104242640687E+01  0.999317020341E+00  0.100158696620E+01
  0.997123695763E+00  0.998147798852E+00  0.100443337720E+01  0.100036572182E+01  0.102508689742E+01  0.100269521989E+01  0.100013580946E+01
  0.999690375423E+00  0.100036926246E+01  0.100608510633E+01  0.100156118393E+01  0.100069020733E+01  0.100097511180E+01  0.100201927877E+01
  0.100023360122E+01  0.999659982545E+00  0.100019269475E+01  0.100002783117E+01  0.100090347948E+01
        15         9        16        16
        15        18        11        11
        22        15        21        21
        11         5         9         9
         5         7         2         2
        11         9        15        15
        16        21        15        15
        16        10        14        14
        18        17        11        11
        17        25        24        24
        22        18        15        15
        22        30        31        31
        30        21        23        23
        16        20        23        23
        22        27        26        26
        10         9         4         4
         7        11        13        13
        25        18        26        26
        11         7         5         5
         5         1         4         4
        17        19        13        13
        23        32        30        30
        23        20        29        29
         4         9         5         5
         4         8        10        10
        26        18        22        22
        26        28        25        25
        13        11        17        17
        13         6         7         7
        31        30        32        32
         2         1         5         5
         2         7         6         6
        14        10         8         8
        24        19        17        17
        24        25        28        28
         9        10        16        16
         3         4         1         1
        33        26        27        27
        12        13        19        19
        21        30        22        22
        16        14        20        20
        16        23        21        21
        22        31        27        27
        18        25        17        17
        26        33        28        28
         4         3         8         8
        23        29        32        32
        13        12         6         6
zone t="boundary 4 bc-4", solutiontime= 0.2000000E+02, strandid=1004, i=32, j=46, f=feblock
  0.125000000000E+01  0.219251206392E+01  0.103724302461E+01  0.500000000000E+01  0.250000000000E+01  0.375000000000E+01  0.404200324774E+01
  0.500000000000E+01 -0.138053898625E-17  0.310152362409E+01  0.202479342020E+01  0.324151231464E+01  0.922061490191E+00 -0.138053898625E-17
  0.299062775774E+01  0.394624082883E+01  0.500000000000E+01  0.409252726285E+01  0.500000000000E+01  0.429310310915E+01  0.175434191980E+01
  0.284428995242E+01 -0.138053898625E-17 -0.138053898625E-17  0.715990576545E+00  0.930412228790E+00  0.125000000000E+01  0.187029682677E+01
  0.500000000000E+01  0.375000000000E+01  0.250000000000E+01 -0.138053898625E-17
  0.250494199996E+01  0.157686156160E+01  0.146289271009E+01  0.250494199996E+01  0.250494199996E+01  0.250494199996E+01  0.155830813274E+01
  0.125000000000E+01  0.250494199996E+01  0.177790177481E+01  0.477386199275E+00  0.742988685424E+00  0.308372018325E+00  0.125000000000E+01
 -0.487811078581E+00 -0.144524380962E+01 -0.125000000000E+01 -0.345533899378E+00 -0.138053898625E-17  0.627766083140E+00 -0.739814786992E+00
 -0.158811787973E+01 -0.138053898625E-17 -0.125000000000E+01 -0.600232012419E+00 -0.154800130438E+01 -0.249658902117E+01 -0.178862290564E+01
 -0.249658902117E+01 -0.249658902117E+01 -0.249658902117E+01 -0.249658902117E+01
  0.500000000000E+01  0.500000000000E+01  0.500000000000E+01  0.500000000000E+01  0.500000000000E+01  0.500000000000E+01  0.500000000000E+01
  0.500000000000E+01  0.500000000000E+01  0.500000000000E+01  0.500000000000E+01  0.500000000000E+01  0.500000000000E+01  0.500000000000E+01
  0.500000000000E+01  0.500000000000E+01  0.500000000000E+01  0.500000000000E+01  0.500000000000E+01  0.500000000000E+01  0.500000000000E+01
  0.500000000000E+01  0.500000000000E+01  0.500000000000E+01  0.500000000000E+01  0.500000000000E+01  0.500000000000E+01  0.500000000000E+01
  0.500000000000E+01  0.500000000000E+01  0.500000000000E+01  0.500000000000E+01
  0.100247481013E+01  0.100134716352E+01  0.100191258791E+01  0.100009606400E+01  0.100100752286E+01  0.100046016828E+01  0.999736561131E+00
  0.100030298630E+01  0.100194815246E+01  0.100084782526E+01  0.100111992746E+01  0.100019345852E+01  0.100153426684E+01  0.100190552897E+01
  0.100054798319E+01  0.998646797824E+00  0.100065287750E+01  0.999514158784E+00  0.100050368688E+01  0.999881314211E+00  0.100147037611E+01
  0.100045125816E+01  0.100077729582E+01  0.100130169110E+01  0.100106355743E+01  0.100175188433E+01  0.100235246137E+01  0.100133695176E+01
  0.999801987024E+00  0.100018711210E+01  0.100028823140E+01  0.100184648467E+01
  0.493193533833E+00  0.493543408702E+00  0.494639868746E+00  0.493166350429E+00  0.491122364807E+00  0.487915922424E+00  0.488037939572E+00
  0.494124147148E+00  0.498272237766E+00  0.490661505939E+00  0.492713783258E+00  0.491092178310E+00  0.497621761601E+00  0.498762122351E+00
  0.491948437330E+00  0.485951385051E+00  0.492212735457E+00  0.489588620516E+00  0.494589121512E+00  0.489945042296E+00  0.494579982746E+00
  0.492493847233E+00  0.499572430970E+00  0.498567207866E+00  0.498170925436E+00  0.496557879623E+00  0.494502682419E+00  0.494785799879E+00
  0.491654872455E+00  0.489330843951E+00  0.494545441575E+00  0.497870292474E+00
  0.000000000000E+00 -0.145737275365E-03 -0.111919606363E-02  0.000000000000E+00  0.000000000000E+00  0.000000000000E+00  0.120525445674E-03
  0.650296245820E-03  0.000000000000E+00  0.714133072833E-04 -0.885122803798E-03 -0.926666411627E-03 -0.157262683793E-02  0.763793529727E-04
 -0.897321730846E-03 -0.927124448302E-03 -0.140037762038E-02 -0.211713131939E-02 -0.140750337837E-02 -0.123329574921E-02 -0.521715787728E-03
 -0.631401534469E-03 -0.173365491187E-03  0.618476456410E-03 -0.169568374669E-04  0.143828981904E-02  0.000000000000E+00  0.729929999503E-03
  0.000000000000E+00  0.000000000000E+00  0.000000000000E+00  0.000000000000E+00