# vtk DataFile Version 2.0
FUN3D:global_image_vtk
ASCII
DATASET UNSTRUCTURED_GRID
POINTS 213 double
    0.6104060924692103E-18    0.0000000000000000E+00    0.2500000000000000E+01
    0.0000000000000000E+00    0.6104060924692103E-18    0.0000000000000000E+00
    0.1250000000000000E+01    0.0000000000000000E+00    0.2500000000000000E+01
    0.0000000000000000E+00    0.6104060924692103E-18    0.0000000000000000E+00
    0.2500000000000000E+01    0.0000000000000000E+00    0.2500000000000000E+01
    0.0000000000000000E+00    0.6104060924692103E-18    0.0000000000000000E+00
    0.3750000000000000E+01    0.0000000000000000E+00    0.2500000000000000E+01
    0.0000000000000000E+00    0.6104060924692103E-18    0.0000000000000000E+00
    0.5000000000000000E+01    0.0000000000000000E+00    0.2500000000000000E+01
    0.0000000000000000E+00    0.6104060924692103E-18    0.0000000000000000E+00
    0.5000000000000000E+01    0.0000000000000000E+00    0.1250000000000000E+01
    0.0000000000000000E+00    0.6104060924692103E-18    0.0000000000000000E+00
    0.5000000000000000E+01    0.0000000000000000E+00    0.6104060924692103E-18
    0.0000000000000000E+00    0.6104060924692103E-18    0.0000000000000000E+00
    0.5000000000000000E+01    0.0000000000000000E+00   -0.1250000000000000E+01
    0.0000000000000000E+00    0.6104060924692103E-18    0.0000000000000000E+00
    0.5000000000000000E+01    0.0000000000000000E+00   -0.2500000000000000E+01
    0.0000000000000000E+00    0.6104060924692103E-18    0.0000000000000000E+00
    0.3750000000000000E+01    0.0000000000000000E+00   -0.2500000000000000E+01
    0.0000000000000000E+00    0.6104060924692103E-18    0.0000000000000000E+00
    0.2500000000000000E+01    0.0000000000000000E+00   -0.2500000000000000E+01
    0.0000000000000000E+00    0.6104060924692103E-18    0.0000000000000000E+00
    0.1250000000000000E+01    0.0000000000000000E+00   -0.2500000000000000E+01
    0.0000000000000000E+00    0.6104060924692103E-18    0.0000000000000000E+00
    0.6104060924692103E-18    0.0000000000000000E+00   -0.2500000000000000E+01
    0.0000000000000000E+00    0.6104060924692103E-18    0.0000000000000000E+00
    0.6104060924692103E-18    0.0000000000000000E+00   -0.1250000000000000E+01
    0.0000000000000000E+00    0.6104060924692103E-18    0.0000000000000000E+00
    0.6104060924692103E-18    0.0000000000000000E+00    0.6104060924692103E-18
    0.0000000000000000E+00    0.6104060924692103E-18    0.0000000000000000E+00
    0.6104060924692103E-18    0.0000000000000000E+00    0.1250000000000000E+01
    0.0000000000000000E+00    0.6104060924692103E-18    0.0000000000000000E+00
    0.9058375365086910E+00    0.0000000000000000E+00    0.1578994732800803E+01
    0.0000000000000000E+00    0.6104060924692103E-18    0.0000000000000000E+00
    0.3982050490726493E+01    0.0000000000000000E+00   -0.1583989954232354E+01
    0.0000000000000000E+00    0.6104060924692103E-18    0.0000000000000000E+00
    0.4033849428301197E+01    0.0000000000000000E+00    0.1453322699199022E+01
    0.0000000000000000E+00    0.6104060924692103E-18    0.0000000000000000E+00
    0.1040505887381675E+01    0.0000000000000000E+00   -0.1479596339503735E+01
    0.0000000000000000E+00    0.6104060924692103E-18    0.0000000000000000E+00
    0.1099454400140349E+01    0.0000000000000000E+00   -0.3227322616384110E+00
    0.0000000000000000E+00    0.6104060924692103E-18    0.0000000000000000E+00
    0.7354504170366591E+00    0.0000000000000000E+00    0.6593508822075582E+00
    0.0000000000000000E+00    0.6104060924692103E-18    0.0000000000000000E+00
    0.1622302608453282E+01    0.0000000000000000E+00    0.8256214013940779E+00
    0.0000000000000000E+00    0.6104060924692103E-18    0.0000000000000000E+00
    0.2145871574390382E+01    0.0000000000000000E+00   -0.1650070333782557E+01
    0.0000000000000000E+00    0.6104060924692103E-18    0.0000000000000000E+00
    0.4086422318222992E+01    0.0000000000000000E+00   -0.4612828702537229E+00
    0.0000000000000000E+00    0.6104060924692103E-18    0.0000000000000000E+00
    0.2979540174134984E+01    0.0000000000000000E+00   -0.8579242121530853E+00
    0.0000000000000000E+00    0.6104060924692103E-18    0.0000000000000000E+00
    0.3045064261640043E+01    0.0000000000000000E+00   -0.1836846154397680E+01
    0.0000000000000000E+00    0.6104060924692103E-18    0.0000000000000000E+00
    0.3428197553792836E+01    0.0000000000000000E+00    0.3508002863614053E+00
    0.0000000000000000E+00    0.6104060924692103E-18    0.0000000000000000E+00
    0.4309693860063405E+01    0.0000000000000000E+00    0.5185680230613409E+00
    0.0000000000000000E+00    0.6104060924692103E-18    0.0000000000000000E+00
    0.1827272193562204E+01    0.0000000000000000E+00    0.1738996113203182E+01
    0.0000000000000000E+00    0.6104060924692103E-18    0.0000000000000000E+00
    0.2808563282768077E+01    0.0000000000000000E+00    0.1325493893339706E+01
    0.0000000000000000E+00    0.6104060924692103E-18    0.0000000000000000E+00
    0.1895995683864404E+01    0.0000000000000000E+00   -0.8731419609589618E+00
    0.0000000000000000E+00    0.6104060924692103E-18    0.0000000000000000E+00
    0.2273179336307740E+01    0.0000000000000000E+00    0.4906150219227333E-01
    0.0000000000000000E+00    0.6104060924692103E-18    0.0000000000000000E+00
    0.5000000000000000E+01    0.0000000000000000E+00    0.2500000000000000E+01
    0.0000000000000000E+00    0.1250000000000000E+01    0.0000000000000000E+00
    0.5000000000000000E+01    0.0000000000000000E+00    0.2500000000000000E+01
    0.0000000000000000E+00    0.2500000000000000E+01    0.0000000000000000E+00
    0.5000000000000000E+01    0.0000000000000000E+00    0.2500000000000000E+01
    0.0000000000000000E+00    0.3750000000000000E+01    0.0000000000000000E+00
    0.5000000000000000E+01    0.0000000000000000E+00    0.2500000000000000E+01
    0.0000000000000000E+00    0.5000000000000000E+01    0.0000000000000000E+00
    0.3750000000000000E+01    0.0000000000000000E+00    0.2500000000000000E+01
    0.0000000000000000E+00    0.5000000000000000E+01    0.0000000000000000E+00
    0.2500000000000000E+01    0.0000000000000000E+00    0.2500000000000000E+01
    0.0000000000000000E+00    0.5000000000000000E+01    0.0000000000000000E+00
    0.1250000000000000E+01    0.0000000000000000E+00    0.2500000000000000E+01
    0.0000000000000000E+00    0.5000000000000000E+01    0.0000000000000000E+00
    0.6104060924692103E-18    0.0000000000000000E+00    0.2500000000000000E+01
    0.0000000000000000E+00    0.5000000000000000E+01    0.0000000000000000E+00
    0.6104060924692103E-18    0.0000000000000000E+00    0.2500000000000000E+01
    0.0000000000000000E+00    0.3750000000000000E+01    0.0000000000000000E+00
    0.6104060924692103E-18    0.0000000000000000E+00    0.2500000000000000E+01
    0.0000000000000000E+00    0.2500000000000000E+01    0.0000000000000000E+00
    0.6104060924692103E-18    0.0000000000000000E+00    0.2500000000000000E+01
    0.0000000000000000E+00    0.1250000000000000E+01    0.0000000000000000E+00
    0.9631080833812172E+00    0.0000000000000000E+00    0.2500000000000000E+01
    0.0000000000000000E+00    0.9613285771248219E+00    0.0000000000000000E+00
    0.3981732467264904E+01    0.0000000000000000E+00    0.2500000000000000E+01
    0.0000000000000000E+00    0.4069753913607991E+01    0.0000000000000000E+00
    0.4035525118777670E+01    0.0000000000000000E+00    0.2500000000000000E+01
    0.0000000000000000E+00    0.1012015867579395E+01    0.0000000000000000E+00
    0.9641717640894248E+00    0.0000000000000000E+00    0.2500000000000000E+01
    0.0000000000000000E+00    0.3972455192261839E+01    0.0000000000000000E+00
    0.1547743040396780E+01    0.0000000000000000E+00    0.2500000000000000E+01
    0.0000000000000000E+00    0.2928177746738678E+01    0.0000000000000000E+00
    0.6985170616192014E+00    0.0000000000000000E+00    0.2500000000000000E+01
    0.0000000000000000E+00    0.3068281976055466E+01    0.0000000000000000E+00
    0.8931277594515110E+00    0.0000000000000000E+00    0.2500000000000000E+01
    0.0000000000000000E+00    0.2052465503257726E+01    0.0000000000000000E+00
    0.2183293750162785E+01    0.0000000000000000E+00    0.2500000000000000E+01
    0.0000000000000000E+00    0.3959073795658649E+01    0.0000000000000000E+00
    0.3855333506014705E+01    0.0000000000000000E+00    0.2500000000000000E+01
    0.0000000000000000E+00    0.2931218481500625E+01    0.0000000000000000E+00
    0.3152495579421047E+01    0.0000000000000000E+00    0.2500000000000000E+01
    0.0000000000000000E+00    0.3635850502723324E+01    0.0000000000000000E+00
    0.3103247580566054E+01    0.0000000000000000E+00    0.2500000000000000E+01
    0.0000000000000000E+00    0.4331682712472464E+01    0.0000000000000000E+00
    0.3266837581688852E+01    0.0000000000000000E+00    0.2500000000000000E+01
    0.0000000000000000E+00    0.1886092433583972E+01    0.0000000000000000E+00
    0.4231539241296245E+01    0.0000000000000000E+00    0.2500000000000000E+01
    0.0000000000000000E+00    0.1915865356532799E+01    0.0000000000000000E+00
    0.1909741006522088E+01    0.0000000000000000E+00    0.2500000000000000E+01
    0.0000000000000000E+00    0.7170024419130505E+00    0.0000000000000000E+00
    0.2880784107213163E+01    0.0000000000000000E+00    0.2500000000000000E+01
    0.0000000000000000E+00    0.9046598906449592E+00    0.0000000000000000E+00
    0.2014316024535771E+01    0.0000000000000000E+00    0.2500000000000000E+01
    0.0000000000000000E+00    0.1762464314805728E+01    0.0000000000000000E+00
    0.2670003247036656E+01    0.0000000000000000E+00    0.2500000000000000E+01
    0.0000000000000000E+00    0.2850479545835163E+01    0.0000000000000000E+00
    0.5000000000000000E+01    0.0000000000000000E+00    0.1250000000000000E+01
    0.0000000000000000E+00    0.5000000000000000E+01    0.0000000000000000E+00
    0.5000000000000000E+01    0.0000000000000000E+00    0.6104060924692103E-18
[...]
POINT_DATA 213
SCALARS rho double 1
LOOKUP_TABLE default
   0.1344267019695465E+01
  -0.1928170679292229E-31
   0.9569620351663444E+00
  -0.2973630990055776E-32
   0.9462826839013183E+00
  -0.2738432034959320E-32
   0.9418683874434979E+00
  -0.3818351339666554E-32
   0.8437288294589083E+00
  -0.5450972101621427E-32
   0.7737785053125871E+00
  -0.5549698663038110E-32
   0.7629655388248422E+00
  -0.5638589668950903E-32
   0.7664232010997050E+00
  -0.5581999215619376E-32
   0.8307795800213434E+00
  -0.5443145766490041E-32
   0.9352921302223807E+00
  -0.3899786169977651E-32
   0.9341975965168600E+00
  -0.3066895011592814E-32
   0.9617063693229536E+00
  -0.3094333935144196E-32
   0.1449458147564557E+01
  -0.1164824679847788E-31
   0.1494082264399923E+01
  -0.1158649156017421E-31
   0.1644657583703757E+01
  -0.1494974666653574E-31
   0.1425833251719353E+01
  -0.1139406309030443E-31
   0.1009002247535399E+01
  -0.4173965451971992E-32
   0.9508646808175840E+00
  -0.3939515162728043E-32
   0.9436502680929255E+00
  -0.3976123670840727E-32
   0.9581489108683412E+00
  -0.2757567627726844E-32
   0.9415724182423468E+00
  -0.2395952971919129E-32
   0.1036366302688957E+01
  -0.4044452887943666E-32
   0.9255999324633328E+00
  -0.2280604614418328E-32
   0.9322179660362899E+00
  -0.2805026958178143E-32
   0.9537387325902084E+00
  -0.4004512658416110E-32
   0.9518642159329175E+00
  -0.3489444592020528E-32
   0.9348365677734332E+00
  -0.3479767166899760E-32
   0.9563935011357330E+00
  -0.3737210420999336E-32
   0.9376030660236655E+00
  -0.4070448750699370E-32
   0.9300514006310087E+00
  -0.2034673507255275E-32
   0.9445029160905353E+00
  -0.3136073718159488E-32
   0.8863352797959175E+00
  -0.2151576959656417E-32
   0.9423501381668647E+00
  -0.2961183658817200E-32
   0.9635378221903973E+00
  -0.1726415734943720E-32
   0.1008308816486720E+01
  -0.1436888910251244E-33
   0.1006769192159997E+01
   0.5233888466668190E-34
   0.1001857477700131E+01
  -0.1626872496093630E-33
   0.1003124459596311E+01
  -0.2685308171830114E-33
   0.1004093803137351E+01
  -0.3057838439902414E-33
   0.1005222970171921E+01
  -0.2738729189458750E-33
   0.1004259124365481E+01
  -0.2168770932363536E-33
   0.1008292614949914E+01
  -0.3320697071233322E-33
   0.1023882348463689E+01
  -0.7533933072734553E-33
   0.1063537224116812E+01
  -0.3289483526542150E-33
   0.1019173467709209E+01
  -0.2263677929012170E-32
   0.1001771535161978E+01
  -0.1573471192767098E-33
   0.9644010184923641E+00
  -0.2153981828064581E-32
   0.1005265186806935E+01
  -0.3181857158504602E-33
   0.1000700066614764E+01
  -0.2021536508167890E-33
   0.1008724216653553E+01
  -0.4292433243313689E-33
   0.1008060749803156E+01
  -0.1901721138293405E-33
   0.1002336141775211E+01
  -0.2870313738743363E-33
   0.9980001410121593E+00
  -0.6204775728753850E-34
   0.1000580101739043E+01
  -0.1497334940894218E-33
   0.1001603197611408E+01
  -0.2693871920444011E-33
   0.9826720320083356E+00
  -0.6983290268454154E-33
   0.9842340564092875E+00
  -0.7248572713670249E-33
   0.9833218577983163E+00
  -0.2329342849742414E-32
   0.9788541677120746E+00
  -0.2199890972362237E-32
   0.9902494661303599E+00
  -0.6290236437109717E-33
   0.9934419870221228E+00
  -0.1425945029034432E-33
   0.1001926398351898E+01
  -0.1515987701694759E-33
   0.1002058846549210E+01
  -0.1464818769500354E-33
   0.1002230166343288E+01
  -0.1445499931895588E-33
   0.1001729288549756E+01
  -0.1722792260590574E-33
   0.1009794417364498E+01
  -0.1217931319763325E-34
   0.1006420935299981E+01
  -0.3443137091492376E-35
   0.9558518591075006E+00
  -0.1097207615715596E-32
   0.9249384809580825E+00
  -0.2385806115936530E-32
   0.1007036466064380E+01
  -0.9781732551919855E-35
   0.1004507811470321E+01
  -0.6793447917190463E-35
   0.9143645058215252E+00
  -0.1656559281021203E-32
   0.9089893972850273E+00
  -0.1513542864046192E-32
   0.8751868737345376E+00
  -0.2639783831605701E-32
   0.9766925965952769E+00
  -0.7196125877064660E-33
   0.1000419764320480E+01
  -0.1064850032149058E-33
   0.1005832486391773E+01
   0.2645085671416414E-34
   0.1012901387204953E+01
   0.2220561169421172E-33
   0.1011639591855212E+01
   0.8267709039202316E-34
   0.1010468740916773E+01
   0.2390376914929693E-33
   0.1005447286696642E+01
  -0.1436441262528670E-34
   0.9907369312623271E+00
  -0.7329881530683201E-33
   0.1005160984521558E+01
   0.7617745335174532E-34
   0.9860350808429107E+00
  -0.1670331727424862E-33
   0.1005591815426561E+01
   0.1978623122591165E-33
   0.1004242228902650E+01
  -0.2220594613326048E-33
   0.1002869574483413E+01
  -0.1992765832642860E-33
   0.1003327521053359E+01
  -0.1894905467819579E-33
   0.1003986596455986E+01
  -0.1965929742912246E-33
   0.1005087302025306E+01
  -0.2615216582264472E-33
   0.1003200196878135E+01
  -0.2814828552097683E-33
   0.1002632328655964E+01
  -0.2385779993820578E-33
   0.1002499085372264E+01
  -0.2804238637832138E-33
   0.1004049300959776E+01
  -0.2176896687747787E-33
   0.1004298169938383E+01
  -0.2335569216811933E-33
   0.1001608577437183E+01
  -0.2799799402799332E-33
   0.1002211484019034E+01
  -0.2679576290978026E-33
   0.1002464942801954E+01
  -0.2572687898930952E-33
   0.1003437273456369E+01
  -0.3191317225509649E-33
   0.1003363256804590E+01
  -0.2755081497283144E-33
   0.1003220434437477E+01
  -0.2042693691340705E-33
   0.1004417354652798E+01
  -0.2774175851352193E-33
   0.1004307316099854E+01
  -0.2835523243197263E-33
   0.1003649598198968E+01
  -0.1997909198168004E-33
   0.1003660288205290E+01
  -0.2801236283736510E-33
   0.1004304100085345E+01
  -0.2916789592006029E-33
   0.1004446788365073E+01
  -0.3270733452760678E-33
   0.1003592197530280E+01
  -0.2937369398785063E-33
   0.1064415892700036E+01
  -0.3255991173451015E-33
   0.1028463303613498E+01
  -0.6728205992639241E-33
   0.1009570538138216E+01
  -0.3285183806164196E-33
   0.1006630233282655E+01
  -0.3131714026731948E-33
   0.1163915952655966E+01
  -0.1935904902758061E-32
   0.1086088956708957E+01
  -0.2067935612713131E-33
   0.1007875703663205E+01
  -0.3204151338992274E-33
   0.1007229067595349E+01
  -0.3095601882614197E-33
   0.1006789465733481E+01
  -0.2865219519579584E-33
   0.1013007951412481E+01
  -0.6504288936658342E-33
   0.1019369739549447E+01
  -0.5992812952202541E-33
   0.1235197106697854E+01
  -0.3624770511306246E-32
   0.1032525198361441E+01
  -0.3541050119917306E-33
   0.1046663651455135E+01
  -0.9412498497643241E-33
   0.1200941085265578E+01
  -0.2852883818778563E-32
   0.1014711034652833E+01
  -0.4704300648701327E-33
   0.1032275203730599E+01
  -0.8159270250000990E-33
   0.1028080402702376E+01
  -0.1072127921225810E-32
   0.1014614953100551E+01
  -0.5959788300228178E-33
   0.1029208802986130E+01
  -0.1370262751871401E-32
   0.1001987058687041E+01
  -0.1807878852077389E-33
   0.9607032373820406E+00
  -0.1519743695613317E-32
   0.1006839686236736E+01
  -0.3069829859882535E-33
   0.1001310168506189E+01
  -0.2342890359373504E-33
   0.1010807273912876E+01
  -0.3905419495277053E-33
   0.1012236439569039E+01
  -0.2917432473634369E-33
   0.1000934542424437E+01
  -0.2773715003731534E-33
   0.9979042888624018E+00
  -0.6309782211130005E-34
   0.9980562528032015E+00
  -0.1899125186162490E-33
   0.1001168934317526E+01
  -0.2483496980264590E-33
   0.9841073312223857E+00
  -0.3883930082321927E-33
   0.9814616486351747E+00
  -0.3977084868255726E-33
   0.9648470906010065E+00
  -0.1571273644851246E-32
   0.9680776377096666E+00
  -0.1606982426432118E-32
   0.9914092090621635E+00
  -0.4065125658755158E-33
   0.9910730729131203E+00
  -0.1498930350435258E-33
   0.9925395475889240E+00
  -0.6514733844231265E-35
   0.1001710413943002E+01
  -0.1952581786083672E-33
   0.9993232977928458E+00
  -0.2415982504500604E-34
   0.9941281322820967E+00
   0.3190821547289904E-34
   0.1007024421258874E+01
   0.7832024985325267E-34
   0.1022528039325922E+01
  -0.1768496486530885E-33
   0.1001086544750325E+01
  -0.3860743723586826E-33
   0.1008782630245749E+01
  -0.3723961806820907E-33
   0.1004757533130128E+01
  -0.3282964087562892E-33
   0.1009029262103483E+01
  -0.3949384755607483E-33
   0.9966337571184462E+00
  -0.2308425778943432E-33
   0.1004979679632566E+01
  -0.2495927256796781E-32
   0.1003316804875036E+01
  -0.2879076742724351E-33
   0.9949326954696199E+00
  -0.1037081417363775E-33
   0.9832512909013157E+00
  -0.1995695994307120E-33
   0.9943801868165761E+00
  -0.7517426659449342E-34
   0.9973370813679698E+00
  -0.4400392312284141E-34
   0.9931993230999940E+00
  -0.1545903127352831E-34
   0.1001297996935378E+01
  -0.2528443807643448E-33
   0.1002993522608636E+01
  -0.2786261580132497E-33
   0.1002168356799995E+01
  -0.2360529422927661E-33
   0.9947060779261169E+00
   0.7808820538145220E-34
   0.9937906937916852E+00
  -0.6918994815374301E-34
   0.1004853217454916E+01
  -0.3371870181910642E-33
   0.1020064253361195E+01
  -0.1917585518675507E-33
   0.1005353752892785E+01
  -0.2724633714361267E-33
   0.9816911515561484E+00
  -0.2010824735168577E-33
   0.1004961378833431E+01
  -0.2902198397322753E-33
   0.1012366190507784E+01
  -0.3697734030021449E-33
   0.9871320579820458E+00
  -0.1627557841079329E-32
   0.9551461658124752E+00
  -0.1126517179349506E-32
   0.9864982445134626E+00
  -0.2198554977068025E-33
   0.9864417858266604E+00
  -0.3373129208583326E-33
   0.9918881090943164E+00
  -0.1872966297340786E-32
   0.9933389890705804E+00
  -0.3716034196154870E-33
   0.9954305792385116E+00
  -0.1564325727766604E-32
   0.1037328900939919E+01
  -0.3385226408543577E-33
   0.1033524497027128E+01
  -0.1114522052572575E-32
   0.1001426029634862E+01
  -0.1324832680420870E-33
   0.1001912801940792E+01
  -0.2547252256233420E-33
   0.9912324224688257E+00
   0.1813922262582398E-35
   0.9910790415708640E+00
  -0.1039481557467734E-33
   0.9648200239555467E+00
  -0.7579302587535870E-33
   0.9933159689116159E+00
  -0.9611887999385573E-34
   0.1006058190769110E+01
  -0.1057751187278707E-34
   0.1001951445849955E+01
  -0.1676389839433368E-34
   0.9908606842646692E+00
  -0.1554644972616530E-33
   0.9740756605662880E+00
  -0.1140590484500848E-32
   0.9418723958235707E+00
  -0.2212688096586478E-32
   0.9819200920332131E+00
  -0.1185561205974024E-32
   0.9794670297594639E+00
  -0.1859829248428054E-33
   0.9704193773839418E+00
  -0.1361099241050932E-32
   0.9720239423997996E+00
  -0.1008418123270939E-32
   0.9557222769487198E+00
  -0.6637148152855720E-33
   0.9496779691095267E+00
  -0.1215864204406637E-32
   0.9528788120629337E+00
  -0.2013085602058635E-32
   0.1002641724898023E+01
  -0.3039021058231509E-33
   0.1002466661063726E+01
  -0.2880272760757302E-33
   0.1000501761041820E+01
  -0.1716831919262970E-33
   0.1001691470534733E+01
   0.3255199585835678E-34
   0.9607697491228925E+00
  -0.2069170565785601E-32
   0.9492033431805461E+00
  -0.2269288469190407E-32
   0.9584631988816650E+00
  -0.2024335742303325E-32
   0.1001115862939089E+01
  -0.2577325089635942E-33
   0.1000492359798883E+01
  -0.2076273392023264E-33
   0.1001169299606036E+01
  -0.6094539864049079E-34
   0.9807286208790410E+00
  -0.2089646798293452E-33
   0.9805902052354861E+00
  -0.9414419090223401E-33
   0.9628514396591104E+00
  -0.1657969902248088E-32
SCALARS u double 1
LOOKUP_TABLE default
   0.0000000000000000E+00
   0.0000000000000000E+00
   0.0000000000000000E+00
   0.0000000000000000E+00
   0.0000000000000000E+00
   0.0000000000000000E+00
   0.0000000000000000E+00
   0.0000000000000000E+00
   0.0000000000000000E+00
   0.0000000000000000E+00
   0.0000000000000000E+00
   0.0000000000000000E+00
   0.0000000000000000E+00
   0.0000000000000000E+00
   0.0000000000000000E+00
   0.0000000000000000E+00
   0.0000000000000000E+00
   0.0000000000000000E+00
   0.0000000000000000E+00
   0.0000000000000000E+00
   0.0000000000000000E+00
   0.0000000000000000E+00
   0.0000000000000000E+00
   0.0000000000000000E+00
   0.0000000000000000E+00
   0.0000000000000000E+00
   0.0000000000000000E+00
   0.0000000000000000E+00
   0.0000000000000000E+00
   0.0000000000000000E+00
   0.0000000000000000E+00
   0.0000000000000000E+00
   0.0000000000000000E+00
   0.0000000000000000E+00
   0.0000000000000000E+00
   0.0000000000000000E+00
   0.0000000000000000E+00
   0.0000000000000000E+00
   0.0000000000000000E+00
   0.0000000000000000E+00
   0.0000000000000000E+00
   0.0000000000000000E+00
   0.0000000000000000E+00
   0.0000000000000000E+00
   0.0000000000000000E+00
   0.0000000000000000E+00
   0.0000000000000000E+00
   0.0000000000000000E+00
   0.0000000000000000E+00
   0.0000000000000000E+00
   0.0000000000000000E+00
   0.0000000000000000E+00
   0.0000000000000000E+00
   0.0000000000000000E+00
   0.0000000000000000E+00
   0.0000000000000000E+00
   0.0000000000000000E+00
   0.0000000000000000E+00
   0.0000000000000000E+00
   0.0000000000000000E+00
   0.0000000000000000E+00
   0.0000000000000000E+00
   0.0000000000000000E+00
   0.0000000000000000E+00
   0.0000000000000000E+00
   0.0000000000000000E+00
   0.4949278824905642E+00
   0.1397614040317023E-32
   0.5338112574781896E+00
  -0.3124099431329338E-33
   0.5183807331596438E+00
  -0.3990603619529422E-33
   0.4930034841832737E+00
  -0.6623071985358495E-36
   0.4845359638126384E+00
   0.3310022354994356E-33
   0.4867358492646281E+00
   0.4239784510261106E-33
   0.4891296825875305E+00
   0.3884285095397524E-33
   0.4958382993955068E+00
   0.2324104953689284E-33
   0.4898330491416292E+00
   0.3613652182025018E-33
   0.4717517661791727E+00
   0.7139022561625801E-33
   0.4455021590312643E+00
   0.5922993980545661E-33
   0.4833967749983628E+00
  -0.1088242731909852E-32
   0.5099454998993207E+00
   0.3632027740813904E-35
   0.4390219931763961E+00
   0.1214449792732558E-32
   0.4949635058558793E+00
   0.3093913898863277E-33
   0.5225566255512342E+00
   0.1055049973070277E-33
   0.4962573743562154E+00
   0.3282024812175593E-33
   0.5226346092995067E+00
   0.1690884278012002E-33
   0.5039535200238889E+00
   0.2360058514212116E-33
   0.5647638575208551E+00
  -0.2032024283432549E-33
   0.5248437877849216E+00
   0.1787172732163392E-34
   0.4992291380115195E+00
   0.2294604205108159E-33
   0.5730321158628430E+00
  -0.4778926273884847E-35
   0.5695644888548154E+00
   0.2729673524248351E-33
   0.3737818151449247E+00
  -0.6390718966268373E-33
   0.3998085537313114E+00
   0.3275703247706439E-33
   0.5599353498204526E+00
  -0.3995157544797833E-33
   0.5565001966384634E+00
  -0.1096994465794849E-33
   0.4941813992383494E+00
  -0.2041069669888482E-34
   0.4948052120543546E+00
  -0.3342651956241618E-34
   0.4925088040416292E+00
  -0.4387004333302276E-34
   0.4913885557669264E+00
   0.4372137643389403E-35
   0.5162950048948834E+00
  -0.3111321592415013E-33
   0.5361795628837297E+00
  -0.3040195824280895E-33
   0.4947210274646641E+00
   0.9775735919744441E-33
   0.4523786170602721E+00
   0.1967108360272328E-32
   0.5129045063563701E+00
  -0.2789174950308764E-33
   0.5118476410939945E+00
  -0.2910228195251543E-33
   0.4783159222045759E+00
   0.1522625083144468E-32
   0.4931484074029939E+00
   0.1436200454682239E-32
   0.4602858051197158E+00
   0.2386693822014054E-32
   0.5245013189894587E+00
   0.5999041673120664E-33
   0.5297469836740244E+00
  -0.1149058921184243E-33
   0.5129821423631242E+00
  -0.3139856853396979E-33
   0.5328335669967693E+00
  -0.5314196559641303E-33
   0.5309087783600218E+00
  -0.4299296828409376E-33
   0.5310009739911090E+00
  -0.5574880528583362E-33
   0.5063871073643286E+00
  -0.2465299301878929E-33
   0.5282251785584247E+00
   0.3304549657162557E-33
   0.5410274027958644E+00
  -0.4706192715738181E-33
   0.5361270551582388E+00
   0.1359524494774241E-33
   0.5374182781730454E+00
  -0.4145395717191136E-33
   0.4965531454015024E+00
   0.2121152622165741E-33
   0.4975464780910362E+00
   0.1933944090520210E-33
   0.4963925669841287E+00
   0.2031926293496976E-33
   0.4955397963807408E+00
   0.2156815976818991E-33
   0.4904527081281740E+00
   0.3818046361493115E-33
   0.4902488182447539E+00
   0.4034463939907728E-33
   0.4860455914993655E+00
   0.2969591358582538E-33
   0.4851910955613731E+00
   0.2809997509327111E-33
   0.4932252260323020E+00
   0.3152036410320460E-33
   0.4910081429505312E+00
   0.3477120950343166E-33
   0.4830821635576914E+00
   0.2615394068471529E-33
   0.4871170092872671E+00
   0.2330187027448386E-33
   0.4878477586397922E+00
   0.2008108100194568E-33
   0.4871553981502096E+00
   0.3828238555217773E-33
   0.4881579531967354E+00
   0.3992209896236097E-33
   0.4952683139283519E+00
   0.2740831572301378E-33
   0.4900944235639543E+00
   0.4202204722490779E-33
   0.4903796499660177E+00
   0.4149957981044799E-33
   0.4944436876184936E+00
   0.3011933890021976E-33
   0.4866873869947672E+00
   0.3880451697650118E-33
   0.4892339650390063E+00
   0.4161079869726343E-33
   0.4881387701094743E+00
   0.4358486310517218E-33
   0.4877631456454029E+00
   0.3946078829397082E-33
   0.4446943042933151E+00
   0.4672474169411034E-33
   0.4700133569406937E+00
   0.6206402024095125E-33
   0.4892142241138226E+00
   0.3373580538224512E-33
   0.4885079333828340E+00
   0.3486249600977322E-33
   0.4506815291032334E+00
   0.1240953206265659E-32
   0.4687225018774518E+00
   0.4909083568780277E-33
   0.4877080639915748E+00
   0.3438386131715463E-33
   0.4868379883165984E+00
   0.3451721052223347E-33
   0.4909073556831112E+00
   0.2893507206524441E-33
   0.4793680993714491E+00
   0.5986510425682932E-33
   0.4658289086334452E+00
   0.6073599367402258E-33
   0.3792814392685379E+00
   0.1959585488254592E-32
   0.4901621220546808E+00
   0.2121124010598385E-33
   0.4486862227888718E+00
   0.7633373069288443E-33
   0.4436310714399320E+00
   0.1478445588988019E-32
   0.4845238722924356E+00
   0.4820333879043840E-33
   0.4622157389256560E+00
   0.7413814110810814E-33
   0.4665991075817235E+00
   0.7613311654359856E-33
   0.4748309154412100E+00
   0.5900106142356755E-33
   0.4894644237988781E+00
  -0.5110230369893629E-33
   0.5086550539198549E+00
  -0.7437185831901243E-35
   0.4314870145538970E+00
   0.1203802703789652E-32
   0.4927489957256198E+00
   0.3104246709601517E-33
   0.5318444358824278E+00
   0.9187012744498634E-35
   0.4913494631654911E+00
   0.3269112462238510E-33
   0.5207125672508847E+00
   0.1256409348262774E-33
   0.5061666751610840E+00
   0.2004591012293016E-33
   0.5689355775053399E+00
  -0.1534728962370072E-33
   0.5274827394630556E+00
  -0.5113363553458278E-35
   0.5015535827589335E+00
   0.1981629079106292E-33
   0.5821440461143484E+00
   0.2322963167739158E-33
   0.5689329850423378E+00
   0.3573687737830507E-33
   0.3406475285079924E+00
   0.1650757048017301E-33
   0.3789657075433044E+00
   0.6276818796921377E-33
   0.5751939190813679E+00
  -0.1602186010997208E-33
   0.5666642868729109E+00
  -0.1131619688746917E-33
   0.5704151782812196E+00
  -0.5088082200399607E-34
   0.5291209051264263E+00
   0.6005811713546728E-34
   0.5452011431732470E+00
   0.5396038496519486E-34
   0.5718763412000594E+00
  -0.3929307351883165E-34
   0.5389245375954060E+00
   0.2527356486473529E-33
   0.5475596038470515E+00
   0.1966769662006128E-33
   0.5821760120353690E+00
  -0.1956671770380173E-33
   0.4925752681206983E+00
   0.2837750737945837E-33
   0.5042528467952162E+00
   0.2373879492432648E-33
   0.4961885201926225E+00
   0.3329157579656742E-33
   0.5565263684353211E+00
  -0.2906928678610123E-33
   0.4758940631551171E+00
  -0.1584284279338391E-32
   0.4950522656374090E+00
   0.3139298496269016E-33
   0.5498882796382448E+00
  -0.2989686074088189E-34
   0.5891054194641494E+00
   0.1060955207758213E-33
   0.5842296313520231E+00
  -0.1481148939119100E-33
   0.5469767085344002E+00
  -0.5754733685053419E-34
   0.5805360494181451E+00
  -0.1173381117512805E-33
   0.5106923147411671E+00
   0.1752439553532672E-33
   0.5030846379918440E+00
   0.2558504260907771E-33
   0.5034173152307486E+00
   0.1671907726236666E-33
   0.5676683823706058E+00
  -0.2182104600044967E-33
   0.5564306285441237E+00
  -0.2850200005958709E-34
   0.4947552083880916E+00
   0.2962402870621342E-33
   0.5505317347229722E+00
  -0.5259599167992611E-34
   0.5510885864458989E+00