title="tecplot geometry and solution file"
variables = x y z rho u v w p mach temperature
zone t="boundary 1 bc-1", solutiontime= 0.1000000E+02, strandid=1001, i=32, j=46, f=feblock
 -0.547473805950E-02  0.108867871289E-17 -0.567611393137E-02  0.108867871289E-17  0.108867871289E-17  0.108867871289E-17 -0.525163715706E-02
 -0.425779957523E-02  0.108867871289E-17  0.108867871289E-17  0.108867871289E-17  0.108867871289E-17  0.108867871289E-17  0.108867871289E-17
  0.108867871289E-17  0.108867871289E-17 -0.338397811579E-02  0.108867871289E-17  0.108867871289E-17  0.108867871289E-17  0.108867871289E-17
  0.108867871289E-17  0.108867871289E-17  0.108867871289E-17  0.108867871289E-17  0.108867871289E-17  0.108867871289E-17  0.108867871289E-17
  0.108867871289E-17  0.108867871289E-17  0.108867871289E-17  0.108867871289E-17
  0.250494199996E+01  0.250494199996E+01  0.127822171177E+01  0.146289271009E+01  0.157686156160E+01  0.308372018325E+00  0.261949834557E-01
 -0.122573470438E+01 -0.600232012419E+00  0.250494199996E+01  0.477386199275E+00  0.742988685424E+00 -0.739814786992E+00  0.177790177481E+01
  0.155830813274E+01  0.250494199996E+01 -0.249658902117E+01 -0.154800130438E+01 -0.487811078581E+00  0.250494199996E+01  0.627766083140E+00
 -0.345533899378E+00 -0.178862290564E+01 -0.158811787973E+01  0.125000000000E+01 -0.249658902117E+01 -0.144524380962E+01  0.108867871289E-17
 -0.125000000000E+01 -0.249658902117E+01 -0.249658902117E+01 -0.249658902117E+01
  0.805555099614E-04  0.125000000000E+01  0.823774297186E-04  0.103724302461E+01  0.219251206392E+01  0.922061490191E+00  0.103961354043E-03
  0.342005475211E-04  0.715990576545E+00  0.250000000000E+01  0.202479342020E+01  0.324151231464E+01  0.175434191980E+01  0.310152362409E+01
  0.404200324774E+01  0.375000000000E+01  0.810770748851E-04  0.930412228790E+00  0.299062775774E+01  0.500000000000E+01  0.429310310915E+01
  0.409252726285E+01  0.187029682677E+01  0.284428995242E+01  0.500000000000E+01  0.125000000000E+01  0.394624082883E+01  0.500000000000E+01
  0.500000000000E+01  0.250000000000E+01  0.375000000000E+01  0.500000000000E+01
  0.121913402954E+01  0.105779151627E+01  0.128635716144E+01  0.108328620712E+01  0.102321992988E+01  0.116886032716E+01  0.145480523801E+01
  0.134672881221E+01  0.119271592687E+01  0.101649858488E+01  0.101719555878E+01  0.100659026981E+01  0.102828196106E+01  0.100980324582E+01
  0.100336978420E+01  0.100488169723E+01  0.129901196713E+01  0.114135440138E+01  0.100787888780E+01  0.100154290432E+01  0.100370070699E+01
  0.100379592266E+01  0.103449029244E+01  0.101209916895E+01  0.100176666502E+01  0.106065157118E+01  0.100432724130E+01  0.100091615898E+01
  0.100128151293E+01  0.102033436730E+01  0.100594962475E+01  0.100183209868E+01
  0.000000000000E+00  0.452531913105E+00  0.000000000000E+00  0.472171861035E+00  0.471167719140E+00  0.460022250811E+00  0.000000000000E+00
  0.000000000000E+00  0.402141591299E+00  0.479176052269E+00  0.474634071017E+00  0.485601067140E+00  0.492226720028E+00  0.489447483065E+00
  0.491928206757E+00  0.493334697295E+00  0.000000000000E+00  0.465112760725E+00  0.481745993465E+00  0.498427962363E+00  0.494141123977E+00
  0.490748820492E+00  0.459295449342E+00  0.473895880585E+00  0.499374062494E+00  0.451818168281E+00  0.491461280239E+00  0.499978800751E+00
  0.498779442955E+00  0.477460392706E+00  0.492875907629E+00  0.497927872777E+00
  0.000000000000E+00  0.000000000000E+00  0.000000000000E+00  0.149131942044E-01 -0.384958510888E-02  0.284852889531E-01  0.000000000000E+00
  0.000000000000E+00 -0.411287406159E-02  0.000000000000E+00  0.289393113115E-02 -0.501610113057E-02 -0.303047052125E-02 -0.223720898294E-03
 -0.103721217787E-02  0.000000000000E+00  0.000000000000E+00 -0.863999207024E-02  0.989604856221E-03  0.000000000000E+00 -0.179884339198E-02
 -0.104815337359E-02  0.220530071095E-02 -0.143786711990E-02 -0.308453154466E-03  0.000000000000E+00  0.130788698085E-03 -0.404132553979E-03
  0.617174573064E-03  0.000000000000E+00  0.000000000000E+00  0.000000000000E+00
  0.000000000000E+00  0.391541417638E-01  0.000000000000E+00  0.103093049297E+00  0.226108267303E-01  0.135137292171E+00  0.000000000000E+00
  0.000000000000E+00  0.127188421168E+00  0.363193976687E-02  0.221802176462E-01 -0.673459733770E-02  0.639389109180E-01  0.309111426735E-02
 -0.831857370243E-03  0.412063942588E-03  0.000000000000E+00  0.115315326433E+00 -0.790046285315E-02  0.187278629809E-02 -0.774024427261E-03
 -0.452056018743E-02  0.226166150801E-01 -0.201970940646E-02  0.235824850826E-02  0.692843994078E-01 -0.179840608025E-02  0.177659910220E-02
  0.168307250290E-02  0.233318364924E-02 -0.108519910986E-02  0.251474761814E-02
  0.907755361361E+00  0.774478234901E+00  0.957809052683E+00  0.800125663829E+00  0.737742285287E+00  0.857521177813E+00  0.108323385497E+01
  0.100276119767E+01  0.886720400488E+00  0.730430024734E+00  0.733281493017E+00  0.720269088467E+00  0.747996587865E+00  0.724145688896E+00
  0.717478320370E+00  0.719176608760E+00  0.967231698128E+00  0.840270445363E+00  0.722217583485E+00  0.716117581265E+00  0.717907691747E+00
  0.717843951498E+00  0.748949504872E+00  0.726358877627E+00  0.716191681061E+00  0.782056228171E+00  0.718577053060E+00  0.715264547732E+00
  0.715595089205E+00  0.734023545614E+00  0.720276574160E+00  0.716284877414E+00
  0.000000000000E+00  0.448642241197E+00  0.000000000000E+00  0.475497035006E+00  0.469523820294E+00  0.473928674688E+00  0.000000000000E+00
  0.000000000000E+00  0.413440825462E+00  0.477757642304E+00  0.472980790727E+00  0.485243264932E+00  0.491868470361E+00  0.488490581269E+00
  0.491660605447E+00  0.492853092956E+00  0.000000000000E+00  0.472083945061E+00  0.481042611266E+00  0.498177441273E+00  0.493808092835E+00
  0.490481185480E+00  0.456768298672E+00  0.472781820516E+00  0.499155132218E+00  0.449898082588E+00  0.491053897041E+00  0.499868715137E+00
  0.498645330015E+00  0.475767509281E+00  0.492281024809E+00  0.497694152988E+00
  0.104242640687E+01  0.102503140948E+01  0.104242640687E+01  0.103405353267E+01  0.100940097944E+01  0.102709418828E+01  0.104242640687E+01
  0.104242640687E+01  0.104082500511E+01  0.100600438587E+01  0.100923965049E+01  0.100177475791E+01  0.101839306986E+01  0.100396187936E+01
  0.100109617046E+01  0.100195600641E+01  0.104242640687E+01  0.103068654407E+01  0.100320051260E+01  0.100102013548E+01  0.100136500995E+01
  0.100118112597E+01  0.101357094840E+01  0.100474583902E+01  0.100090009829E+01  0.103226992652E+01  0.100167339182E+01  0.100045379209E+01
  0.100055090596E+01  0.100715314194E+01  0.100242316217E+01  0.100096496180E+01
        12        19        11        11
        11         5        12        12
        10        14         5         5
        19        13        11        11
        19        24        13        13
        30        23        24        24
        19        12        22        22
        28        22        21        21
        11        13         6         6
         7         6         9         9
        15        12        14        14
        18        13        23        23
        15        25        21        21
        27        19        22        22
        18         8         9         9
        27        31        24        24
         4        11         6         6
         5        14        12        12
         4         2         5         5
        21        12        15        15
        14        16        15        15
        24        19        27        27
        22        29        27        27
        23        26        18        18
        17         8        18        18
         5        11         4         4
         6         3         4         4
        26        23        30        30
         5         2        10        10
        16        14        10        10
         3         6         7         7
        21        25        28        28
        29        22        28        28
         6        13         9         9
         2         4         1         1
        31        27        32        32
        25        15        20        20
        24        23        13        13
         8         7         9         9
        13        18         9         9
        31        30        24        24
        12        21        22        22
        29        32        27        27
         3         1         4         4
        26        17        18        18
        16        20        15        15
zone t="boundary 2 bc-2", solutiontime= 0.1000000E+02, strandid=1002, i=33, j=48, f=feblock
  0.500195254569E+01  0.375034811445E+01  0.249861145586E+01  0.288036674135E+01  0.124717525353E+01  0.190856697906E+01  0.326577190006E+01
  0.201394855912E+01 -0.338397811579E-02  0.962374243892E+00  0.500000000000E+01  0.403430189815E+01  0.423029563516E+01  0.500000000000E+01
  0.385439188840E+01  0.500000000000E+01  0.398133433219E+01  0.315200081383E+01  0.266958028789E+01  0.154798029748E+01  0.218327860401E+01
  0.893688440127E+00  0.108867871289E-17  0.699009761219E+00  0.964460898511E+00  0.310303671661E+01  0.108867871289E-17  0.108867871289E-17
  0.125000000000E+01  0.500000000000E+01  0.375000000000E+01  0.250000000000E+01  0.108867871289E-17
 -0.249658902117E+01 -0.249658902117E+01 -0.249658902117E+01 -0.249658902117E+01 -0.249658902117E+01 -0.249658902117E+01 -0.249658902117E+01
 -0.249658902117E+01 -0.249658902117E+01 -0.249658902117E+01 -0.249658902117E+01 -0.249658902117E+01 -0.249658902117E+01 -0.249658902117E+01
 -0.249658902117E+01 -0.249658902117E+01 -0.249658902117E+01 -0.249658902117E+01 -0.249658902117E+01 -0.249658902117E+01 -0.249658902117E+01
 -0.249658902117E+01 -0.249658902117E+01 -0.249658902117E+01 -0.249658902117E+01 -0.249658902117E+01 -0.249658902117E+01 -0.249658902117E+01
 -0.249658902117E+01 -0.249658902117E+01 -0.249658902117E+01 -0.249658902117E+01 -0.249658902117E+01
  0.108218466124E-03  0.145871002877E-03  0.100891403625E-03  0.901663364691E+00  0.110859770246E-03  0.714928312397E+00  0.188140647111E+01
  0.175892165294E+01  0.810770748851E-04  0.957504290555E+00  0.125000000000E+01  0.100596696999E+01  0.191313518634E+01  0.250000000000E+01
  0.292898096729E+01  0.375000000000E+01  0.406883369623E+01  0.363389290091E+01  0.284756861229E+01  0.292582308304E+01  0.395754055152E+01
  0.205027257041E+01  0.125000000000E+01  0.306703272778E+01  0.397155766783E+01  0.433068622257E+01  0.250000000000E+01  0.375000000000E+01
  0.500000000000E+01  0.500000000000E+01  0.500000000000E+01  0.500000000000E+01  0.500000000000E+01
  0.769848462231E+00  0.890969601205E+00  0.899715125471E+00  0.951071618018E+00  0.924831457689E+00  0.948252255410E+00  0.980877919053E+00
  0.987872239044E+00  0.129901196713E+01  0.101379452382E+01  0.945023516488E+00  0.945591958719E+00  0.977864235337E+00  0.100636522092E+01
  0.997604648723E+00  0.100997520199E+01  0.100031097656E+01  0.996096918086E+00  0.990213212190E+00  0.999018343464E+00  0.997941747568E+00
  0.100905755883E+01  0.106065157118E+01  0.100613739957E+01  0.100334408928E+01  0.998373463968E+00  0.102033436730E+01  0.100594962475E+01
  0.100241356060E+01  0.100093090062E+01  0.100032348041E+01  0.100001270612E+01  0.100183209868E+01
  0.000000000000E+00  0.000000000000E+00  0.000000000000E+00  0.386503946300E+00  0.000000000000E+00  0.341934156647E+00  0.581907470242E+00
  0.570491426852E+00  0.000000000000E+00  0.480966532285E+00  0.506471687936E+00  0.446250331616E+00  0.571039902062E+00  0.531245882034E+00
  0.564965078140E+00  0.512717144523E+00  0.508853949627E+00  0.528092138235E+00  0.564474475825E+00  0.532595774253E+00  0.509099822714E+00
  0.522003009544E+00  0.451818168281E+00  0.495441424515E+00  0.496288375028E+00  0.503901143295E+00  0.477460392706E+00  0.492875907629E+00
  0.493109360091E+00  0.492668808989E+00  0.489129109162E+00  0.493054834862E+00  0.497927872777E+00
  0.000000000000E+00  0.000000000000E+00  0.000000000000E+00  0.000000000000E+00  0.000000000000E+00  0.000000000000E+00  0.000000000000E+00
  0.000000000000E+00  0.000000000000E+00  0.000000000000E+00  0.000000000000E+00  0.000000000000E+00  0.000000000000E+00  0.000000000000E+00
  0.000000000000E+00  0.000000000000E+00  0.000000000000E+00  0.000000000000E+00  0.000000000000E+00  0.000000000000E+00  0.000000000000E+00
  0.000000000000E+00  0.000000000000E+00  0.000000000000E+00  0.000000000000E+00  0.000000000000E+00  0.000000000000E+00  0.000000000000E+00
  0.000000000000E+00  0.000000000000E+00  0.000000000000E+00  0.000000000000E+00  0.000000000000E+00
  0.000000000000E+00  0.000000000000E+00  0.000000000000E+00 -0.141695282300E-02  0.000000000000E+00  0.170442284805E-01  0.788171528118E-02
  0.397224137789E-01  0.000000000000E+00  0.726760975506E-01 -0.110106273390E+00 -0.269388709488E-01 -0.365870527602E-01 -0.476311923528E-01
 -0.510540933986E-02 -0.497807924552E-03 -0.440503029389E-03 -0.231516315316E-02  0.105325826631E-01  0.236677236531E-01  0.226579968313E-02
  0.486907665188E-01  0.692843994078E-01  0.878845708988E-02  0.398082223290E-02 -0.302772084127E-02  0.233318364924E-02 -0.108519910986E-02
  0.656457880167E-03  0.589190478598E-02 -0.131772529948E-02 -0.137028200451E-02  0.251474761814E-02
  0.573221690228E+00  0.663407314297E+00  0.669919146752E+00  0.681595889525E+00  0.688620523858E+00  0.681137768407E+00  0.693245125261E+00
  0.700150411307E+00  0.967231698128E+00  0.721924913166E+00  0.667129493601E+00  0.672235812830E+00  0.691349352800E+00  0.719504443698E+00
  0.710603061501E+00  0.723800104461E+00  0.714798124937E+00  0.710749525718E+00  0.704166671884E+00  0.714135790978E+00  0.712505357739E+00
  0.725684612864E+00  0.782056228171E+00  0.720250688518E+00  0.717620301586E+00  0.712786928114E+00  0.734023545614E+00  0.720276574160E+00
  0.716702176513E+00  0.715226249687E+00  0.714309995441E+00  0.714194970797E+00  0.716284877414E+00
  0.000000000000E+00  0.000000000000E+00  0.000000000000E+00  0.385865510942E+00  0.000000000000E+00  0.341398650654E+00  0.585051119818E+00
  0.574103285547E+00  0.000000000000E+00  0.487171703438E+00  0.521356873196E+00  0.448121194645E+00  0.575151851214E+00  0.533127708311E+00
  0.565771429955E+00  0.511870453102E+00  0.508750805182E+00  0.528375128754E+00  0.565825486674E+00  0.532915588370E+00  0.509215667483E+00
  0.522485368066E+00  0.449898082588E+00  0.494975177206E+00  0.495977123353E+00  0.504029338705E+00  0.475767509281E+00  0.492281024809E+00
  0.492871513757E+00  0.492609100029E+00  0.489201675085E+00  0.493091193753E+00  0.497694152988E+00
  0.104242640687E+01  0.104242640687E+01  0.104242640687E+01  0.100332533035E+01  0.104242640687E+01  0.100563206713E+01  0.989463781897E+00
  0.992244277234E+00  0.104242640687E+01  0.996942530943E+00  0.988315396121E+00  0.995281452306E+00  0.989799052816E+00  0.100093504847E+01
  0.997233009464E+00  0.100331190731E+01  0.100040627201E+01  0.998948313100E+00  0.995576839918E+00  0.100077252226E+01  0.999564857635E+00
  0.100683895494E+01  0.103226992652E+01  0.100220006170E+01  0.100131991902E+01  0.999527466799E+00  0.100715314194E+01  0.100242316217E+01
  0.100096715223E+01  0.100038549009E+01  0.999710606825E+00  0.999860254776E+00  0.100096496180E+01
        15         7        19        19
         8        20        19        19
        18        19        21        21
         7         4         8         8
         3         6         4         4
        19         7         8         8
        19        18        15        15
        14        13        15        15
         8        22        20        20
        27        24        22        22
        19        20        21        21
        32        26        21        21
        17        18        26        26
        17        16        15        15
        25        29        21        21
        12         7        13        13
        10         8         6         6
        25        20        24        24
         4         6         8         8
        12         2         4         4
        10        23        22        22
        26        31        17        17
        30        16        17        17
         4         7        12        12
        13        11        12        12
        21        20        25        25
        24        28        25        25
        22         8        10        10
         6         5        10        10
        31        26        32        32
         4         2         3         3
         5         6         3         3
        11        13        14        14
        22        23        27        27
        28        24        27        27
        15        13         7         7
         2        12         1         1
        29        25        33        33
        23        10         9         9
        21        26        18        18
        16        14        15        15
        18        17        15        15
        29        32        21        21
        22        24        20        20
        28        33        25        25
        11         1        12        12
        31        30        17        17
         5         9        10        10
zone t="boundary 3 bc-3", solutiontime= 0.1000000E+02, strandid=1003, i=33, j=48, f=feblock
  0.375059098657E+01  0.249769607633E+01  0.500322138025E+01  0.403612219887E+01  0.287976772043E+01  0.124541906321E+01  0.190552234484E+01
  0.500000000000E+01  0.326671105082E+01  0.423253757181E+01  0.201271135153E+01 -0.547473805950E-02  0.958895614436E+00  0.500000000000E+01
  0.266968147277E+01  0.385584488388E+01  0.890374186977E+00  0.154654012335E+01  0.108867871289E-17  0.500000000000E+01  0.315261137201E+01
  0.218304199244E+01  0.398195308498E+01  0.108867871289E-17  0.697379936714E+00  0.963757270369E+00  0.125000000000E+01  0.108867871289E-17
  0.500000000000E+01  0.310330738803E+01  0.250000000000E+01  0.375000000000E+01  0.108867871289E-17
  0.250494199996E+01  0.250494199996E+01  0.250494199996E+01  0.250494199996E+01  0.250494199996E+01  0.250494199996E+01  0.250494199996E+01
  0.250494199996E+01  0.250494199996E+01  0.250494199996E+01  0.250494199996E+01  0.250494199996E+01  0.250494199996E+01  0.250494199996E+01
  0.250494199996E+01  0.250494199996E+01  0.250494199996E+01  0.250494199996E+01  0.250494199996E+01  0.250494199996E+01  0.250494199996E+01
  0.250494199996E+01  0.250494199996E+01  0.250494199996E+01  0.250494199996E+01  0.250494199996E+01  0.250494199996E+01  0.250494199996E+01
  0.250494199996E+01  0.250494199996E+01  0.250494199996E+01  0.250494199996E+01  0.250494199996E+01
  0.135804630540E-03  0.110291624817E-03  0.968352334446E-04  0.101756767185E+01  0.908094754997E+00  0.104111079957E-03  0.722629266617E+00
  0.125000000000E+01  0.188965673342E+01  0.191862703992E+01  0.176708252859E+01  0.805555099614E-04  0.969652727920E+00  0.250000000000E+01
  0.285339441810E+01  0.293325064381E+01  0.205656233203E+01  0.293157024792E+01  0.125000000000E+01  0.375000000000E+01  0.363766843534E+01
  0.396069448925E+01  0.407056387650E+01  0.250000000000E+01  0.307031999891E+01  0.397359822904E+01  0.500000000000E+01  0.375000000000E+01
  0.500000000000E+01  0.433260783674E+01  0.500000000000E+01  0.500000000000E+01  0.500000000000E+01
  0.898753556547E+00  0.911640714523E+00  0.782687413849E+00  0.947456446002E+00  0.961656496412E+00  0.922631039182E+00  0.964351826872E+00
  0.951536487820E+00  0.978370210243E+00  0.980121939259E+00  0.987009713394E+00  0.121913402954E+01  0.100527356593E+01  0.100837796954E+01
  0.992359106348E+00  0.997918449094E+00  0.100516525040E+01  0.998205884777E+00  0.105779151627E+01  0.100699225909E+01  0.998842560202E+00
  0.999215936591E+00  0.100027649708E+01  0.101649858488E+01  0.100441243386E+01  0.100198889586E+01  0.100260216123E+01  0.100488169723E+01
  0.100086346861E+01  0.998720992178E+00  0.100111883880E+01  0.100088103483E+01  0.100154290432E+01
  0.000000000000E+00  0.000000000000E+00  0.000000000000E+00  0.453487667963E+00  0.404641370293E+00  0.000000000000E+00  0.369502683282E+00
  0.505611176765E+00  0.571635598335E+00  0.570028968764E+00  0.554931415648E+00  0.000000000000E+00  0.474654312294E+00  0.528160565107E+00
  0.555172228523E+00  0.561464253043E+00  0.524146773675E+00  0.523876286848E+00  0.452531913105E+00  0.514409958272E+00  0.525597211427E+00
  0.506310024314E+00  0.509698557789E+00  0.479176052269E+00  0.499613990671E+00  0.498028874480E+00  0.491675226305E+00  0.493334697295E+00
  0.494319404117E+00  0.501192428077E+00  0.489248362280E+00  0.488242242522E+00  0.498427962363E+00
  0.000000000000E+00  0.000000000000E+00  0.000000000000E+00  0.000000000000E+00  0.000000000000E+00  0.000000000000E+00  0.000000000000E+00
  0.000000000000E+00  0.000000000000E+00  0.000000000000E+00  0.000000000000E+00  0.000000000000E+00  0.000000000000E+00  0.000000000000E+00
  0.000000000000E+00  0.000000000000E+00  0.000000000000E+00  0.000000000000E+00  0.000000000000E+00  0.000000000000E+00  0.000000000000E+00
  0.000000000000E+00  0.000000000000E+00  0.000000000000E+00  0.000000000000E+00  0.000000000000E+00  0.000000000000E+00  0.000000000000E+00
  0.000000000000E+00  0.000000000000E+00  0.000000000000E+00  0.000000000000E+00  0.000000000000E+00
  0.000000000000E+00  0.000000000000E+00  0.000000000000E+00 -0.278899813576E-01  0.118822957271E-01  0.000000000000E+00  0.160340011843E-01
 -0.111963299916E+00 -0.522988749590E-04 -0.449245510238E-01  0.288268214640E-01  0.000000000000E+00  0.530203401275E-01 -0.494398053971E-01
  0.466143197745E-02 -0.989571469659E-02  0.434769062916E-01  0.101239875086E-01  0.391541417638E-01 -0.272791297842E-02 -0.340560705122E-02
 -0.985562616307E-03 -0.637797031035E-03  0.363193976687E-02  0.779447983048E-02  0.180106959836E-02  0.279293525120E-03  0.412063942588E-03
  0.500831192998E-02 -0.192865300798E-02 -0.747891665187E-03 -0.351044771486E-03  0.187278629809E-02
  0.669203171867E+00  0.678798824570E+00  0.582781448945E+00  0.671377931160E+00  0.688596273738E+00  0.686982113601E+00  0.690496419565E+00
  0.671390543478E+00  0.692059021691E+00  0.693021172057E+00  0.701039796477E+00  0.907755361361E+00  0.717367429283E+00  0.721424011504E+00
  0.706841859892E+00  0.711415475486E+00  0.721150564835E+00  0.713299815499E+00  0.774478234901E+00  0.721120737780E+00  0.713524051664E+00
  0.713542863502E+00  0.714760848897E+00  0.730430024734E+00  0.718495742862E+00  0.716202048029E+00  0.716922718366E+00  0.719176608760E+00
  0.715126784719E+00  0.713140684050E+00  0.715129522580E+00  0.714793318090E+00  0.716117581265E+00
  0.000000000000E+00  0.000000000000E+00  0.000000000000E+00  0.456160152241E+00  0.404316143168E+00  0.000000000000E+00  0.369401895136E+00
  0.521042354438E+00  0.574427593221E+00  0.574704080743E+00  0.557249700050E+00  0.000000000000E+00  0.477834412545E+00  0.530045031968E+00
  0.555971235225E+00  0.562097182024E+00  0.524787635264E+00  0.523865515234E+00  0.448642241197E+00  0.513760285413E+00  0.525584273877E+00
  0.506375836338E+00  0.509599955272E+00  0.477757642304E+00  0.499306660561E+00  0.497859753691E+00  0.491408342821E+00  0.492853092956E+00
  0.494267240568E+00  0.501277465120E+00  0.489233664443E+00  0.488283933101E+00  0.498177441273E+00
  0.104242640687E+01  0.104242640687E+01  0.104242640687E+01  0.992055210126E+00  0.100247311470E+01  0.104242640687E+01  0.100242977765E+01
  0.987819986832E+00  0.990302668891E+00  0.989907073820E+00  0.994372904085E+00  0.104242640687E+01  0.999045866756E+00  0.100160222319E+01
  0.997198088392E+00  0.998059176664E+00  0.100442269604E+01  0.100041460076E+01  0.102503140948E+01  0.100255888144E+01  0.100009121771E+01
  0.999743871491E+00  0.100038858394E+01  0.100600438587E+01  0.100147509738E+01  0.100069259388E+01  0.100108681641E+01  0.100195600641E+01
  0.100031375908E+01  0.999675550519E+00  0.100006242297E+01  0.999829760487E+00  0.100102013548E+01
        15         9        16        16
        15        18        11        11
        22        15        21        21
        11         5         9         9
         5         7         2         2
        11         9        15        15
        16        21        15        15
        16        10        14        14
        18        17        11        11
        17        25        24        24
        22        18        15        15
        22        30        31        31
        30        21        23        23
        16        20        23        23
        22        27        26        26
        10         9         4         4
         7        11        13        13
        25        18        26        26
        11         7         5         5
         5         1         4         4
        17        19        13        13
        23        32        30        30
        23        20        29        29
         4         9         5         5
         4         8        10        10
        26        18        22        22
        26        28        25        25
        13        11        17        17
        13         6         7         7
        31        30        32        32
         2         1         5         5
         2         7         6         6
        14        10         8         8
        24        19        17        17
        24        25        28        28
         9        10        16        16
         3         4         1         1
        33        26        27        27
        12        13        19        19
        21        30        22        22
        16        14        20        20
        16        23        21        21
        22        31        27        27
        18        25        17        17
        26        33        28        28
         4         3         8         8
        23        29        32        32
        13        12         6         6
zone t="boundary 4 bc-4", solutiontime= 0.1000000E+02, strandid=1004, i=32, j=46, f=feblock
  0.125000000000E+01  0.219251206392E+01  0.103724302461E+01  0.500000000000E+01  0.250000000000E+01  0.375000000000E+01  0.404200324774E+01
  0.500000000000E+01  0.108867871289E-17  0.310152362409E+01  0.202479342020E+01  0.324151231464E+01  0.922061490191E+00  0.108867871289E-17
  0.299062775774E+01  0.394624082883E+01  0.500000000000E+01  0.409252726285E+01  0.500000000000E+01  0.429310310915E+01  0.175434191980E+01
  0.284428995242E+01  0.108867871289E-17  0.108867871289E-17  0.715990576545E+00  0.930412228790E+00  0.125000000000E+01  0.187029682677E+01
  0.500000000000E+01  0.375000000000E+01  0.250000000000E+01  0.108867871289E-17
  0.250494199996E+01  0.157686156160E+01  0.146289271009E+01  0.250494199996E+01  0.250494199996E+01  0.250494199996E+01  0.155830813274E+01
  0.125000000000E+01  0.250494199996E+01  0.177790177481E+01  0.477386199275E+00  0.742988685424E+00  0.308372018325E+00  0.125000000000E+01
 -0.487811078581E+00 -0.144524380962E+01 -0.125000000000E+01 -0.345533899378E+00  0.108867871289E-17  0.627766083140E+00 -0.739814786992E+00
 -0.158811787973E+01  0.108867871289E-17 -0.125000000000E+01 -0.600232012419E+00 -0.154800130438E+01 -0.249658902117E+01 -0.178862290564E+01
 -0.249658902117E+01 -0.249658902117E+01 -0.249658902117E+01 -0.249658902117E+01
  0.500000000000E+01  0.500000000000E+01  0.500000000000E+01  0.500000000000E+01  0.500000000000E+01  0.500000000000E+01  0.500000000000E+01
  0.500000000000E+01  0.500000000000E+01  0.500000000000E+01  0.500000000000E+01  0.500000000000E+01  0.500000000000E+01  0.500000000000E+01
  0.500000000000E+01  0.500000000000E+01  0.500000000000E+01  0.500000000000E+01  0.500000000000E+01  0.500000000000E+01  0.500000000000E+01
  0.500000000000E+01  0.500000000000E+01  0.500000000000E+01  0.500000000000E+01  0.500000000000E+01  0.500000000000E+01  0.500000000000E+01
  0.500000000000E+01  0.500000000000E+01  0.500000000000E+01  0.500000000000E+01
  0.100260216123E+01  0.100137430455E+01  0.100200835812E+01  0.100086346861E+01  0.100111883880E+01  0.100088103483E+01  0.100033711144E+01
  0.100137151258E+01  0.100154290432E+01  0.100106317426E+01  0.100100716366E+01  0.100024055894E+01  0.100150078762E+01  0.100176666502E+01
  0.100037148053E+01  0.998948771881E+00  0.100191854428E+01  0.100021331756E+01  0.100167019460E+01  0.100083958006E+01  0.100141284795E+01
  0.100017837165E+01  0.100091615898E+01  0.100128151293E+01  0.100102325955E+01  0.100181172075E+01  0.100241356060E+01  0.100111433026E+01
  0.100093090062E+01  0.100032348041E+01  0.100001270612E+01  0.100183209868E+01
  0.491675226305E+00  0.492209291708E+00  0.493686795517E+00  0.494319404117E+00  0.489248362280E+00  0.488242242522E+00  0.489890521844E+00
  0.495120575262E+00  0.498427962363E+00  0.489641897394E+00  0.491727075661E+00  0.491129608942E+00  0.496803938431E+00  0.499374062494E+00
  0.491264200863E+00  0.488062450681E+00  0.493545297288E+00  0.491109176513E+00  0.495480649103E+00  0.491662302721E+00  0.492958946546E+00
  0.491562668287E+00  0.499978800751E+00  0.498779442955E+00  0.497875125432E+00  0.495772323847E+00  0.493109360091E+00  0.493295538827E+00
  0.492668808989E+00  0.489129109162E+00  0.493054834862E+00  0.497927872777E+00
  0.000000000000E+00  0.143845730421E-03 -0.121224388315E-02  0.000000000000E+00  0.000000000000E+00  0.000000000000E+00  0.433868025283E-03
  0.102468748779E-02  0.000000000000E+00  0.363469665647E-03 -0.408448851138E-03 -0.159637577763E-03 -0.176592250194E-02 -0.308453154466E-03
 -0.441476389077E-03 -0.345042954330E-03 -0.549654573603E-03 -0.970050850873E-03 -0.190128362195E-03 -0.292185024863E-03 -0.499533944264E-03
 -0.231007959075E-03 -0.404132553979E-03  0.617174573064E-03 -0.252241171777E-03  0.125218804210E-02  0.000000000000E+00  0.671717440204E-03
  0.000000000000E+00  0.000000000000E+00  0.000000000000E+00  0.000000000000E+00