# vtk DataFile Version 2.0
FUN3D:global_image_vtk
ASCII
DATASET UNSTRUCTURED_GRID
POINTS 213 double
   -0.4769284392886393E-18    0.0000000000000000E+00    0.2500000000000000E+01
    0.0000000000000000E+00   -0.4769284392886393E-18    0.0000000000000000E+00
    0.1250000000000000E+01    0.0000000000000000E+00    0.2500000000000000E+01
    0.0000000000000000E+00   -0.4769284392886393E-18    0.0000000000000000E+00
    0.2500000000000000E+01    0.0000000000000000E+00    0.2500000000000000E+01
    0.0000000000000000E+00   -0.4769284392886393E-18    0.0000000000000000E+00
    0.3750000000000000E+01    0.0000000000000000E+00    0.2500000000000000E+01
    0.0000000000000000E+00   -0.4769284392886393E-18    0.0000000000000000E+00
    0.5000000000000000E+01    0.0000000000000000E+00    0.2500000000000000E+01
    0.0000000000000000E+00   -0.4769284392886393E-18    0.0000000000000000E+00
    0.5000000000000000E+01    0.0000000000000000E+00    0.1250000000000000E+01
    0.0000000000000000E+00   -0.4769284392886393E-18    0.0000000000000000E+00
    0.5000000000000000E+01    0.0000000000000000E+00   -0.4769284392886393E-18
    0.0000000000000000E+00   -0.4769284392886393E-18    0.0000000000000000E+00
    0.5000000000000000E+01    0.0000000000000000E+00   -0.1250000000000000E+01
    0.0000000000000000E+00   -0.4769284392886393E-18    0.0000000000000000E+00
    0.5000000000000000E+01    0.0000000000000000E+00   -0.2500000000000000E+01
    0.0000000000000000E+00   -0.4769284392886393E-18    0.0000000000000000E+00
    0.3750000000000000E+01    0.0000000000000000E+00   -0.2500000000000000E+01
    0.0000000000000000E+00   -0.4769284392886393E-18    0.0000000000000000E+00
    0.2500000000000000E+01    0.0000000000000000E+00   -0.2500000000000000E+01
    0.0000000000000000E+00   -0.4769284392886393E-18    0.0000000000000000E+00
    0.1250000000000000E+01    0.0000000000000000E+00   -0.2500000000000000E+01
    0.0000000000000000E+00   -0.4769284392886393E-18    0.0000000000000000E+00
   -0.4769284392886393E-18    0.0000000000000000E+00   -0.2500000000000000E+01
    0.0000000000000000E+00   -0.4769284392886393E-18    0.0000000000000000E+00
   -0.4769284392886393E-18    0.0000000000000000E+00   -0.1250000000000000E+01
    0.0000000000000000E+00   -0.4769284392886393E-18    0.0000000000000000E+00
   -0.4769284392886393E-18    0.0000000000000000E+00   -0.4769284392886393E-18
    0.0000000000000000E+00   -0.4769284392886393E-18    0.0000000000000000E+00
   -0.4769284392886393E-18    0.0000000000000000E+00    0.1250000000000000E+01
    0.0000000000000000E+00   -0.4769284392886393E-18    0.0000000000000000E+00
    0.9058375365086910E+00    0.0000000000000000E+00    0.1578994732800803E+01
    0.0000000000000000E+00   -0.4769284392886393E-18    0.0000000000000000E+00
    0.3982050490726493E+01    0.0000000000000000E+00   -0.1583989954232354E+01
    0.0000000000000000E+00   -0.4769284392886393E-18    0.0000000000000000E+00
    0.4033849428301197E+01    0.0000000000000000E+00    0.1453322699199022E+01
    0.0000000000000000E+00   -0.4769284392886393E-18    0.0000000000000000E+00
    0.1040505887381675E+01    0.0000000000000000E+00   -0.1479596339503735E+01
    0.0000000000000000E+00   -0.4769284392886393E-18    0.0000000000000000E+00
    0.1099454400140349E+01    0.0000000000000000E+00   -0.3227322616384110E+00
    0.0000000000000000E+00   -0.4769284392886393E-18    0.0000000000000000E+00
    0.7354504170366591E+00    0.0000000000000000E+00    0.6593508822075582E+00
    0.0000000000000000E+00   -0.4769284392886393E-18    0.0000000000000000E+00
    0.1622302608453282E+01    0.0000000000000000E+00    0.8256214013940779E+00
    0.0000000000000000E+00   -0.4769284392886393E-18    0.0000000000000000E+00
    0.2145871574390382E+01    0.0000000000000000E+00   -0.1650070333782557E+01
    0.0000000000000000E+00   -0.4769284392886393E-18    0.0000000000000000E+00
    0.4086422318222992E+01    0.0000000000000000E+00   -0.4612828702537229E+00
    0.0000000000000000E+00   -0.4769284392886393E-18    0.0000000000000000E+00
    0.2979540174134984E+01    0.0000000000000000E+00   -0.8579242121530853E+00
    0.0000000000000000E+00   -0.4769284392886393E-18    0.0000000000000000E+00
    0.3045064261640043E+01    0.0000000000000000E+00   -0.1836846154397680E+01
    0.0000000000000000E+00   -0.4769284392886393E-18    0.0000000000000000E+00
    0.3428197553792836E+01    0.0000000000000000E+00    0.3508002863614053E+00
    0.0000000000000000E+00   -0.4769284392886393E-18    0.0000000000000000E+00
    0.4309693860063405E+01    0.0000000000000000E+00    0.5185680230613409E+00
    0.0000000000000000E+00   -0.4769284392886393E-18    0.0000000000000000E+00
    0.1827272193562204E+01    0.0000000000000000E+00    0.1738996113203182E+01
    0.0000000000000000E+00   -0.4769284392886393E-18    0.0000000000000000E+00
    0.2808563282768077E+01    0.0000000000000000E+00    0.1325493893339706E+01
    0.0000000000000000E+00   -0.4769284392886393E-18    0.0000000000000000E+00
    0.1895995683864404E+01    0.0000000000000000E+00   -0.8731419609589618E+00
    0.0000000000000000E+00   -0.4769284392886393E-18    0.0000000000000000E+00
    0.2273179336307740E+01    0.0000000000000000E+00    0.4906150219227333E-01
    0.0000000000000000E+00   -0.4769284392886393E-18    0.0000000000000000E+00
    0.5000000000000000E+01    0.0000000000000000E+00    0.2500000000000000E+01
    0.0000000000000000E+00    0.1250000000000000E+01    0.0000000000000000E+00
    0.5000000000000000E+01    0.0000000000000000E+00    0.2500000000000000E+01
    0.0000000000000000E+00    0.2500000000000000E+01    0.0000000000000000E+00
    0.5000000000000000E+01    0.0000000000000000E+00    0.2500000000000000E+01
    0.0000000000000000E+00    0.3750000000000000E+01    0.0000000000000000E+00
    0.5000000000000000E+01    0.0000000000000000E+00    0.2500000000000000E+01
    0.0000000000000000E+00    0.5000000000000000E+01    0.0000000000000000E+00
    0.3750000000000000E+01    0.0000000000000000E+00    0.2500000000000000E+01
    0.0000000000000000E+00    0.5000000000000000E+01    0.0000000000000000E+00
    0.2500000000000000E+01    0.0000000000000000E+00    0.2500000000000000E+01
    0.0000000000000000E+00    0.5000000000000000E+01    0.0000000000000000E+00
    0.1250000000000000E+01    0.0000000000000000E+00    0.2500000000000000E+01
    0.0000000000000000E+00    0.5000000000000000E+01    0.0000000000000000E+00
   -0.4769284392886393E-18    0.0000000000000000E+00    0.2500000000000000E+01
    0.0000000000000000E+00    0.5000000000000000E+01    0.0000000000000000E+00
   -0.4769284392886393E-18    0.0000000000000000E+00    0.2500000000000000E+01
    0.0000000000000000E+00    0.3750000000000000E+01    0.0000000000000000E+00
   -0.4769284392886393E-18    0.0000000000000000E+00    0.2500000000000000E+01
    0.0000000000000000E+00    0.2500000000000000E+01    0.0000000000000000E+00
   -0.4769284392886393E-18    0.0000000000000000E+00    0.2500000000000000E+01
    0.0000000000000000E+00    0.1250000000000000E+01    0.0000000000000000E+00
    0.9631080833812172E+00    0.0000000000000000E+00    0.2500000000000000E+01
    0.0000000000000000E+00    0.9613285771248219E+00    0.0000000000000000E+00
    0.3981732467264904E+01    0.0000000000000000E+00    0.2500000000000000E+01
    0.0000000000000000E+00    0.4069753913607991E+01    0.0000000000000000E+00
    0.4035525118777670E+01    0.0000000000000000E+00    0.2500000000000000E+01
    0.0000000000000000E+00    0.1012015867579395E+01    0.0000000000000000E+00
    0.9641717640894248E+00    0.0000000000000000E+00    0.2500000000000000E+01
    0.0000000000000000E+00    0.3972455192261839E+01    0.0000000000000000E+00
    0.1547743040396780E+01    0.0000000000000000E+00    0.2500000000000000E+01
    0.0000000000000000E+00    0.2928177746738678E+01    0.0000000000000000E+00
    0.6985170616192014E+00    0.0000000000000000E+00    0.2500000000000000E+01
    0.0000000000000000E+00    0.3068281976055466E+01    0.0000000000000000E+00
    0.8931277594515110E+00    0.0000000000000000E+00    0.2500000000000000E+01
    0.0000000000000000E+00    0.2052465503257726E+01    0.0000000000000000E+00
    0.2183293750162785E+01    0.0000000000000000E+00    0.2500000000000000E+01
    0.0000000000000000E+00    0.3959073795658649E+01    0.0000000000000000E+00
    0.3855333506014705E+01    0.0000000000000000E+00    0.2500000000000000E+01
    0.0000000000000000E+00    0.2931218481500625E+01    0.0000000000000000E+00
    0.3152495579421047E+01    0.0000000000000000E+00    0.2500000000000000E+01
    0.0000000000000000E+00    0.3635850502723324E+01    0.0000000000000000E+00
    0.3103247580566054E+01    0.0000000000000000E+00    0.2500000000000000E+01
    0.0000000000000000E+00    0.4331682712472464E+01    0.0000000000000000E+00
    0.3266837581688852E+01    0.0000000000000000E+00    0.2500000000000000E+01
    0.0000000000000000E+00    0.1886092433583972E+01    0.0000000000000000E+00
    0.4231539241296245E+01    0.0000000000000000E+00    0.2500000000000000E+01
    0.0000000000000000E+00    0.1915865356532799E+01    0.0000000000000000E+00
    0.1909741006522088E+01    0.0000000000000000E+00    0.2500000000000000E+01
    0.0000000000000000E+00    0.7170024419130505E+00    0.0000000000000000E+00
    0.2880784107213163E+01    0.0000000000000000E+00    0.2500000000000000E+01
    0.0000000000000000E+00    0.9046598906449592E+00    0.0000000000000000E+00
    0.2014316024535771E+01    0.0000000000000000E+00    0.2500000000000000E+01
    0.0000000000000000E+00    0.1762464314805728E+01    0.0000000000000000E+00
    0.2670003247036656E+01    0.0000000000000000E+00    0.2500000000000000E+01
    0.0000000000000000E+00    0.2850479545835163E+01    0.0000000000000000E+00
    0.5000000000000000E+01    0.0000000000000000E+00    0.1250000000000000E+01
    0.0000000000000000E+00    0.5000000000000000E+01    0.0000000000000000E+00
    0.5000000000000000E+01    0.0000000000000000E+00   -0.4769284392886393E-18
[...]
POINT_DATA 213
SCALARS rho double 1
LOOKUP_TABLE default
   0.1344271208743156E+01
  -0.4945907517970946E-08
   0.9569753658251819E+00
  -0.6674648550335320E-09
   0.9462958492651482E+00
  -0.1434363093859539E-08
   0.9418607970248423E+00
  -0.2613504919170484E-08
   0.8437304692397504E+00
  -0.2281924658469317E-08
   0.7737999653814921E+00
  -0.2223932187844229E-08
   0.7629813032725986E+00
  -0.2395041397048542E-08
   0.7664566247454799E+00
  -0.4101375461434045E-08
   0.8307870632238621E+00
  -0.4496486813540502E-08
   0.9352971456285734E+00
  -0.1263561452057991E-08
   0.9342214703379684E+00
  -0.1310387261783633E-08
   0.9617188898713169E+00
  -0.1922804754442801E-08
   0.1449457028262346E+01
  -0.2864818461619679E-08
   0.1494090139718450E+01
  -0.6306190343325710E-08
   0.1644666868332952E+01
  -0.7544996374462598E-08
   0.1425831830488488E+01
  -0.5418675551965424E-08
   0.1009013943392494E+01
  -0.1239259705718305E-08
   0.9508806827993802E+00
  -0.1018703498410820E-08
   0.9436506568398924E+00
  -0.8878683197806153E-09
   0.9581556332476562E+00
   0.1230724303085143E-09
   0.9415847365055363E+00
   0.3547924445268936E-10
   0.1036376813577931E+01
  -0.9193100683414390E-09
   0.9256155195308267E+00
  -0.2362307085740114E-09
   0.9322343768824538E+00
  -0.1799961250334279E-08
   0.9537476564352411E+00
  -0.2840278133886240E-08
   0.9518766725709567E+00
  -0.1713220785494232E-08
   0.9348579474685763E+00
  -0.2284230209824641E-08
   0.9564026853225701E+00
  -0.1202142273944202E-08
   0.9376096248982135E+00
  -0.1480833622955617E-08
   0.9300655883258411E+00
  -0.1463752119750238E-08
   0.9445152941574798E+00
  -0.5110720693081355E-09
   0.8863500475601859E+00
   0.3609038010803237E-09
   0.9423576213016999E+00
  -0.1843456648012498E-08
   0.9635049396699040E+00
  -0.6068891956646768E-09
   0.1008297547025386E+01
  -0.6250629837779795E-10
   0.1006736524546100E+01
   0.4553795028167356E-11
   0.1001962597801218E+01
  -0.6373407570636961E-10
   0.1003217542078204E+01
  -0.1067819923578221E-09
   0.1004131523326936E+01
  -0.1240554001962293E-09
   0.1005228017122322E+01
  -0.1119341466609340E-09
   0.1004260078681663E+01
  -0.8547757764959410E-10
   0.1008307819760822E+01
  -0.1378640626787991E-09
   0.1023892679907486E+01
  -0.2877116942581353E-09
   0.1063553379465346E+01
  -0.2129608815690416E-09
   0.1019182199002392E+01
  -0.5964147028962510E-09
   0.1001781828223952E+01
  -0.6425478936869641E-10
   0.9643370754698447E+00
  -0.8132511806968225E-09
   0.1005283223763631E+01
  -0.1275133691699977E-09
   0.1000720594839597E+01
  -0.8505781885888568E-10
   0.1008741628509914E+01
  -0.1666382576511646E-09
   0.1008077615448713E+01
  -0.1016346294455604E-09
   0.1002349081070991E+01
  -0.1142621374763815E-09
   0.9979976478334980E+00
  -0.3035667197990222E-10
   0.1000582805805210E+01
  -0.6363795850208466E-10
   0.1001619700097878E+01
  -0.1048550521962269E-09
   0.9826888157005504E+00
  -0.2286203282204320E-09
   0.9842444304112823E+00
  -0.2577752320394709E-09
   0.9833309163150764E+00
  -0.7100435028451892E-09
   0.9788228467488826E+00
  -0.7740738033626648E-09
   0.9902631161621152E+00
  -0.1623120160847579E-09
   0.9934556334018072E+00
  -0.4978846923268054E-10
   0.1002008567473648E+01
  -0.5889415749002135E-10
   0.1002131937673253E+01
  -0.5622573267825149E-10
   0.1002273868456555E+01
  -0.5729673910175657E-10
   0.1001792588461461E+01
  -0.6531605615618451E-10
   0.1009780380579418E+01
  -0.1518888824025073E-10
   0.1006428770860000E+01
   0.9503505458803415E-11
   0.9558785334444693E+00
  -0.3814522594989454E-09
   0.9249414604341070E+00
  -0.7810268291738450E-09
   0.1007037222691422E+01
  -0.1607753902905311E-10
   0.1004506706961230E+01
  -0.1834998208820615E-10
   0.9143642040432433E+00
  -0.6069335145094600E-09
   0.9089674250232129E+00
  -0.6701413921794608E-09
   0.8751689923707652E+00
  -0.8701356093925763E-09
   0.9767263162276515E+00
  -0.2498410754125749E-09
   0.1000451720931536E+01
  -0.1365917839046984E-10
   0.1005832110593833E+01
  -0.1122551003240001E-10
   0.1012882859489588E+01
   0.5747632721601884E-10
   0.1011619456396881E+01
   0.2238010074915253E-10
   0.1010439651424229E+01
   0.4404818467250030E-10
   0.1005469850623962E+01
  -0.2067194939101773E-10
   0.9907607348799612E+00
  -0.2640675243204869E-09
   0.1005139244633201E+01
  -0.4881714213149476E-11
   0.9860561064223060E+00
  -0.3375957138054845E-10
   0.1005608731304574E+01
   0.2560906989628658E-10
   0.1004247665136318E+01
  -0.8670874000738690E-10
   0.1002888227907121E+01
  -0.7812598679827092E-10
   0.1003345233720857E+01
  -0.8056313183320500E-10
   0.1003992934909403E+01
  -0.8194748284756130E-10
   0.1005101252207391E+01
  -0.1154746559048018E-09
   0.1003211245594889E+01
  -0.1160611550890521E-09
   0.1002661000016799E+01
  -0.9338895781693990E-10
   0.1002582352603753E+01
  -0.1040553069414581E-09
   0.1004060478935643E+01
  -0.9476569339783806E-10
   0.1004319750397030E+01
  -0.9837520875886264E-10
   0.1001639798528716E+01
  -0.1028141291433282E-09
   0.1002269923934981E+01
  -0.9777612005494565E-10
   0.1002539699031923E+01
  -0.9427445198717381E-10
   0.1003467879762533E+01
  -0.1174677855396468E-09
   0.1003371755134113E+01
  -0.1100754876829831E-09
   0.1003231840627069E+01
  -0.8602516049979441E-10
   0.1004423356068628E+01
  -0.1174216598741659E-09
   0.1004312869666044E+01
  -0.1189942213759645E-09
   0.1003659577420928E+01
  -0.8745083629158149E-10
   0.1003722447189293E+01
  -0.1118931995682150E-09
   0.1004328701856378E+01
  -0.1184895524243904E-09
   0.1004464189868483E+01
  -0.1294137808107870E-09
   0.1003622266484556E+01
  -0.1134146847511251E-09
   0.1064422805944828E+01
  -0.2356598735228289E-09
   0.1028473136900193E+01
  -0.2664571557185352E-09
   0.1009586336869955E+01
  -0.1429071256578243E-09
   0.1006638479373200E+01
  -0.1301432347634621E-09
   0.1163935047973612E+01
  -0.1263736717432945E-08
   0.1086087624512973E+01
  -0.2297895967249501E-09
   0.1007893018435076E+01
  -0.1394717217893791E-09
   0.1007245102800848E+01
  -0.1364636134823743E-09
   0.1006797771305055E+01
  -0.1227020784366710E-09
   0.1013017832751432E+01
  -0.2489686187152979E-09
   0.1019384062990983E+01
  -0.2212983609994154E-09
   0.1235203388345515E+01
  -0.2239029118848490E-08
   0.1032529210204954E+01
  -0.1556943581891629E-09
   0.1046680598261594E+01
  -0.3620522227494023E-09
   0.1200953383362381E+01
  -0.1791220475498654E-08
   0.1014718475915084E+01
  -0.1936924346531819E-09
   0.1032290602161212E+01
  -0.3309432048080639E-09
   0.1028094683016190E+01
  -0.3908865486960091E-09
   0.1014628090073961E+01
  -0.2332568434704727E-09
   0.1029216450567785E+01
  -0.3394259690602831E-09
   0.1001995313676447E+01
  -0.7252401657420928E-10
   0.9606935935665721E+00
  -0.4541129103135603E-09
   0.1006852001752342E+01
  -0.1285855129201915E-09
   0.1001326718815617E+01
  -0.1103416050014639E-09
   0.1010821283857063E+01
  -0.1581085810949851E-09
   0.1012245682367289E+01
  -0.1473949703595813E-09
   0.1000945521310781E+01
  -0.1072076345049521E-09
   0.9979118584834785E+00
  -0.3076374567210667E-10
   0.9980626118553805E+00
  -0.8061745253545613E-10
   0.1001183410970716E+01
  -0.9581468677664660E-10
   0.9841357044296761E+00
  -0.1277528313250005E-09
   0.9814876453860871E+00
  -0.1155858053396115E-09
   0.9648480956372621E+00
  -0.2842148834031599E-09
   0.9680872737303204E+00
  -0.6583569063795563E-09
   0.9914121517588466E+00
  -0.1104116201974652E-09
   0.9910855269552070E+00
  -0.6838471530563383E-10
   0.9925540310557751E+00
  -0.4151815414164048E-10
   0.1001726950842995E+01
  -0.8967322313186168E-10
   0.9993404000609888E+00
  -0.3815305087006071E-10
   0.9941406545737029E+00
  -0.4164692599740629E-10
   0.1007038267324865E+01
  -0.1938749003887790E-10
   0.1022539075333251E+01
  -0.1164610840328580E-09
   0.1001087799077650E+01
  -0.1962230391799200E-09
   0.1008797957912882E+01
  -0.1488033914819968E-09
   0.1004773313297474E+01
  -0.1277480113294508E-09
   0.1009049752747408E+01
  -0.1583293930590081E-09
   0.9966466436349961E+00
  -0.7383722552324646E-10
   0.1004988210884523E+01
  -0.7880892014562300E-09
   0.1003325054138226E+01
  -0.1132023039508810E-09
   0.9949426557857308E+00
  -0.5233166523292968E-10
   0.9832678209903014E+00
  -0.1101890326569358E-09
   0.9943951204066469E+00
  -0.4375996735152330E-10
   0.9973415609540753E+00
  -0.4124928683853026E-10
   0.9932183039299605E+00
  -0.4522438220091455E-10
   0.1001305687267342E+01
  -0.9710921749908998E-10
   0.1003001012649299E+01
  -0.1078342782538752E-09
   0.1002183019128480E+01
  -0.9248599540880687E-10
   0.9947076969751588E+00
  -0.7614491569271273E-11
   0.9937961218915174E+00
  -0.5721634304936796E-10
   0.1004867357112860E+01
  -0.1292833378420664E-09
   0.1020077193971886E+01
  -0.1587044075306752E-09
   0.1005364189650243E+01
  -0.1344081234794376E-09
   0.9816994966178645E+00
  -0.9454385540255515E-10
   0.1004972507256654E+01
  -0.1182818299656110E-09
   0.1012381722037847E+01
  -0.1484691680691536E-09
   0.9871421276739217E+00
  -0.5139108403999700E-09
   0.9551509554450279E+00
  -0.1633574845417226E-09
   0.9865071477366548E+00
  -0.1061074125199290E-09
   0.9864529268572602E+00
  -0.1197319778248569E-09
   0.9918942187421208E+00
  -0.6623176823162037E-09
   0.9933504726848584E+00
  -0.1641182641618556E-09
   0.9954401745756121E+00
  -0.5538583282228841E-09
   0.1037336480991592E+01
  -0.2630848370164370E-09
   0.1033536385075519E+01
  -0.5426868889229674E-09
   0.1001443721315982E+01
  -0.5966875282214866E-10
   0.1001929835001909E+01
  -0.1005747370679805E-09
   0.9912472975837853E+00
  -0.2124130891542029E-10
   0.9910915033075599E+00
  -0.5388680192195465E-10
   0.9648483303146029E+00
  -0.2783842701105000E-09
   0.9933277824519054E+00
  -0.3790230682656684E-10
   0.1006058688374856E+01
  -0.1124110804144011E-10
   0.1001953965961506E+01
  -0.2309561352315112E-10
   0.9908730288906503E+00
  -0.7836273318895859E-10
   0.9740944811345102E+00
  -0.3970864430968063E-09
   0.9418804200712978E+00
  -0.6823645085094048E-09
   0.9819375028786547E+00
  -0.3940094784602278E-09
   0.9794798828403501E+00
  -0.7675217197275615E-10
   0.9704169889964763E+00
  -0.2106439119782125E-09
   0.9720473138963188E+00
  -0.3885359446813438E-09
   0.9557349865600554E+00
  -0.2755796271363902E-09
   0.9496732352109811E+00
  -0.4451299582877028E-09
   0.9528674744137919E+00
  -0.8870670923241028E-09
   0.1002658943400377E+01
  -0.1135650199931555E-09
   0.1002470941125969E+01
  -0.1103557427044044E-09
   0.1000509066320843E+01
  -0.7157174943714449E-10
   0.1001677410833050E+01
  -0.1443140093188571E-10
   0.9607925489756477E+00
  -0.6038587202905943E-09
   0.9491634586198587E+00
  -0.8640887341032857E-09
   0.9584505340032721E+00
  -0.8197399737155616E-09
   0.1001120983825322E+01
  -0.9861728778468962E-10
   0.1000495893937605E+01
  -0.8285227367485894E-10
   0.1001156198482140E+01
  -0.3634740784827509E-10
   0.9807373266177709E+00
  -0.9825536791588732E-10
   0.9805995713467743E+00
  -0.1839579705101219E-09
   0.9628478419959685E+00
  -0.6308550637398646E-09
SCALARS u double 1
LOOKUP_TABLE default
   0.0000000000000000E+00
   0.0000000000000000E+00
   0.0000000000000000E+00
   0.0000000000000000E+00
   0.0000000000000000E+00
   0.0000000000000000E+00
   0.0000000000000000E+00
   0.0000000000000000E+00
   0.0000000000000000E+00
   0.0000000000000000E+00
   0.0000000000000000E+00
   0.0000000000000000E+00
   0.0000000000000000E+00
   0.0000000000000000E+00
   0.0000000000000000E+00
   0.0000000000000000E+00
   0.0000000000000000E+00
   0.0000000000000000E+00
   0.0000000000000000E+00
   0.0000000000000000E+00
   0.0000000000000000E+00
   0.0000000000000000E+00
   0.0000000000000000E+00
   0.0000000000000000E+00
   0.0000000000000000E+00
   0.0000000000000000E+00
   0.0000000000000000E+00
   0.0000000000000000E+00
   0.0000000000000000E+00
   0.0000000000000000E+00
   0.0000000000000000E+00
   0.0000000000000000E+00
   0.0000000000000000E+00
   0.0000000000000000E+00
   0.0000000000000000E+00
   0.0000000000000000E+00
   0.0000000000000000E+00
   0.0000000000000000E+00
   0.0000000000000000E+00
   0.0000000000000000E+00
   0.0000000000000000E+00
   0.0000000000000000E+00
   0.0000000000000000E+00
   0.0000000000000000E+00
   0.0000000000000000E+00
   0.0000000000000000E+00
   0.0000000000000000E+00
   0.0000000000000000E+00
   0.0000000000000000E+00
   0.0000000000000000E+00
   0.0000000000000000E+00
   0.0000000000000000E+00
   0.0000000000000000E+00
   0.0000000000000000E+00
   0.0000000000000000E+00
   0.0000000000000000E+00
   0.0000000000000000E+00
   0.0000000000000000E+00
   0.0000000000000000E+00
   0.0000000000000000E+00
   0.0000000000000000E+00
   0.0000000000000000E+00
   0.0000000000000000E+00
   0.0000000000000000E+00
   0.0000000000000000E+00
   0.0000000000000000E+00
   0.4950110135177471E+00
   0.4761396977283130E-09
   0.5338225452507867E+00
  -0.1167599145107898E-09
   0.5183272202604152E+00
  -0.1479825966183105E-09
   0.4930668744961668E+00
  -0.6185179953455319E-11
   0.4847615483190379E+00
   0.1239557724701543E-09
   0.4867708650422333E+00
   0.1703421474351825E-09
   0.4890781397619779E+00
   0.1637817048066443E-09
   0.4957852386269467E+00
   0.9455230492640241E-10
   0.4898308252046914E+00
   0.1502821403883382E-09
   0.4717392714041080E+00
   0.2814151934202092E-09
   0.4454820090654930E+00
   0.2713785698153801E-09
   0.4833909694084758E+00
  -0.3521118648939325E-09
   0.5098448339989567E+00
  -0.4551348988095478E-11
   0.4390689329443591E+00
   0.4426337481950319E-09
   0.4949406631077453E+00
   0.1240629474081675E-09
   0.5225336460441187E+00
   0.2274932405708346E-10
   0.4962460559077466E+00
   0.1247248504646725E-09
   0.5226160334744860E+00
   0.4730466520612573E-10
   0.5038889833402029E+00
   0.8730399947864946E-10
   0.5646883774180114E+00
  -0.8407611503737797E-10
   0.5247516906831283E+00
  -0.5108925075229655E-11
   0.4991503247121019E+00
   0.8390370702428909E-10
   0.5730562759439215E+00
  -0.7815441361667356E-11
   0.5696032647877950E+00
   0.9336075636974319E-10
   0.3737941480915273E+00
  -0.1970828001858290E-09
   0.3998649565404120E+00
   0.1226442782361353E-09
   0.5599333490371375E+00
  -0.1608791671164486E-09
   0.5564591911373039E+00
  -0.5804757045868854E-10
   0.4942646007925782E+00
  -0.1518728915069751E-10
   0.4948669616837155E+00
  -0.2225025605763467E-10
   0.4925722795776320E+00
  -0.2502188062173285E-10
   0.4914259436616055E+00
  -0.5668338826290057E-11
   0.5162367828718887E+00
  -0.1349693980167899E-09
   0.5361799214811676E+00
  -0.1403073870963746E-09
   0.4947403930445530E+00
   0.3762602944187809E-09
   0.4524087677301217E+00
   0.6344761073499969E-09
   0.5128784557796020E+00
  -0.1175154455064090E-09
   0.5117944343724374E+00
  -0.1087621602335770E-09
   0.4783506580390660E+00
   0.6132504486370131E-09
   0.4931686301359961E+00
   0.6607565775196906E-09
   0.4603167332212267E+00
   0.8128764476156639E-09
   0.5244892851575597E+00
   0.2120545013393743E-09
   0.5297435782266392E+00
  -0.6623146176402149E-10
   0.5129577279143049E+00
  -0.1229597201266521E-09
   0.5328357023602480E+00
  -0.2012410277406343E-09
   0.5308945474151476E+00
  -0.1807257162150401E-09
   0.5309850998489845E+00
  -0.1955750791610259E-09
   0.5063656845531450E+00
  -0.9549180967049742E-10
   0.5282454138160328E+00
   0.1088825967179577E-09
   0.5410314682578554E+00
  -0.1613172760153556E-09
   0.5361259217070973E+00
   0.6858773193227893E-10
   0.5374106357526827E+00
  -0.1171048077908899E-09
   0.4965368166410131E+00
   0.8308449140062746E-10
   0.4975343342388957E+00
   0.7575577123212751E-10
   0.4963843263529137E+00
   0.8647370251202293E-10
   0.4955221093881121E+00
   0.9328543873579142E-10
   0.4904588019988533E+00
   0.1659196356709256E-09
   0.4903057945595793E+00
   0.1654862500505226E-09
   0.4862158701849240E+00
   0.1164485623147397E-09
   0.4854072199922340E+00
   0.1009720856859888E-09
   0.4932172234146762E+00
   0.1375624649470751E-09
   0.4909844512575043E+00
   0.1476841053480688E-09
   0.4832164990637515E+00
   0.9775878293262548E-10
   0.4872625898320950E+00
   0.8315142233333202E-10
   0.4880148002517456E+00
   0.7074764901913416E-10
   0.4872477241493363E+00
   0.1441933440817825E-09
   0.4882690327088136E+00
   0.1607166879135550E-09
   0.4952602389710318E+00
   0.1180064348494939E-09
   0.4900976087306922E+00
   0.1770159663806758E-09
   0.4904008965709804E+00
   0.1743497437582305E-09
   0.4944239625493151E+00
   0.1305638450074258E-09
   0.4868046650618164E+00
   0.1499022193737460E-09
   0.4892409161702330E+00
   0.1681015287830140E-09
   0.4881405474573043E+00
   0.1770460771659232E-09
   0.4878464082058356E+00
   0.1539725170934406E-09
   0.4446864134236408E+00
   0.2069711511402876E-09
   0.4700033910255236E+00
   0.2573782640933032E-09
   0.4892002185200638E+00
   0.1464766694248548E-09
   0.4885244054742424E+00
   0.1524266672262402E-09
   0.4506542225509006E+00
   0.7645652291484967E-09
   0.4687377378977134E+00
   0.2420371858299985E-09
   0.4877011039949761E+00
   0.1532571491561195E-09
   0.4868355579664286E+00
   0.1610292638364712E-09
   0.4908993811247631E+00
   0.1295301786650857E-09
   0.4793557143009932E+00
   0.2387716718807192E-09
   0.4658078892434991E+00
   0.2396690184441711E-09
   0.3792728855110423E+00
   0.1223977840184848E-08
   0.4901597505965163E+00
   0.8061621924308014E-10
   0.4486692405105643E+00
   0.3151361583001935E-09
   0.4436142181969396E+00
   0.9533449234501649E-09
   0.4845151868371567E+00
   0.1984832917815175E-09
   0.4621829420331315E+00
   0.3047020579184871E-09
   0.4665756929957874E+00
   0.2603684735196288E-09
   0.4748147314909842E+00
   0.2435924631339050E-09
   0.4894497516493722E+00
  -0.1910625129041975E-09
   0.5085609645317739E+00
  -0.1850888077708892E-10
   0.4315071842695238E+00
   0.6815718312603791E-09
   0.4927356290547725E+00
   0.1289594792579886E-09
   0.5318295952003901E+00
  -0.3573714576598961E-10
   0.4913405852453538E+00
   0.1292099477444250E-09
   0.5207023235059974E+00
   0.1714193552820206E-10
   0.5060988232063003E+00
   0.6714801504496114E-10
   0.5688805978582727E+00
  -0.8457364576171565E-10
   0.5274018789187447E+00
  -0.2811035425104480E-10
   0.5015077354570399E+00
   0.6859672691241577E-10
   0.5821787292985576E+00
   0.1160051387950872E-09
   0.5689608799103976E+00
   0.1781033297218228E-09
   0.3406396586589408E+00
   0.1217221584849810E-09
   0.3789867443690590E+00
   0.3279200642441518E-09
   0.5751961259675453E+00
  -0.8774519179746445E-10
   0.5666490233945202E+00
  -0.8432157886726512E-10
   0.5704107661264178E+00
  -0.5172717440879966E-10
   0.5291061772628959E+00
  -0.1451070762560833E-10
   0.5451907103478235E+00
  -0.1722246979616887E-10
   0.5718807983442171E+00
  -0.5478018355743943E-10
   0.5389084365164433E+00
   0.4828174326740527E-10
   0.5475510981847471E+00
   0.7790221717333340E-10
   0.5821718717412964E+00
  -0.8299808209091240E-10
   0.4925606393089976E+00
   0.1058678092209512E-09
   0.5042161174148702E+00
   0.8630921365963490E-10
   0.4961740394242280E+00
   0.1236761179905942E-09
   0.5565212879502938E+00
  -0.1241812678118937E-09
   0.4758848616802870E+00
  -0.5661315853262913E-09
   0.4950282845236783E+00
   0.1249122557582661E-09
   0.5498526890321060E+00
  -0.3273341837081814E-10
   0.5891201066101298E+00
   0.5188378531164484E-10
   0.5841957167395764E+00
  -0.6538502562810542E-10
   0.5469100835822894E+00
  -0.4473073962213460E-10
   0.5805414046671341E+00
  -0.3444232334929444E-10
   0.5106265300341561E+00
   0.5078040158847008E-10
   0.5030213709674273E+00
   0.9019633953067528E-10
   0.5033662723349732E+00
   0.5469022884041832E-10
   0.5676438118229857E+00
  -0.9022769507741223E-10
   0.5563948696706706E+00
  -0.4972931268527516E-10
   0.4947260784749216E+00
   0.1145724219704494E-09
   0.5505248453785937E+00
  -0.7784235820447859E-10
   0.5510860370055288E+00