title="tecplot geometry and solution file"
variables = x y z rho u v w p mach temperature
zone t="boundary 1 bc-1", solutiontime= 0.4000000E+02, strandid=1001, i=32, j=46, f=feblock
 -0.547473805950E-02 -0.193831388865E-18 -0.567611393137E-02 -0.193831388865E-18 -0.193831388865E-18 -0.193831388865E-18 -0.525163715706E-02
 -0.425779957523E-02 -0.193831388865E-18 -0.193831388865E-18 -0.193831388865E-18 -0.193831388865E-18 -0.193831388865E-18 -0.193831388865E-18
 -0.193831388865E-18 -0.193831388865E-18 -0.338397811579E-02 -0.193831388865E-18 -0.193831388865E-18 -0.193831388865E-18 -0.193831388865E-18
 -0.193831388865E-18 -0.193831388865E-18 -0.193831388865E-18 -0.193831388865E-18 -0.193831388865E-18 -0.193831388865E-18 -0.193831388865E-18
 -0.193831388865E-18 -0.193831388865E-18 -0.193831388865E-18 -0.193831388865E-18
  0.250494199996E+01  0.250494199996E+01  0.127822171177E+01  0.146289271009E+01  0.157686156160E+01  0.308372018325E+00  0.261949834557E-01
 -0.122573470438E+01 -0.600232012419E+00  0.250494199996E+01  0.477386199275E+00  0.742988685424E+00 -0.739814786992E+00  0.177790177481E+01
  0.155830813274E+01  0.250494199996E+01 -0.249658902117E+01 -0.154800130438E+01 -0.487811078581E+00  0.250494199996E+01  0.627766083140E+00
 -0.345533899378E+00 -0.178862290564E+01 -0.158811787973E+01  0.125000000000E+01 -0.249658902117E+01 -0.144524380962E+01 -0.193831388865E-18
 -0.125000000000E+01 -0.249658902117E+01 -0.249658902117E+01 -0.249658902117E+01
  0.805555099614E-04  0.125000000000E+01  0.823774297186E-04  0.103724302461E+01  0.219251206392E+01  0.922061490191E+00  0.103961354043E-03
  0.342005475211E-04  0.715990576545E+00  0.250000000000E+01  0.202479342020E+01  0.324151231464E+01  0.175434191980E+01  0.310152362409E+01
  0.404200324774E+01  0.375000000000E+01  0.810770748851E-04  0.930412228790E+00  0.299062775774E+01  0.500000000000E+01  0.429310310915E+01
  0.409252726285E+01  0.187029682677E+01  0.284428995242E+01  0.500000000000E+01  0.125000000000E+01  0.394624082883E+01  0.500000000000E+01
  0.500000000000E+01  0.250000000000E+01  0.375000000000E+01  0.500000000000E+01
  0.121959991389E+01  0.105831354890E+01  0.128671969022E+01  0.108337051895E+01  0.102354614175E+01  0.116941716280E+01  0.145633807476E+01
  0.134804088218E+01  0.119311484660E+01  0.101662521918E+01  0.101712196271E+01  0.100667542814E+01  0.102800079519E+01  0.100987438242E+01
  0.100346383047E+01  0.100488609439E+01  0.130024673714E+01  0.114206737796E+01  0.100787501293E+01  0.100194476138E+01  0.100378960297E+01
  0.100390910239E+01  0.103478536980E+01  0.101224062914E+01  0.100190260439E+01  0.106018062589E+01  0.100437851558E+01  0.100077796443E+01
  0.100130067583E+01  0.102043484503E+01  0.100593736541E+01  0.100184293088E+01
  0.000000000000E+00  0.451834054248E+00  0.000000000000E+00  0.472912047066E+00  0.470158336929E+00  0.459504927602E+00  0.000000000000E+00
  0.000000000000E+00  0.401768535095E+00  0.478881794898E+00  0.474223509902E+00  0.485492995511E+00  0.492581104045E+00  0.489510448259E+00
  0.492201635701E+00  0.493575550923E+00  0.000000000000E+00  0.464516495524E+00  0.481634327568E+00  0.498235954263E+00  0.494015365236E+00
  0.490674198181E+00  0.458608943414E+00  0.473144563138E+00  0.498753325572E+00  0.451330907030E+00  0.491521101699E+00  0.499569341324E+00
  0.498567812953E+00  0.477380970321E+00  0.492957761492E+00  0.497856409689E+00
  0.000000000000E+00  0.000000000000E+00  0.000000000000E+00  0.156898794386E-01 -0.426045867146E-02  0.288060391164E-01  0.000000000000E+00
  0.000000000000E+00 -0.370127167864E-02  0.000000000000E+00  0.249852636571E-02 -0.528108231527E-02 -0.303266141987E-02 -0.172449653642E-03
 -0.109131653911E-02  0.000000000000E+00  0.000000000000E+00 -0.850284454896E-02  0.955100807219E-03  0.000000000000E+00 -0.167362170480E-02
 -0.105339738558E-02  0.212715177093E-02 -0.123597280214E-02  0.695878329787E-04  0.000000000000E+00  0.214871468053E-03 -0.176722393857E-03
  0.608287694595E-03  0.000000000000E+00  0.000000000000E+00  0.000000000000E+00
  0.000000000000E+00  0.388446297234E-01  0.000000000000E+00  0.103917053233E+00  0.224193191625E-01  0.135341973638E+00  0.000000000000E+00
  0.000000000000E+00  0.126992547808E+00  0.342255234486E-02  0.213553913160E-01 -0.708603724333E-02  0.636035296241E-01  0.292766236347E-02
 -0.792039934582E-03  0.244074079619E-03  0.000000000000E+00  0.115618463919E+00 -0.829814685493E-02  0.114480521212E-02 -0.749347274471E-03
 -0.442112245216E-02  0.223713965704E-01 -0.264556518462E-02  0.180779029222E-02  0.687953164974E-01 -0.177101195314E-02  0.155938287761E-02
  0.142679110077E-02  0.233069904602E-02 -0.110520954834E-02  0.211863506777E-02
  0.908102254326E+00  0.774899677143E+00  0.958078988094E+00  0.800622208032E+00  0.737949068228E+00  0.857914890319E+00  0.108437519033E+01
  0.100373815223E+01  0.887196041083E+00  0.730580342782E+00  0.733315355859E+00  0.720299332349E+00  0.748106701458E+00  0.724222062543E+00
  0.717576381720E+00  0.719224735596E+00  0.968151095886E+00  0.840784332786E+00  0.722225750663E+00  0.716319882467E+00  0.717948115872E+00
  0.717912570824E+00  0.749167987839E+00  0.726422692794E+00  0.716249843525E+00  0.782033720173E+00  0.718602107899E+00  0.715132538533E+00
  0.715579062990E+00  0.734165577705E+00  0.720297840502E+00  0.716213123267E+00
  0.000000000000E+00  0.447917898378E+00  0.000000000000E+00  0.476275937858E+00  0.468523766326E+00  0.473519700259E+00  0.000000000000E+00
  0.000000000000E+00  0.412988885725E+00  0.477443350245E+00  0.472504679554E+00  0.485153445111E+00  0.492070543178E+00  0.488543843252E+00
  0.491923373311E+00  0.493078180618E+00  0.000000000000E+00  0.471586683704E+00  0.480934101454E+00  0.498012885240E+00  0.493689905580E+00
  0.490409923764E+00  0.456073462704E+00  0.472047049991E+00  0.498545874069E+00  0.449257950194E+00  0.491117572709E+00  0.499470106439E+00
  0.498443300752E+00  0.475665761529E+00  0.492352555341E+00  0.497648499861E+00
  0.104242640687E+01  0.102508330270E+01  0.104242640687E+01  0.103461472473E+01  0.100936211215E+01  0.102707646565E+01  0.104242640687E+01
  0.104242640687E+01  0.104103512001E+01  0.100608607832E+01  0.100935928614E+01  0.100173207480E+01  0.101882156798E+01  0.100399703687E+01
  0.100113915809E+01  0.100201867202E+01  0.104242640687E+01  0.103067304839E+01  0.100321571421E+01  0.100090132121E+01  0.100133270881E+01
  0.100116394678E+01  0.101357751431E+01  0.100469368709E+01  0.100084556776E+01  0.103269875105E+01  0.100165717950E+01  0.100040727267E+01
  0.100050934986E+01  0.100724883494E+01  0.100246497583E+01  0.100085386807E+01
        12        19        11        11
        11         5        12        12
        10        14         5         5
        19        13        11        11
        19        24        13        13
        30        23        24        24
        19        12        22        22
        28        22        21        21
        11        13         6         6
         7         6         9         9
        15        12        14        14
        18        13        23        23
        15        25        21        21
        27        19        22        22
        18         8         9         9
        27        31        24        24
         4        11         6         6
         5        14        12        12
         4         2         5         5
        21        12        15        15
        14        16        15        15
        24        19        27        27
        22        29        27        27
        23        26        18        18
        17         8        18        18
         5        11         4         4
         6         3         4         4
        26        23        30        30
         5         2        10        10
        16        14        10        10
         3         6         7         7
        21        25        28        28
        29        22        28        28
         6        13         9         9
         2         4         1         1
        31        27        32        32
        25        15        20        20
        24        23        13        13
         8         7         9         9
        13        18         9         9
        31        30        24        24
        12        21        22        22
        29        32        27        27
         3         1         4         4
        26        17        18        18
        16        20        15        15
zone t="boundary 2 bc-2", solutiontime= 0.4000000E+02, strandid=1002, i=33, j=48, f=feblock
  0.500195254569E+01  0.375034811445E+01  0.249861145586E+01  0.288036674135E+01  0.124717525353E+01  0.190856697906E+01  0.326577190006E+01
  0.201394855912E+01 -0.338397811579E-02  0.962374243892E+00  0.500000000000E+01  0.403430189815E+01  0.423029563516E+01  0.500000000000E+01
  0.385439188840E+01  0.500000000000E+01  0.398133433219E+01  0.315200081383E+01  0.266958028789E+01  0.154798029748E+01  0.218327860401E+01
  0.893688440127E+00 -0.193831388865E-18  0.699009761219E+00  0.964460898511E+00  0.310303671661E+01 -0.193831388865E-18 -0.193831388865E-18
  0.125000000000E+01  0.500000000000E+01  0.375000000000E+01  0.250000000000E+01 -0.193831388865E-18
 -0.249658902117E+01 -0.249658902117E+01 -0.249658902117E+01 -0.249658902117E+01 -0.249658902117E+01 -0.249658902117E+01 -0.249658902117E+01
 -0.249658902117E+01 -0.249658902117E+01 -0.249658902117E+01 -0.249658902117E+01 -0.249658902117E+01 -0.249658902117E+01 -0.249658902117E+01
 -0.249658902117E+01 -0.249658902117E+01 -0.249658902117E+01 -0.249658902117E+01 -0.249658902117E+01 -0.249658902117E+01 -0.249658902117E+01
 -0.249658902117E+01 -0.249658902117E+01 -0.249658902117E+01 -0.249658902117E+01 -0.249658902117E+01 -0.249658902117E+01 -0.249658902117E+01
 -0.249658902117E+01 -0.249658902117E+01 -0.249658902117E+01 -0.249658902117E+01 -0.249658902117E+01
  0.108218466124E-03  0.145871002877E-03  0.100891403625E-03  0.901663364691E+00  0.110859770246E-03  0.714928312397E+00  0.188140647111E+01
  0.175892165294E+01  0.810770748851E-04  0.957504290555E+00  0.125000000000E+01  0.100596696999E+01  0.191313518634E+01  0.250000000000E+01
  0.292898096729E+01  0.375000000000E+01  0.406883369623E+01  0.363389290091E+01  0.284756861229E+01  0.292582308304E+01  0.395754055152E+01
  0.205027257041E+01  0.125000000000E+01  0.306703272778E+01  0.397155766783E+01  0.433068622257E+01  0.250000000000E+01  0.375000000000E+01
  0.500000000000E+01  0.500000000000E+01  0.500000000000E+01  0.500000000000E+01  0.500000000000E+01
  0.768735595842E+00  0.889523284929E+00  0.898746398285E+00  0.950542418077E+00  0.924960176342E+00  0.947969387029E+00  0.981017534449E+00
  0.987799007608E+00  0.130024673714E+01  0.101390435458E+01  0.944836367246E+00  0.944236806609E+00  0.978087756948E+00  0.100717420914E+01
  0.997784671764E+00  0.100978232734E+01  0.100012044674E+01  0.996167615351E+00  0.989919911267E+00  0.998867625260E+00  0.997941839922E+00
  0.100913681837E+01  0.106018062589E+01  0.100643337208E+01  0.100351221134E+01  0.998477812335E+00  0.102043484503E+01  0.100593736541E+01
  0.100234892603E+01  0.999828337359E+00  0.100019287892E+01  0.100028688499E+01  0.100184293088E+01
  0.000000000000E+00  0.000000000000E+00  0.000000000000E+00  0.385195840989E+00  0.000000000000E+00  0.340885987572E+00  0.583453514264E+00
  0.571759489800E+00  0.000000000000E+00  0.480963145387E+00  0.505185150371E+00  0.443662051728E+00  0.572024036673E+00  0.532003779890E+00
  0.566400165942E+00  0.512620398418E+00  0.508195692272E+00  0.526914265048E+00  0.564509575813E+00  0.531478338602E+00  0.508129415356E+00
  0.521930178031E+00  0.451330907030E+00  0.494980689833E+00  0.496091700376E+00  0.503538750194E+00  0.477380970321E+00  0.492957761492E+00
  0.494536363160E+00  0.491695285598E+00  0.489493129451E+00  0.494635388666E+00  0.497856409689E+00
  0.000000000000E+00  0.000000000000E+00  0.000000000000E+00  0.000000000000E+00  0.000000000000E+00  0.000000000000E+00  0.000000000000E+00
  0.000000000000E+00  0.000000000000E+00  0.000000000000E+00  0.000000000000E+00  0.000000000000E+00  0.000000000000E+00  0.000000000000E+00
  0.000000000000E+00  0.000000000000E+00  0.000000000000E+00  0.000000000000E+00  0.000000000000E+00  0.000000000000E+00  0.000000000000E+00
  0.000000000000E+00  0.000000000000E+00  0.000000000000E+00  0.000000000000E+00  0.000000000000E+00  0.000000000000E+00  0.000000000000E+00
  0.000000000000E+00  0.000000000000E+00  0.000000000000E+00  0.000000000000E+00  0.000000000000E+00
  0.000000000000E+00  0.000000000000E+00  0.000000000000E+00 -0.142934186495E-02  0.000000000000E+00  0.168978614179E-01  0.875996148466E-02
  0.403964084875E-01  0.000000000000E+00  0.730722609519E-01 -0.112216821664E+00 -0.262899054900E-01 -0.368284018529E-01 -0.483402318684E-01
 -0.588592877183E-02 -0.170460128331E-03 -0.195986023427E-02 -0.317074216088E-02  0.106422585018E-01  0.235146931510E-01  0.228804358678E-02
  0.486674884528E-01  0.687953164974E-01  0.868228945547E-02  0.441101756815E-02 -0.351502907162E-02  0.233069904602E-02 -0.110520954834E-02
  0.135828799678E-02  0.546605616840E-02 -0.147519197180E-02 -0.124161401722E-02  0.211863506777E-02
  0.572393060720E+00  0.662330401240E+00  0.669197841895E+00  0.681370845062E+00  0.688716366517E+00  0.681181052542E+00  0.693024441458E+00
  0.700085125999E+00  0.968151095886E+00  0.722087327537E+00  0.666760588008E+00  0.671480410453E+00  0.691232265745E+00  0.720038367637E+00
  0.710709995426E+00  0.723770733021E+00  0.714752640726E+00  0.710894209607E+00  0.704007881809E+00  0.714159225543E+00  0.712429494774E+00
  0.725804159682E+00  0.782033720173E+00  0.720438335086E+00  0.717728351982E+00  0.712837423062E+00  0.734165577705E+00  0.720297840502E+00
  0.716518300236E+00  0.714353044927E+00  0.714323952776E+00  0.714486142802E+00  0.716213123267E+00
  0.000000000000E+00  0.000000000000E+00  0.000000000000E+00  0.384516109130E+00  0.000000000000E+00  0.340285884133E+00  0.586752968087E+00
  0.575426017234E+00  0.000000000000E+00  0.487199379532E+00  0.520641017552E+00  0.445423573495E+00  0.576269204823E+00  0.533962381709E+00
  0.567224531107E+00  0.511735167955E+00  0.508064043084E+00  0.527166158122E+00  0.565842711756E+00  0.531744063366E+00  0.508272241260E+00
  0.522388434046E+00  0.449257950194E+00  0.494521464557E+00  0.495788432783E+00  0.503678513435E+00  0.475665761529E+00  0.492352555341E+00
  0.494346737313E+00  0.491660287673E+00  0.489529453709E+00  0.494638500964E+00  0.497648499861E+00
  0.104242640687E+01  0.104242640687E+01  0.104242640687E+01  0.100355246115E+01  0.104242640687E+01  0.100599606549E+01  0.989008028879E+00
  0.992225309856E+00  0.104242640687E+01  0.997058799466E+00  0.987964536052E+00  0.995589843623E+00  0.989405260589E+00  0.100087324074E+01
  0.997203125838E+00  0.100346282441E+01  0.100053318605E+01  0.999080755199E+00  0.995647247130E+00  0.100095637347E+01  0.999458337935E+00
  0.100692572608E+01  0.103269875105E+01  0.100216636004E+01  0.100130290536E+01  0.999493809435E+00  0.100724883494E+01  0.100246497583E+01
  0.100077487418E+01  0.100026597120E+01  0.999860681836E+00  0.999993716733E+00  0.100085386807E+01
        15         7        19        19
         8        20        19        19
        18        19        21        21
         7         4         8         8
         3         6         4         4
        19         7         8         8
        19        18        15        15
        14        13        15        15
         8        22        20        20
        27        24        22        22
        19        20        21        21
        32        26        21        21
        17        18        26        26
        17        16        15        15
        25        29        21        21
        12         7        13        13
        10         8         6         6
        25        20        24        24
         4         6         8         8
        12         2         4         4
        10        23        22        22
        26        31        17        17
        30        16        17        17
         4         7        12        12
        13        11        12        12
        21        20        25        25
        24        28        25        25
        22         8        10        10
         6         5        10        10
        31        26        32        32
         4         2         3         3
         5         6         3         3
        11        13        14        14
        22        23        27        27
        28        24        27        27
        15        13         7         7
         2        12         1         1
        29        25        33        33
        23        10         9         9
        21        26        18        18
        16        14        15        15
        18        17        15        15
        29        32        21        21
        22        24        20        20
        28        33        25        25
        11         1        12        12
        31        30        17        17
         5         9        10        10
zone t="boundary 3 bc-3", solutiontime= 0.4000000E+02, strandid=1003, i=33, j=48, f=feblock
  0.375059098657E+01  0.249769607633E+01  0.500322138025E+01  0.403612219887E+01  0.287976772043E+01  0.124541906321E+01  0.190552234484E+01
  0.500000000000E+01  0.326671105082E+01  0.423253757181E+01  0.201271135153E+01 -0.547473805950E-02  0.958895614436E+00  0.500000000000E+01
  0.266968147277E+01  0.385584488388E+01  0.890374186977E+00  0.154654012335E+01 -0.193831388865E-18  0.500000000000E+01  0.315261137201E+01
  0.218304199244E+01  0.398195308498E+01 -0.193831388865E-18  0.697379936714E+00  0.963757270369E+00  0.125000000000E+01 -0.193831388865E-18
  0.500000000000E+01  0.310330738803E+01  0.250000000000E+01  0.375000000000E+01 -0.193831388865E-18
  0.250494199996E+01  0.250494199996E+01  0.250494199996E+01  0.250494199996E+01  0.250494199996E+01  0.250494199996E+01  0.250494199996E+01
  0.250494199996E+01  0.250494199996E+01  0.250494199996E+01  0.250494199996E+01  0.250494199996E+01  0.250494199996E+01  0.250494199996E+01
  0.250494199996E+01  0.250494199996E+01  0.250494199996E+01  0.250494199996E+01  0.250494199996E+01  0.250494199996E+01  0.250494199996E+01
  0.250494199996E+01  0.250494199996E+01  0.250494199996E+01  0.250494199996E+01  0.250494199996E+01  0.250494199996E+01  0.250494199996E+01
  0.250494199996E+01  0.250494199996E+01  0.250494199996E+01  0.250494199996E+01  0.250494199996E+01
  0.135804630540E-03  0.110291624817E-03  0.968352334446E-04  0.101756767185E+01  0.908094754997E+00  0.104111079957E-03  0.722629266617E+00
  0.125000000000E+01  0.188965673342E+01  0.191862703992E+01  0.176708252859E+01  0.805555099614E-04  0.969652727920E+00  0.250000000000E+01
  0.285339441810E+01  0.293325064381E+01  0.205656233203E+01  0.293157024792E+01  0.125000000000E+01  0.375000000000E+01  0.363766843534E+01
  0.396069448925E+01  0.407056387650E+01  0.250000000000E+01  0.307031999891E+01  0.397359822904E+01  0.500000000000E+01  0.375000000000E+01
  0.500000000000E+01  0.433260783674E+01  0.500000000000E+01  0.500000000000E+01  0.500000000000E+01
  0.896676813519E+00  0.910447675818E+00  0.781948933970E+00  0.945770360858E+00  0.960130221878E+00  0.922179380498E+00  0.963950473291E+00
  0.950682418806E+00  0.978092873205E+00  0.979670637159E+00  0.986799158003E+00  0.121959991389E+01  0.100543678840E+01  0.100849094169E+01
  0.992240049500E+00  0.997800248687E+00  0.100537161658E+01  0.998282944085E+00  0.105831354890E+01  0.100697677597E+01  0.998804011473E+00
  0.999311193786E+00  0.100000738761E+01  0.101662521918E+01  0.100449251768E+01  0.100204226849E+01  0.100246726152E+01  0.100488609439E+01
  0.100014587832E+01  0.998721191817E+00  0.100101037194E+01  0.100049286215E+01  0.100194476138E+01
  0.000000000000E+00  0.000000000000E+00  0.000000000000E+00  0.451193512771E+00  0.403035890372E+00  0.000000000000E+00  0.369780819432E+00
  0.504465462310E+00  0.572441514761E+00  0.570700448813E+00  0.555903923851E+00  0.000000000000E+00  0.475076189004E+00  0.529012523328E+00
  0.555007184880E+00  0.562171995734E+00  0.523997664025E+00  0.523269527986E+00  0.451834054248E+00  0.514483250323E+00  0.524697327844E+00
  0.506246218590E+00  0.509778469069E+00  0.478881794898E+00  0.499519888810E+00  0.498081330204E+00  0.493201240869E+00  0.493575550923E+00
  0.493226589819E+00  0.501441567892E+00  0.491213318722E+00  0.488103628628E+00  0.498235954263E+00
  0.000000000000E+00  0.000000000000E+00  0.000000000000E+00  0.000000000000E+00  0.000000000000E+00  0.000000000000E+00  0.000000000000E+00
  0.000000000000E+00  0.000000000000E+00  0.000000000000E+00  0.000000000000E+00  0.000000000000E+00  0.000000000000E+00  0.000000000000E+00
  0.000000000000E+00  0.000000000000E+00  0.000000000000E+00  0.000000000000E+00  0.000000000000E+00  0.000000000000E+00  0.000000000000E+00
  0.000000000000E+00  0.000000000000E+00  0.000000000000E+00  0.000000000000E+00  0.000000000000E+00  0.000000000000E+00  0.000000000000E+00
  0.000000000000E+00  0.000000000000E+00  0.000000000000E+00  0.000000000000E+00  0.000000000000E+00
  0.000000000000E+00  0.000000000000E+00  0.000000000000E+00 -0.279072934598E-01  0.124067524040E-01  0.000000000000E+00  0.162361883911E-01
 -0.114473951944E+00  0.481987904398E-03 -0.460950958840E-01  0.299462834848E-01  0.000000000000E+00  0.536074091057E-01 -0.502844837934E-01
  0.507334356147E-02 -0.105803012546E-01  0.439389108842E-01  0.105965536595E-01  0.388446297234E-01 -0.221862176182E-02 -0.367148765491E-02
 -0.404347637732E-03 -0.149356628203E-02  0.342255234486E-02  0.804274954079E-02  0.207982561114E-02  0.580577294341E-03  0.244074079619E-03
  0.506607819858E-02 -0.210224768749E-02 -0.607634456549E-03 -0.695829600216E-03  0.114480521212E-02
  0.667656849173E+00  0.677910499534E+00  0.582231583996E+00  0.670520848513E+00  0.688130594042E+00  0.686645812931E+00  0.690430239700E+00
  0.670645907457E+00  0.691903443241E+00  0.692624440554E+00  0.700947322384E+00  0.908102254326E+00  0.717683208012E+00  0.721491958122E+00
  0.706702646324E+00  0.711393847550E+00  0.721305339233E+00  0.713317608021E+00  0.774899677143E+00  0.721207802290E+00  0.713532238328E+00
  0.713575100891E+00  0.714554231667E+00  0.730580342782E+00  0.718615625848E+00  0.716241098017E+00  0.716741918795E+00  0.719224735596E+00
  0.714565168657E+00  0.713128377660E+00  0.715136917313E+00  0.714653003115E+00  0.716319882467E+00
  0.000000000000E+00  0.000000000000E+00  0.000000000000E+00  0.453747963389E+00  0.402545534840E+00  0.000000000000E+00  0.369629011707E+00
  0.520525201455E+00  0.575220770730E+00  0.575502660123E+00  0.558260177091E+00  0.000000000000E+00  0.478252966385E+00  0.530976547994E+00
  0.555830979425E+00  0.562793201912E+00  0.524675239147E+00  0.523282018981E+00  0.447917898378E+00  0.513796071794E+00  0.524673108489E+00
  0.506323920274E+00  0.509686747219E+00  0.477443350245E+00  0.499194828859E+00  0.497912963598E+00  0.492962791584E+00  0.493078180618E+00
  0.493192115005E+00  0.501531718869E+00  0.491169213995E+00  0.488098918645E+00  0.498012885240E+00
  0.104242640687E+01  0.104242640687E+01  0.104242640687E+01  0.992555092408E+00  0.100338767566E+01  0.104242640687E+01  0.100275103583E+01
  0.987610848657E+00  0.990360779711E+00  0.989796141679E+00  0.994453879879E+00  0.104242640687E+01  0.999323381453E+00  0.100158434708E+01
  0.997121316916E+00  0.998147061881E+00  0.100443205107E+01  0.100036232928E+01  0.102508330270E+01  0.100269534243E+01  0.100014129117E+01
  0.999693736506E+00  0.100036853400E+01  0.100608607832E+01  0.100156233966E+01  0.100069385170E+01  0.100096903393E+01  0.100201867202E+01
  0.100024532202E+01  0.999658099683E+00  0.100018112929E+01  0.100002133170E+01  0.100090132121E+01
        15         9        16        16
        15        18        11        11
        22        15        21        21
        11         5         9         9
         5         7         2         2
        11         9        15        15
        16        21        15        15
        16        10        14        14
        18        17        11        11
        17        25        24        24
        22        18        15        15
        22        30        31        31
        30        21        23        23
        16        20        23        23
        22        27        26        26
        10         9         4         4
         7        11        13        13
        25        18        26        26
        11         7         5         5
         5         1         4         4
        17        19        13        13
        23        32        30        30
        23        20        29        29
         4         9         5         5
         4         8        10        10
        26        18        22        22
        26        28        25        25
        13        11        17        17
        13         6         7         7
        31        30        32        32
         2         1         5         5
         2         7         6         6
        14        10         8         8
        24        19        17        17
        24        25        28        28
         9        10        16        16
         3         4         1         1
        33        26        27        27
        12        13        19        19
        21        30        22        22
        16        14        20        20
        16        23        21        21
        22        31        27        27
        18        25        17        17
        26        33        28        28
         4         3         8         8
        23        29        32        32
        13        12         6         6
zone t="boundary 4 bc-4", solutiontime= 0.4000000E+02, strandid=1004, i=32, j=46, f=feblock
  0.125000000000E+01  0.219251206392E+01  0.103724302461E+01  0.500000000000E+01  0.250000000000E+01  0.375000000000E+01  0.404200324774E+01
  0.500000000000E+01 -0.193831388865E-18  0.310152362409E+01  0.202479342020E+01  0.324151231464E+01  0.922061490191E+00 -0.193831388865E-18
  0.299062775774E+01  0.394624082883E+01  0.500000000000E+01  0.409252726285E+01  0.500000000000E+01  0.429310310915E+01  0.175434191980E+01
  0.284428995242E+01 -0.193831388865E-18 -0.193831388865E-18  0.715990576545E+00  0.930412228790E+00  0.125000000000E+01  0.187029682677E+01
  0.500000000000E+01  0.375000000000E+01  0.250000000000E+01 -0.193831388865E-18
  0.250494199996E+01  0.157686156160E+01  0.146289271009E+01  0.250494199996E+01  0.250494199996E+01  0.250494199996E+01  0.155830813274E+01
  0.125000000000E+01  0.250494199996E+01  0.177790177481E+01  0.477386199275E+00  0.742988685424E+00  0.308372018325E+00  0.125000000000E+01
 -0.487811078581E+00 -0.144524380962E+01 -0.125000000000E+01 -0.345533899378E+00 -0.193831388865E-18  0.627766083140E+00 -0.739814786992E+00
 -0.158811787973E+01 -0.193831388865E-18 -0.125000000000E+01 -0.600232012419E+00 -0.154800130438E+01 -0.249658902117E+01 -0.178862290564E+01
 -0.249658902117E+01 -0.249658902117E+01 -0.249658902117E+01 -0.249658902117E+01
  0.500000000000E+01  0.500000000000E+01  0.500000000000E+01  0.500000000000E+01  0.500000000000E+01  0.500000000000E+01  0.500000000000E+01
  0.500000000000E+01  0.500000000000E+01  0.500000000000E+01  0.500000000000E+01  0.500000000000E+01  0.500000000000E+01  0.500000000000E+01
  0.500000000000E+01  0.500000000000E+01  0.500000000000E+01  0.500000000000E+01  0.500000000000E+01  0.500000000000E+01  0.500000000000E+01
  0.500000000000E+01  0.500000000000E+01  0.500000000000E+01  0.500000000000E+01  0.500000000000E+01  0.500000000000E+01  0.500000000000E+01
  0.500000000000E+01  0.500000000000E+01  0.500000000000E+01  0.500000000000E+01
  0.100246726152E+01  0.100134429927E+01  0.100190794136E+01  0.100014587832E+01  0.100101037194E+01  0.100049286215E+01  0.999775519157E+00
  0.100034290087E+01  0.100194476138E+01  0.100086118602E+01  0.100110853164E+01  0.100019874388E+01  0.100152581843E+01  0.100190260439E+01
  0.100054384273E+01  0.998652347803E+00  0.100067103225E+01  0.999536403466E+00  0.100054134945E+01  0.999923125119E+00  0.100145779326E+01
  0.100044294001E+01  0.100077796443E+01  0.100130067583E+01  0.100105884096E+01  0.100174639765E+01  0.100234892603E+01  0.100133133598E+01
  0.999828337359E+00  0.100019287892E+01  0.100028688499E+01  0.100184293088E+01
  0.493201240869E+00  0.493601229398E+00  0.494657956626E+00  0.493226589819E+00  0.491213318722E+00  0.488103628628E+00  0.488185496991E+00
  0.494186715252E+00  0.498235954263E+00  0.490793390780E+00  0.492762855488E+00  0.491176704732E+00  0.497637808453E+00  0.498753325572E+00
  0.492051409864E+00  0.486062171762E+00  0.492255075890E+00  0.489681520123E+00  0.494622538316E+00  0.490040074508E+00  0.494628939589E+00
  0.492616578200E+00  0.499569341324E+00  0.498567812953E+00  0.498183506997E+00  0.496570935239E+00  0.494536363160E+00  0.494839470542E+00
  0.491695285598E+00  0.489493129451E+00  0.494635388666E+00  0.497856409689E+00
  0.000000000000E+00 -0.121455913650E-03 -0.110879349155E-02  0.000000000000E+00  0.000000000000E+00  0.000000000000E+00  0.121279193120E-03
  0.633463872791E-03  0.000000000000E+00  0.102589488349E-03 -0.874311863380E-03 -0.898590860048E-03 -0.157079872119E-02  0.695878329787E-04
 -0.888486415853E-03 -0.918858143076E-03 -0.139163112938E-02 -0.210144500613E-02 -0.141202603902E-02 -0.122044396571E-02 -0.534183065882E-03
 -0.644826439485E-03 -0.176722393857E-03  0.608287694595E-03 -0.247273720130E-04  0.142364542560E-02  0.000000000000E+00  0.724014257051E-03
  0.000000000000E+00  0.000000000000E+00  0.000000000000E+00  0.000000000000E+00