# vtk DataFile Version 2.0
FUN3D:global_image_vtk
ASCII
DATASET UNSTRUCTURED_GRID
POINTS 213 double
   -0.5474738059504602E-02    0.5000000000000004E-30    0.2504941999961484E+01
    0.1212121212121209E-30    0.8055550996138859E-04    0.5000000000000000E-30
    0.1245419063214956E+01    0.1000000000000001E-29    0.2504941999961484E+01
    0.1212121212121209E-30    0.1041110799572809E-03    0.1000000000000000E-29
    0.2497696076329003E+01    0.5000000000000002E-30    0.2504941999961484E+01
    0.1212121212121209E-30    0.1102916248165164E-03    0.5000000000000000E-30
    0.3750590986574023E+01    0.1000000000000000E-29    0.2504941999961484E+01
    0.1212121212121209E-30    0.1358046305401372E-03    0.1000000000000000E-29
    0.5003221380247613E+01    0.4999999999999999E-30    0.2504941999961484E+01
    0.1212121212121209E-30    0.9683523344461431E-04    0.5000000000000000E-30
    0.5004676745410213E+01    0.9999999999999999E-30    0.1281291377273527E+01
    0.4999999999999980E-30    0.1639128333390527E-03    0.1000000000000000E-29
    0.5004772723164809E+01    0.4999999999999998E-30    0.2775094235895190E-01
    0.9999999999999985E-30    0.1904167401678425E-03    0.5000000000000000E-30
    0.5003581213732991E+01    0.9999999999999999E-30   -0.1225853394964910E+01
    0.4999999999999985E-30    0.1608071321506643E-03    0.1000000000000000E-29
    0.5001952545688034E+01    0.5000000000000000E-30   -0.2496589021166458E+01
    0.1212121212121210E-30    0.1082184661237440E-03    0.5000000000000000E-30
    0.3750348114452023E+01    0.1000000000000000E-29   -0.2496589021166458E+01
    0.1212121212121210E-30    0.1458710028767740E-03    0.1000000000000000E-29
    0.2498611455860786E+01    0.5000000000000001E-30   -0.2496589021166458E+01
    0.1212121212121210E-30    0.1008914036254582E-03    0.5000000000000000E-30
    0.1247175253529147E+01    0.1000000000000000E-29   -0.2496589021166458E+01
    0.1212121212121210E-30    0.1108597702464409E-03    0.1000000000000000E-29
   -0.3383978115785169E-02    0.5000000000000003E-30   -0.2496589021166458E+01
    0.1212121212121210E-30    0.8107707488508309E-04    0.5000000000000000E-30
   -0.4257799575230425E-02    0.1000000000000000E-29   -0.1225734704378883E+01
    0.4999999999999985E-30    0.3420054752112377E-04    0.1000000000000000E-29
   -0.5251637157060784E-02    0.5000000000000004E-30    0.2619498345569626E-01
    0.9999999999999985E-30    0.1039613540431139E-03    0.5000000000000000E-30
   -0.5676113931367688E-02    0.1000000000000001E-29    0.1278221711771627E+01
    0.4999999999999982E-30    0.8237742971856088E-04    0.1000000000000000E-29
    0.9003209086382191E+00    0.5000000000000004E-30    0.1608979275733105E+01
    0.9999999999999982E-30    0.8718012080222159E-04    0.5000000000000000E-30
    0.3983172220881041E+01    0.1000000000000000E-29   -0.1561211796856023E+01
    0.4999999999999986E-30    0.1757351954316810E-03    0.1000000000000000E-29
    0.4035602066125263E+01    0.5000000000000000E-30    0.1486760229513980E+01
    0.9999999999999980E-30    0.1714506678095473E-03    0.5000000000000000E-30
    0.1036613696945808E+01    0.1000000000000000E-29   -0.1455626319023465E+01
    0.4999999999999986E-30    0.1047538994854991E-03    0.1000000000000000E-29
    0.1094353438944835E+01    0.5000000000000004E-30   -0.2964620713744224E+00
    0.9999999999999983E-30    0.1261326919438921E-03    0.5000000000000000E-30
    0.7298399754953697E+00    0.1000000000000001E-29    0.6874686188446064E+00
    0.4999999999999965E-30    0.1045682047596808E-03    0.1000000000000000E-29
    0.1617018610904462E+01    0.5000000000000004E-30    0.8553209657949420E+00
    0.9999999999999964E-30    0.1530917835092516E-03    0.5000000000000000E-30
    0.2143199645120234E+01    0.1000000000000000E-29   -0.1627128401290524E+01
    0.4999999999999986E-30    0.1606433273473873E-03    0.1000000000000000E-29
    0.4088840470379843E+01    0.5000000000000000E-30   -0.4351046471404206E+00
    0.9999999999999985E-30    0.2720522799659064E-03    0.5000000000000000E-30
    0.2977916500432660E+01    0.1000000000000000E-29   -0.8334990271277849E+00
    0.4999999999999948E-30    0.2246092970106250E-03    0.1000000000000000E-29
    0.3044093236197656E+01    0.5000000000000001E-30   -0.1814361118269820E+01
    0.9999999999999987E-30    0.1617179478026198E-03    0.5000000000000000E-30
    0.3427866617085304E+01    0.1000000000000000E-29    0.3813906574464904E+00
    0.4999999999999984E-30    0.2937830712453904E-03    0.1000000000000000E-29
    0.4313225396320023E+01    0.4999999999999998E-30    0.5489135083257440E+00
    0.9999999999999964E-30    0.2313893475642814E-03    0.5000000000000000E-30
    0.1823032699632841E+01    0.1000000000000000E-29    0.1771265381755795E+01
    0.4999999999999979E-30    0.1837610807679524E-03    0.1000000000000000E-29
    0.2806311135978372E+01    0.5000000000000003E-30    0.1358629571504235E+01
    0.9999999999998521E-30    0.1944713312552748E-03    0.5000000000000000E-30
    0.1891860844560957E+01    0.1000000000000000E-29   -0.8481309128925676E+00
    0.4999999999999959E-30    0.1671170219251228E-03    0.1000000000000000E-29
    0.2268769163417530E+01    0.5000000000000004E-30    0.7723707075737757E-01
    0.9999999999999985E-30    0.2073128221063425E-03    0.5000000000000000E-30
    0.5000000000000000E+01    0.4198378003160474E-47    0.2504941999961484E+01
    0.1212121212121209E-30    0.1250000000000000E+01    0.4198378003160474E-47
    0.5000000000000000E+01    0.4198378003160474E-47    0.2504941999961484E+01
    0.1212121212121209E-30    0.2500000000000000E+01    0.4198378003160474E-47
    0.5000000000000000E+01    0.4198378003160474E-47    0.2504941999961484E+01
    0.1212121212121209E-30    0.3750000000000000E+01    0.4198378003160474E-47
    0.5000000000000000E+01    0.4198378003160474E-47    0.2504941999961484E+01
    0.1212121212121209E-30    0.5000000000000000E+01    0.4198378003160474E-47
    0.3750000000000000E+01    0.4198378003160474E-47    0.2504941999961484E+01
    0.1212121212121209E-30    0.5000000000000000E+01    0.4198378003160474E-47
    0.2500000000000000E+01    0.4198378003160474E-47    0.2504941999961484E+01
    0.1212121212121209E-30    0.5000000000000000E+01    0.4198378003160474E-47
    0.1250000000000000E+01    0.4198378003160474E-47    0.2504941999961484E+01
    0.1212121212121209E-30    0.5000000000000000E+01    0.4198378003160474E-47
   -0.1339623634769850E-19    0.4198378003160474E-47    0.2504941999961484E+01
    0.1212121212121209E-30    0.5000000000000000E+01    0.4198378003160474E-47
   -0.1339623634769850E-19    0.4198378003160474E-47    0.2504941999961484E+01
    0.1212121212121209E-30    0.3750000000000000E+01    0.4198378003160474E-47
   -0.1339623634769850E-19    0.4198378003160474E-47    0.2504941999961484E+01
    0.1212121212121209E-30    0.2500000000000000E+01    0.4198378003160474E-47
   -0.1339623634769850E-19    0.4198378003160474E-47    0.2504941999961484E+01
    0.1212121212121209E-30    0.1250000000000000E+01    0.4198378003160474E-47
    0.9588956144355161E+00    0.4088323204879510E-30    0.2504941999961484E+01
    0.1212121212121209E-30    0.9696527279204157E+00    0.8253355966551671E-30
    0.3981953084978401E+01    0.7369699780759671E-31    0.2504941999961484E+01
    0.1212121212121209E-30    0.4070563876500500E+01    0.1516277355829130E-30
    0.4036122198870731E+01    0.5331184872987468E-30    0.2504941999961484E+01
    0.1212121212121209E-30    0.1017567671852929E+01    0.8139234257758008E-30
    0.9637572703692217E+00   -0.9331067766455312E-32    0.2504941999961484E+01
    0.1212121212121209E-30    0.3973598229042282E+01    0.1306014370159607E-30
    0.1546540123352509E+01    0.8002905657924192E-31    0.2504941999961484E+01
    0.1212121212121209E-30    0.2931570247918891E+01    0.3996885550961081E-30
    0.6973799367138884E+00    0.3481309068428386E-32    0.2504941999961484E+01
    0.1212121212121209E-30    0.3070319998906840E+01    0.2100037182687596E-30
    0.8903741869765986E+00    0.7712488796356891E-31    0.2504941999961484E+01
    0.1212121212121209E-30    0.2056562332029389E+01    0.4294668085393552E-30
    0.2183041992443720E+01    0.3782461580948881E-31    0.2504941999961484E+01
    0.1212121212121209E-30    0.3960694489254670E+01    0.2259705361712726E-30
    0.3855844883881474E+01    0.1784932175604539E-30    0.2504941999961484E+01
    0.1212121212121209E-30    0.2933250643805067E+01    0.3558534735535405E-30
    0.3152611372008677E+01    0.1115283363379633E-30    0.2504941999961484E+01
    0.1212121212121209E-30    0.3637668435336390E+01    0.2959845527155561E-30
    0.3103307388029136E+01    0.5185271477210555E-31    0.2504941999961484E+01
    0.1212121212121209E-30    0.4332607836744343E+01    0.1521436499777269E-30
    0.3266711050822213E+01    0.3601961362738507E-30    0.2504941999961484E+01
    0.1212121212121209E-30    0.1889656733417950E+01    0.6353768785672768E-30
    0.4232537571805413E+01    0.2580489315428249E-30    0.2504941999961484E+01
    0.1212121212121209E-30    0.1918627039918501E+01    0.4090791405808815E-30
    0.1905522344842235E+01    0.6572817491138570E-30    0.2504941999961484E+01
    0.1212121212121209E-30    0.7226292666170522E+00    0.8977306600900003E-30
    0.2879767720433331E+01    0.6107141644545643E-30    0.2504941999961484E+01
    0.1212121212121209E-30    0.9080947549972160E+00    0.8180347387425674E-30
    0.2012711351533435E+01    0.3615868018462440E-30    0.2504941999961484E+01
    0.1212121212121209E-30    0.1767082528588959E+01    0.7060364642884681E-30
    0.2669681472765471E+01    0.1849800474542395E-30    0.2504941999961484E+01
    0.1212121212121209E-30    0.2853394418098206E+01    0.4820509466868746E-30
    0.5000000000000000E+01    0.4198378003160474E-47    0.1250000000000000E+01
    0.4198378003160474E-47    0.5000000000000000E+01    0.4198378003160474E-47
    0.5000000000000000E+01    0.4198378003160474E-47   -0.1339623634769850E-19
[...]
POINT_DATA 213
SCALARS rho double 1
LOOKUP_TABLE default
   0.1219599913613481E+01
  -0.6526407564382161E-31
   0.9221793838864275E+00
   0.2217449190357404E-31
   0.9104476813013804E+00
  -0.8034671722051133E-31
   0.8966767977141321E+00
   0.2806558932136569E-31
   0.7819488864842011E+00
  -0.7932711901609298E-32
   0.7116571317284605E+00
   0.2387655997662062E-30
   0.6990709657802293E+00
   0.9048882680900432E-31
   0.7029546921880440E+00
   0.4252343510698546E-31
   0.7687355881647820E+00
  -0.8914836448304351E-31
   0.8895232822338034E+00
   0.3337904117389412E-31
   0.8987464019097390E+00
  -0.7715173534625662E-31
   0.9249601769206853E+00
  -0.1601541221468795E-31
   0.1300246732790029E+01
  -0.1090121097945278E-30
   0.1348040885210494E+01
  -0.5523172658529529E-30
   0.1456338075684559E+01
  -0.2681109969171288E-30
   0.1286719692333690E+01
  -0.4187495198294431E-30
   0.9619642158931482E+00
  -0.4382651066988547E-31
   0.9047653980561770E+00
  -0.1613266004072636E-31
   0.8972301124070676E+00
   0.2238534974297706E-31
   0.9249192778487322E+00
  -0.1345788223816833E-31
   0.9126331843462079E+00
   0.2682093341990194E-32
   0.9866008235362774E+00
  -0.1762656602047795E-30
   0.8974308639227544E+00
  -0.4227030786601142E-31
   0.8999717894767388E+00
  -0.8274863434660924E-31
   0.9067475719109563E+00
  -0.2569583422387205E-31
   0.9112478407017294E+00
  -0.3898940816883604E-31
   0.8943866375904068E+00
  -0.1148926240968578E-31
   0.9125851103451038E+00
  -0.2531585415622621E-31
   0.8902529657777527E+00
   0.7644195761020433E-32
   0.9018652715729989E+00
  -0.3507167673978561E-31
   0.9063596825272704E+00
   0.1370389600916548E-31
   0.8623950846121067E+00
   0.3650674220741007E-31
   0.9078064541478134E+00
   0.9875007112750509E-31
   0.9506821984051571E+00
  -0.3136076306118451E-31
   0.1008490980180987E+01
   0.1583918196134909E-32
   0.1006976758465225E+01
   0.1121690839773914E-32
   0.1000145908711430E+01
  -0.5935625415795208E-33
   0.1000492870019375E+01
  -0.2315211340824331E-32
   0.1001010370643572E+01
  -0.2967943961280949E-32
   0.1002467258126911E+01
  -0.2020740292196008E-32
   0.1001944765552971E+01
  -0.1278945643472901E-33
   0.1004886098316310E+01
  -0.1727125253156596E-33
   0.1016625222135827E+01
   0.7331005495838996E-32
   0.1058313554257375E+01
   0.2243851232250477E-31
   0.1005436788049513E+01
   0.2141650233931808E-31
   0.1000007369525161E+01
  -0.1615738592285488E-32
   0.9457700495035317E+00
  -0.3686342549150901E-31
   0.1002042271949027E+01
  -0.1068146606665343E-32
   0.9982829476316644E+00
  -0.4530962495510854E-34
   0.1004492521307685E+01
   0.4396950482864889E-33
   0.1005371617841915E+01
   0.1984504443288204E-32
   0.9993111978175788E+00
  -0.2178440298682671E-32
   0.9978002667647198E+00
  -0.1220094349980286E-32
   0.9988040172610874E+00
  -0.2610784165979301E-32
   0.9987211972619865E+00
  -0.2487373855450478E-32
   0.9780928918159036E+00
  -0.3877128992146481E-32
   0.9796706142576993E+00
  -0.1919773483216553E-32
   0.9639504863365549E+00
  -0.3058349783442931E-31
   0.9601301311186553E+00
  -0.2019843162850266E-31
   0.9867991727950297E+00
  -0.4870633297563211E-32
   0.9922400513253626E+00
  -0.1350649704770923E-32
   0.1000342977243184E+01
  -0.3833982953946322E-33
   0.1000541450771099E+01
  -0.3981770891169759E-33
   0.1000671133012619E+01
  -0.4379840239111884E-33
   0.9998284134543474E+00
   0.1060463242687171E-33
   0.1009782297136086E+01
   0.2490847437199908E-32
   0.1007174224035264E+01
   0.2487664868294600E-32
   0.9448363518144099E+00
  -0.2612156584562121E-31
   0.9034576849475928E+00
  -0.3727450509549722E-31
   0.1007039898464944E+01
   0.1390286454165603E-32
   0.1004193124636095E+01
   0.3381266415716114E-33
   0.8965165777293511E+00
  -0.3780587211182721E-31
   0.8926680498095829E+00
  -0.1668325820841814E-31
   0.8470449749682394E+00
  -0.1975146488637630E-31
   0.9708429042405978E+00
  -0.6079340041098845E-32
   0.1000202431936224E+01
   0.5143495107348930E-32
   0.1006091577627747E+01
   0.3892033130334619E-33
   0.1015639761996959E+01
   0.4157343766641435E-32
   0.1012987271708984E+01
   0.4333823780635999E-32
   0.1012861697425267E+01
   0.9698617438381456E-33
   0.1005118612472532E+01
   0.5595776771163282E-33
   0.9863622640107471E+00
  -0.5004695814389723E-33
   0.1006593489929789E+01
   0.8183442745708700E-33
   0.9849764702184812E+00
   0.5653279092822963E-32
   0.1008140573354927E+01
   0.3977800836568009E-32
   0.1001902606873925E+01
  -0.2058043925963678E-33
   0.1000777962762642E+01
   0.1673400373772033E-33
   0.1001300678114529E+01
   0.3088276322459978E-33
   0.1001842923441171E+01
   0.8473187474934606E-34
   0.1002348926670198E+01
  -0.1481610347919732E-32
   0.1000286871398425E+01
  -0.2783172001474074E-32
   0.1000192914643230E+01
  -0.1725571130359573E-32
   0.9997755933389236E+00
  -0.2111966392808727E-32
   0.1001746394685880E+01
  -0.1023525162367323E-32
   0.1001907944784976E+01
  -0.1492993836988858E-32
   0.9986523977310046E+00
  -0.1817933795133309E-32
   0.9995364911722312E+00
  -0.1876250900156270E-32
   0.9999232354596227E+00
  -0.1714534407005690E-32
   0.1000198767971918E+01
  -0.2559571777875670E-32
   0.1000442941673371E+01
  -0.2194134360133543E-32
   0.1001058841355230E+01
  -0.5312623234046242E-33
   0.1001457792917570E+01
  -0.2051475411592242E-32
   0.1001331328861188E+01
  -0.2186749313659683E-32
   0.1001525818354319E+01
  -0.1226974417972089E-32
   0.1000861177974704E+01
  -0.2763641412596765E-32
   0.1001344306219854E+01
  -0.2638375982778197E-32
   0.1001108536268163E+01
  -0.2442283104467418E-32
   0.1000543854540192E+01
  -0.2518302234787386E-32
   0.1060180605639123E+01
   0.1169740158780828E-31
   0.1020434851439504E+01
   0.8928187908655973E-32
   0.1005937367252059E+01
   0.7271485159884525E-33
   0.1003463833917615E+01
   0.2295455435459330E-33
   0.1142067394328649E+01
   0.1140888858785875E-31
   0.1083370527274156E+01
   0.1859591935330919E-31
   0.1004378517860113E+01
   0.3923808713569424E-33
   0.1003909103421274E+01
   0.3769269730858301E-33
   0.1003789602179799E+01
  -0.1451410503785303E-33
   0.1006675430345838E+01
   0.3384237829956958E-32
   0.1012240635866724E+01
   0.7141959537410035E-32
   0.1193114846297076E+01
  -0.3842458924096413E-31
   0.1028000791369941E+01
   0.5187124209306780E-32
   0.1034785375858277E+01
   0.1549435799842049E-31
   0.1169417159587882E+01
   0.3150147434971631E-31
   0.1009874385356181E+01
   0.2797336906628527E-32
   0.1023546143337345E+01
   0.1041109191053886E-31
   0.1017121966025082E+01
   0.4404719635465828E-32
   0.1007875017661892E+01
   0.5139201304889454E-32
   0.1013904356829689E+01
   0.1706844762882425E-31
   0.1000120419994197E+01
  -0.1408723423437283E-32
   0.9442367767215588E+00
  -0.3559100422230582E-31
   0.1003512214008484E+01
  -0.4182326633842619E-33
   0.9988676266192887E+00
  -0.4904325419327182E-32
   0.1006433377409212E+01
   0.1903674887004858E-32
   0.1009136818446470E+01
  -0.1469557199122099E-32
   0.9979418413419063E+00
  -0.2566999038319255E-32
   0.9977846798151105E+00
  -0.1760372480422515E-32
   0.9961676216967472E+00
  -0.3077195166559274E-32
   0.9984778160635379E+00
  -0.2263109925306174E-32
   0.9810175331422930E+00
  -0.1170125565602436E-31
   0.9780877552899678E+00
  -0.6293878595483198E-32
   0.9479693804265480E+00
  -0.3581682887527829E-31
   0.9505424156821568E+00
  -0.3988264893043148E-31
   0.9877990056568379E+00
  -0.9720938107633944E-32
   0.9899199084793311E+00
  -0.3810122575785155E-32
   0.9925444357413525E+00
  -0.3909059367640144E-32
   0.9998150160077912E+00
  -0.1908410271113668E-32
   0.9986044256971498E+00
  -0.2999780518657664E-32
   0.9946495923519106E+00
  -0.1973937183027104E-32
   0.1006783294485207E+01
   0.1411107491131499E-32
   0.1021195773712766E+01
   0.1319396363203406E-31
   0.9979991516457333E+00
  -0.7855282695695589E-32
   0.1004785936910297E+01
  -0.6520776159789858E-33
   0.1001443253579188E+01
  -0.1032675205500239E-32
   0.1004870015574631E+01
   0.2203370906345829E-33
   0.9952898773731178E+00
  -0.2108506659286234E-32
   0.9853957099544072E+00
   0.1022427316367735E-31
   0.1000226007447994E+01
  -0.2129396309523908E-32
   0.9938930119382130E+00
  -0.2605816140189946E-32
   0.9819631293258285E+00
  -0.1652761565907248E-32
   0.9943515145076428E+00
  -0.2165788247763165E-32
   0.9968775152987986E+00
  -0.2861316056357987E-32
   0.9937161314858303E+00
  -0.1025756739284193E-32
   0.9987031086257181E+00
  -0.2300654571489739E-32
   0.1000033244281287E+01
  -0.2326261626014937E-32
   0.9996686280057030E+00
  -0.2457351659338157E-32
   0.9958480420583962E+00
  -0.6083663201045967E-33
   0.9933618045053433E+00
  -0.2421505851718235E-32
   0.1001379813515480E+01
  -0.1549540597053886E-32
   0.1018342565080833E+01
  -0.9611925457586115E-33
   0.1002761163885528E+01
  -0.4745910643608646E-32
   0.9806466643451363E+00
  -0.9435873149501734E-32
   0.1001874257980402E+01
  -0.1378597405641166E-32
   0.1008205818682761E+01
   0.1266877148567502E-32
   0.9702345995727244E+00
  -0.1171639859680186E-31
   0.9431323729250863E+00
   0.5982421821362139E-32
   0.9846786353206689E+00
  -0.1087364175989792E-31
   0.9843645601749090E+00
  -0.6787178092364524E-32
   0.9754696721845643E+00
  -0.3226047610891894E-31
   0.9908380426727366E+00
  -0.1396198671944715E-31
   0.9779133561216332E+00
  -0.3237024302689403E-31
   0.1033958406002437E+01
  -0.6944966081070651E-32
   0.1021656796288569E+01
   0.1296883764947859E-31
   0.1000033005353568E+01
  -0.1812216950892023E-32
   0.9991734290896747E+00
  -0.2853893079320606E-32
   0.9919055285336663E+00
   0.2328798044791388E-32
   0.9907248504667369E+00
  -0.3646652361232471E-32
   0.9574014550772536E+00
  -0.8288844741886704E-32
   0.9930506880855963E+00
   0.1301820652171082E-32
   0.1006289131536578E+01
   0.1383799307834775E-32
   0.1002044037559698E+01
  -0.2898692340453738E-33
   0.9896477897141276E+00
  -0.4697641487321950E-32
   0.9652799826676786E+00
  -0.6050958408797509E-32
   0.9203406997509603E+00
  -0.2556434495023412E-31
   0.9724368702051902E+00
  -0.1141397427407101E-31
   0.9781836989218889E+00
  -0.5097391168551212E-32
   0.9559726800556994E+00
  -0.5687178470220060E-32
   0.9617645757532108E+00
  -0.2370017714032493E-31
   0.9490309801184806E+00
  -0.2828139896748474E-32
   0.9366912375255968E+00
  -0.2237095890125119E-31
   0.9303104723137116E+00
  -0.2983688536673995E-31
   0.9992919130617843E+00
  -0.1524656303409071E-32
   0.9994619482012523E+00
  -0.2253216841129469E-32
   0.9988025047151107E+00
  -0.2103362566967275E-32
   0.1002017073952174E+01
  -0.4595015867026027E-33
   0.9391477998917888E+00
  -0.2465414310009786E-31
   0.9239055150385131E+00
  -0.6045660505735980E-31
   0.9359217488829702E+00
  -0.1829278853464276E-31
   0.9984137893858576E+00
  -0.2444003894964955E-32
   0.9983444540269544E+00
  -0.2323900437427628E-32
   0.1000450520518564E+01
  -0.1445676697265307E-32
   0.9793848501612704E+00
  -0.1011283965762331E-31
   0.9713545842877602E+00
  -0.7112131419739181E-32
   0.9447096592612375E+00
  -0.1688392007971717E-31
SCALARS u double 1
LOOKUP_TABLE default
   0.0000000000000000E+00
   0.0000000000000000E+00
   0.0000000000000000E+00
   0.0000000000000000E+00
   0.0000000000000000E+00
   0.0000000000000000E+00
   0.0000000000000000E+00
   0.0000000000000000E+00
   0.0000000000000000E+00
   0.0000000000000000E+00
   0.0000000000000000E+00
   0.0000000000000000E+00
   0.0000000000000000E+00
   0.0000000000000000E+00
   0.0000000000000000E+00
   0.0000000000000000E+00
   0.0000000000000000E+00
   0.0000000000000000E+00
   0.0000000000000000E+00
   0.0000000000000000E+00
   0.0000000000000000E+00
   0.0000000000000000E+00
   0.0000000000000000E+00
   0.0000000000000000E+00
   0.0000000000000000E+00
   0.0000000000000000E+00
   0.0000000000000000E+00
   0.0000000000000000E+00
   0.0000000000000000E+00
   0.0000000000000000E+00
   0.0000000000000000E+00
   0.0000000000000000E+00
   0.0000000000000000E+00
   0.0000000000000000E+00
   0.0000000000000000E+00
   0.0000000000000000E+00
   0.0000000000000000E+00
   0.0000000000000000E+00
   0.0000000000000000E+00
   0.0000000000000000E+00
   0.0000000000000000E+00
   0.0000000000000000E+00
   0.0000000000000000E+00
   0.0000000000000000E+00
   0.0000000000000000E+00
   0.0000000000000000E+00
   0.0000000000000000E+00
   0.0000000000000000E+00
   0.0000000000000000E+00
   0.0000000000000000E+00
   0.0000000000000000E+00
   0.0000000000000000E+00
   0.0000000000000000E+00
   0.0000000000000000E+00
   0.0000000000000000E+00
   0.0000000000000000E+00
   0.0000000000000000E+00
   0.0000000000000000E+00
   0.0000000000000000E+00
   0.0000000000000000E+00
   0.0000000000000000E+00
   0.0000000000000000E+00
   0.0000000000000000E+00
   0.0000000000000000E+00
   0.0000000000000000E+00
   0.0000000000000000E+00
   0.5044657150205800E+00
  -0.2399820091488532E-31
   0.5290125001528087E+00
  -0.6867451646906561E-32
   0.5144832571326380E+00
   0.1984597289209650E-34
   0.4932265007647176E+00
   0.8626232190112122E-33
   0.4881034955508896E+00
   0.5794301818332414E-32
   0.4912132665301855E+00
   0.8335231935773638E-32
   0.4932012104278251E+00
   0.6413924001782228E-32
   0.4982359621809221E+00
  -0.2868132281160987E-33
   0.4935755401502619E+00
   0.2340653841940398E-32
   0.4788817929300673E+00
  -0.6293285912486502E-32
   0.4518340488401266E+00
  -0.1447549915969866E-31
   0.4750761855236337E+00
   0.6754803910559278E-31
   0.5097784009324154E+00
  -0.4173494122822567E-33
   0.4511935386948285E+00
   0.8834227942616506E-31
   0.4980813340854469E+00
   0.2130545416020441E-32
   0.5232695275264712E+00
  -0.6433370802884359E-32
   0.4995198835923560E+00
  -0.2969828664087038E-33
   0.5239976612154411E+00
  -0.1031517266658456E-31
   0.5062462133520582E+00
   0.4343872491221808E-33
   0.5621720090251827E+00
  -0.1834014398824470E-32
   0.5246973183228277E+00
  -0.3531270788036374E-32
   0.5014415355444840E+00
   0.1648607326154019E-32
   0.5724415173333113E+00
   0.1729307974881059E-31
   0.5707004871822612E+00
  -0.1722133279609998E-33
   0.3697808153308963E+00
   0.9900898829680644E-31
   0.4030358779678725E+00
   0.6312364156160749E-31
   0.5559039170501167E+00
   0.3405790686387666E-31
   0.5550071828085928E+00
  -0.7917582384813017E-33
   0.4941866649545461E+00
   0.7228320247580919E-34
   0.4946225571905742E+00
  -0.6238583263983475E-33
   0.4922550880863538E+00
  -0.1841152186987767E-32
   0.4916952757182937E+00
  -0.9786432292471229E-33
   0.5126203612303377E+00
   0.1874927630719939E-32
   0.5320037748246914E+00
   0.3907828500831419E-32
   0.5051851732456322E+00
  -0.1095859858296429E-31
   0.4700274421487358E+00
  -0.3516568880388580E-31
   0.5096958286959505E+00
   0.1225398394822885E-32
   0.5089633499027916E+00
   0.1128473854240139E-33
   0.4955096745916858E+00
  -0.1618672431453328E-31
   0.5091189249451402E+00
  -0.3937827830127743E-31
   0.4859971782986370E+00
  -0.8336597044675258E-31
   0.5290197329768882E+00
  -0.2637264766373863E-31
   0.5276939305594615E+00
  -0.7318221916481160E-32
   0.5095384286304194E+00
  -0.1371374361140241E-32
   0.5265023575388605E+00
   0.2278391520814409E-32
   0.5255836715386258E+00
   0.4218737440113818E-32
   0.5249264246847469E+00
   0.3251773069955340E-33
   0.5039105676452602E+00
  -0.1326635098510640E-32
   0.5284460210751605E+00
  -0.1423130379027792E-31
   0.5353830987681215E+00
  -0.2419354724778115E-32
   0.5371546996037249E+00
  -0.2060571951306176E-31
   0.5324039368460884E+00
  -0.7831320099789065E-32
   0.4987533161485883E+00
  -0.9758304977792203E-33
   0.4995693380787863E+00
  -0.1057148305733492E-32
   0.4985678142302474E+00
  -0.2157786899631283E-33
   0.4978564019051819E+00
  -0.5884297804197486E-33
   0.4945363810444385E+00
   0.4912804574700233E-32
   0.4946354240510020E+00
   0.6725565432731601E-32
   0.4894932186016336E+00
   0.3881160844652183E-32
   0.4881854150420515E+00
   0.4061753262250511E-32
   0.4965709365748045E+00
   0.3341244430017282E-32
   0.4946579467483761E+00
   0.5214655020936237E-32
   0.4860622930285228E+00
   0.1567073037576300E-32
   0.4896816117976710E+00
   0.2934980022225622E-32
   0.4900401237017428E+00
   0.2933755249569055E-32
   0.4911767741675490E+00
   0.6265534203462840E-32
   0.4926166626325298E+00
   0.6828398098124446E-32
   0.4981835085191990E+00
   0.2554612887247034E-32
   0.4946289643773578E+00
   0.7026639678931854E-32
   0.4948394986064700E+00
   0.6539862844434510E-32
   0.4976378086150991E+00
   0.4018726522317095E-32
   0.4907933142963286E+00
   0.6956265809252854E-32
   0.4936012114909507E+00
   0.7223906884344834E-32
   0.4927628912594413E+00
   0.7904541949431092E-32
   0.4920514951668825E+00
   0.7189062230192087E-32
   0.4513309485675890E+00
  -0.1195032881057047E-31
   0.4773809617975470E+00
  -0.7990929541278614E-32
   0.4929577593220493E+00
  -0.7418799537653253E-33
   0.4922016431810994E+00
   0.3939015952905137E-32
   0.4645164623141607E+00
   0.1973112668594900E-31
   0.4729120395599321E+00
  -0.1900824740894953E-31
   0.4915211032744009E+00
   0.1020038871553055E-32
   0.4906741942900494E+00
   0.3157262766554497E-32
   0.4940153701893897E+00
   0.2181100617823389E-32
   0.4854929930724770E+00
   0.3888371062250638E-33
   0.4731445505284900E+00
  -0.7976432758158055E-32
   0.4017685352682989E+00
   0.1333210728979598E-31
   0.4925811127274942E+00
  -0.4403896795752443E-31
   0.4586089377571483E+00
  -0.1536202907287687E-31
   0.4595049325732020E+00
   0.5858779970205097E-32
   0.4895104444381719E+00
  -0.1612114698178162E-32
   0.4701583352956265E+00
  -0.1232581564450725E-31
   0.4742235035217152E+00
  -0.3036004465640635E-31
   0.4816343218416384E+00
  -0.3592022749465589E-32
   0.4809631439112309E+00
   0.6643907029319320E-31
   0.5081955853676999E+00
   0.5791692717044512E-33
   0.4436620421101672E+00
   0.3309808935731602E-31
   0.4960916958403689E+00
   0.1460785458257675E-32
   0.5314783349164538E+00
  -0.3715009593130547E-32
   0.4949806833029205E+00
  -0.1701260743577469E-32
   0.5219301823460017E+00
  -0.1256539424727222E-32
   0.5081293872919661E+00
   0.3276504844741686E-33
   0.5664001670756240E+00
   0.1309700842316083E-31
   0.5269142300369425E+00
   0.1660301982365899E-32
   0.5035387233875449E+00
   0.2170304525486866E-32
   0.5834535198960621E+00
   0.3540610915663475E-31
   0.5720240542939230E+00
   0.1675941670490084E-31
   0.3408859788080547E+00
   0.1056239541972761E-30
   0.3851958352890287E+00
  -0.1647388812327338E-31
   0.5717594931322028E+00
   0.5950089032458841E-31
   0.5645095790341593E+00
   0.1289590015713512E-31
   0.5689243688360098E+00
  -0.3185775621735364E-32
   0.5291696422567886E+00
  -0.7926736128354334E-32
   0.5449155772724147E+00
  -0.1260698351064981E-31
   0.5701879996527771E+00
   0.7396841358542232E-32
   0.5404097314631507E+00
  -0.2256170949344785E-31
   0.5487779046334751E+00
   0.2256841225548738E-31
   0.5790107886341093E+00
   0.3623559814955306E-31
   0.4955235725190533E+00
  -0.6419223232099270E-32
   0.5064965498852813E+00
  -0.1291749029144578E-32
   0.4994484985736774E+00
  -0.5085866622433160E-32
   0.5533092708762959E+00
   0.7510982849916541E-32
   0.4597902452495895E+00
  -0.1937567770156215E-31
   0.4983751332337637E+00
   0.3063501086660955E-32
   0.5489762939761876E+00
  -0.6232024062284844E-32
   0.5894376514067273E+00
   0.1954368492997749E-31
   0.5821700660418428E+00
   0.2856137184587731E-32
   0.5457059880224908E+00
  -0.2701619187394789E-32
   0.5785146402958729E+00
   0.1407569694252183E-32
   0.5122043911200498E+00
  -0.2202916531268055E-32
   0.5055088210310196E+00
  -0.1004805715489854E-32
   0.5048980709477839E+00
   0.2821280776223280E-33
   0.5645297506139831E+00
   0.2903605359707301E-32
   0.5552265536390193E+00
  -0.8090595390443918E-33
   0.4977583767240137E+00
   0.4727660033993989E-33
   0.5488209304649047E+00
  -0.1764487165036121E-31
   0.5486892305145074E+00