TITLE="fun3d_case_title"
VARIABLES="Iteration" "R_1" "R_2" "R_3" "R_4" "R_5" "C_L" "C_D" "C_M_x" "C_M_y" "C_M_z" "Wall Time" "C_x" "C_y" "C_z" "C_Lp" "C_Dp" "C_Lv" "C_Dv" "C_M_xp" "C_M_yp" "C_M_zp" "C_M_xv" "C_M_yv" "C_M_zv" "C_xp" "C_yp" "C_zp" "C_xv" "C_yv" "C_zv"
ZONE  I=100 F=POINT
1  0.0000000000E+00  0.0000000000E+00  0.0000000000E+00  0.0000000000E+00 -0.5535643994E-09  0.3430295384E-07  0.6954635115E-11 -0.4556863693E-10 -0.1023100170E-06  0.1009651893E-11  0.0000000000E+00  0.6954635115E-11  0.7165629453E-13  0.3430295384E-07  0.3430469680E-07  0.0000000000E+00 -0.1742967489E-11  0.6954635115E-11 -0.4502944757E-10 -0.1023119353E-06  0.0000000000E+00 -0.5391893618E-12  0.1918214723E-11  0.1009651893E-11  0.0000000000E+00  0.0000000000E+00  0.3430469680E-07  0.6954635115E-11  0.7165629453E-13 -0.1742967489E-11
2 -0.9810980666E-10 -0.1783485104E-10 -0.3094380578E-11 -0.1339553945E-11 -0.8654218167E-10  0.3970018170E-07  0.7473366141E-11  0.5510416100E-08 -0.1668836331E-06  0.6117198148E-12  0.0000000000E+00  0.7473366141E-11 -0.5770803161E-13  0.3970018170E-07  0.3970216617E-07  0.0000000000E+00 -0.1984466071E-11  0.7473366141E-11  0.5510800520E-08 -0.1668871388E-06  0.0000000000E+00 -0.3844198342E-12  0.3505737312E-11  0.6117198148E-12  0.0000000000E+00  0.0000000000E+00  0.3970216617E-07  0.7473366141E-11 -0.5770803161E-13 -0.1984466071E-11
3 -0.9845582776E-10 -0.2341413907E-10  0.2429265565E-11  0.3844304337E-10 -0.3662361610E-10  0.6802001229E-07  0.7046447067E-11 -0.2189208058E-08 -0.1764686379E-06  0.7524828634E-12  0.0000000000E+00  0.7046447067E-11  0.2047004745E-14  0.6802001229E-07  0.6802192205E-07  0.0000000000E+00 -0.1909759235E-11  0.7046447067E-11 -0.2188716249E-08 -0.1764728976E-06  0.0000000000E+00 -0.4918086821E-12  0.4259684523E-11  0.7524828634E-12  0.0000000000E+00  0.0000000000E+00  0.6802192205E-07  0.7046447067E-11  0.2047004745E-14 -0.1909759235E-11
4 -0.4431428354E-10 -0.2621448604E-10 -0.1628111034E-10 -0.1295972253E-10 -0.6391136025E-10  0.8748753200E-07  0.6588169904E-11 -0.9960077107E-08 -0.1818941864E-06  0.1139714328E-11  0.0000000000E+00  0.6588169904E-11  0.9253688463E-13  0.8748753200E-07  0.8748984994E-07  0.0000000000E+00 -0.2317937855E-11  0.6588169904E-11 -0.9959688615E-08 -0.1818990899E-06  0.0000000000E+00 -0.3884918228E-12  0.4903487582E-11  0.1139714328E-11  0.0000000000E+00  0.0000000000E+00  0.8748984994E-07  0.6588169904E-11  0.9253688463E-13 -0.2317937855E-11
5 -0.1260292717E-10 -0.1234994346E-10 -0.1343458679E-10 -0.3251417138E-10 -0.3473244858E-10  0.8921498560E-07  0.6172092517E-11 -0.1328333701E-07 -0.1771019617E-06  0.1505530175E-11  0.0000000000E+00  0.6172092517E-11  0.1844318188E-12  0.8921498560E-07  0.8921770676E-07  0.0000000000E+00 -0.2721153786E-11  0.6172092517E-11 -0.1328313701E-07 -0.1771072368E-06  0.0000000000E+00 -0.2000060546E-12  0.5275006417E-11  0.1505530175E-11  0.0000000000E+00  0.0000000000E+00  0.8921770676E-07  0.6172092517E-11  0.1844318188E-12 -0.2721153786E-11
6 -0.8161764533E-11 -0.3355395817E-11 -0.9880185194E-11 -0.2385568007E-10 -0.1573700016E-10  0.8254104391E-07  0.5888826645E-11 -0.1317309113E-07 -0.1686100819E-06  0.1772839364E-11  0.0000000000E+00  0.5888826645E-11  0.2500064934E-12  0.8254104391E-07  0.8254394329E-07  0.0000000000E+00 -0.2899388473E-11  0.5888826645E-11 -0.1317305087E-07 -0.1686154592E-06  0.0000000000E+00 -0.4026011291E-13  0.5377298231E-11  0.1772839364E-11  0.0000000000E+00  0.0000000000E+00  0.8254394329E-07  0.5888826645E-11  0.2500064934E-12 -0.2899388473E-11
7 -0.7621103545E-11 -0.2676243837E-11 -0.7889521609E-11 -0.1436645848E-10 -0.8163170972E-11  0.7530114939E-07  0.5715700438E-11 -0.1109597451E-07 -0.1597302570E-06  0.1968002367E-11  0.0000000000E+00  0.5715700438E-11  0.3044580593E-12  0.7530114939E-07  0.7530404445E-07  0.0000000000E+00 -0.2895061505E-11  0.5715700438E-11 -0.1109602492E-07 -0.1597355796E-06  0.0000000000E+00  0.5040831677E-13  0.5322630500E-11  0.1968002367E-11  0.0000000000E+00  0.0000000000E+00  0.7530404445E-07  0.5715700438E-11  0.3044580593E-12 -0.2895061505E-11
8 -0.4583198445E-11 -0.3597977904E-11 -0.5333044637E-11 -0.1018934094E-10 -0.6734832146E-11  0.7220236601E-07  0.5638167815E-11 -0.9282176691E-08 -0.1564687016E-06  0.2102811256E-11  0.0000000000E+00  0.5638167815E-11  0.3403321480E-12  0.7220236601E-07  0.7220519503E-07  0.0000000000E+00 -0.2829015612E-11  0.5638167815E-11 -0.9282249873E-08 -0.1564739427E-06  0.0000000000E+00  0.7318261214E-13  0.5241053727E-11  0.2102811256E-11  0.0000000000E+00  0.0000000000E+00  0.7220519503E-07  0.5638167815E-11  0.3403321480E-12 -0.2829015612E-11
9 -0.2246852231E-11 -0.3448157966E-11 -0.3359517689E-11 -0.1287146170E-10 -0.5740687998E-11  0.7200983269E-07  0.5611900582E-11 -0.8437702051E-08 -0.1569637479E-06  0.2199147171E-11  0.0000000000E+00  0.5611900582E-11  0.3612373785E-12  0.7200983269E-07  0.7201261351E-07  0.0000000000E+00 -0.2780813915E-11  0.5611900582E-11 -0.8437767173E-08 -0.1569689408E-06  0.0000000000E+00  0.6512208536E-13  0.5192847963E-11  0.2199147171E-11  0.0000000000E+00  0.0000000000E+00  0.7201261351E-07  0.5611900582E-11  0.3612373785E-12 -0.2780813915E-11
10 -0.1902880467E-11 -0.2980487841E-11 -0.2116322062E-11 -0.1401424535E-10 -0.5613815480E-11  0.7065230247E-07  0.5542719720E-11 -0.8451873581E-08 -0.1527563985E-06  0.2258562614E-11  0.0000000000E+00  0.5542719720E-11  0.3665149600E-12  0.7065230247E-07  0.7065509024E-07  0.0000000000E+00 -0.2787767908E-11  0.5542719720E-11 -0.8451925293E-08 -0.1527616514E-06  0.0000000000E+00  0.5171171953E-13  0.5252959570E-11  0.2258562614E-11  0.0000000000E+00  0.0000000000E+00  0.7065509024E-07  0.5542719720E-11  0.3665149600E-12 -0.2787767908E-11
11 -0.1334129485E-11 -0.2037365040E-11 -0.1353937883E-11 -0.1029520107E-10 -0.3524092745E-11  0.7189804723E-07  0.5562723936E-11 -0.8649963843E-08 -0.1556599794E-06  0.2296896463E-11  0.0000000000E+00  0.5562723936E-11  0.3682784138E-12  0.7189804723E-07  0.7190081908E-07  0.0000000000E+00 -0.2771851835E-11  0.5562723936E-11 -0.8650012971E-08 -0.1556651878E-06  0.0000000000E+00  0.4912771214E-13  0.5208431998E-11  0.2296896463E-11  0.0000000000E+00  0.0000000000E+00  0.7190081908E-07  0.5562723936E-11  0.3682784138E-12 -0.2771851835E-11
12 -0.1557110152E-11 -0.1555060121E-11 -0.8999686040E-12 -0.9974265520E-11 -0.3672454175E-11  0.7059590086E-07  0.5518560446E-11 -0.8878113626E-08 -0.1518371409E-06  0.2318120495E-11  0.0000000000E+00  0.5518560446E-11  0.3643424366E-12  0.7059590086E-07  0.7059869100E-07  0.0000000000E+00 -0.2790138403E-11  0.5518560446E-11 -0.8878162772E-08 -0.1518423987E-06  0.0000000000E+00  0.4914654009E-13  0.5257819322E-11  0.2318120495E-11  0.0000000000E+00  0.0000000000E+00  0.7059869100E-07  0.5518560446E-11  0.3643424366E-12 -0.2790138403E-11
13 -0.8786352935E-12 -0.1201449841E-11 -0.6973526084E-12 -0.5963008364E-11 -0.2387203956E-11  0.7088318533E-07  0.5528672259E-11 -0.8923853479E-08 -0.1526824713E-06  0.2331641252E-11  0.0000000000E+00  0.5528672259E-11  0.3618827708E-12  0.7088318533E-07  0.7088596737E-07  0.0000000000E+00 -0.2782036430E-11  0.5528672259E-11 -0.8923905602E-08 -0.1526876973E-06  0.0000000000E+00  0.5212313799E-13  0.5226065725E-11  0.2331641252E-11  0.0000000000E+00  0.0000000000E+00  0.7088596737E-07  0.5528672259E-11  0.3618827708E-12 -0.2782036430E-11
14 -0.7748218444E-12 -0.7269899389E-12 -0.4841174764E-12 -0.9933546562E-12 -0.1775773864E-11  0.7069493248E-07  0.5527624070E-11 -0.8903168778E-08 -0.1522464685E-06  0.2341723778E-11  0.0000000000E+00  0.5527624070E-11  0.3597950086E-12  0.7069493248E-07  0.7069771410E-07  0.0000000000E+00 -0.2781616596E-11  0.5527624070E-11 -0.8903222410E-08 -0.1522516896E-06  0.0000000000E+00  0.5363140520E-13  0.5221063857E-11  0.2341723778E-11  0.0000000000E+00  0.0000000000E+00  0.7069771410E-07  0.5527624070E-11  0.3597950086E-12 -0.2781616596E-11
15 -0.2594192757E-12 -0.5302101555E-12 -0.3705382871E-12 -0.8309547459E-12 -0.7969223583E-12  0.7057898402E-07  0.5526477469E-11 -0.8857548781E-08 -0.1519968407E-06  0.2349221165E-11  0.0000000000E+00  0.5526477469E-11  0.3583943360E-12  0.7057898402E-07  0.7058176439E-07  0.0000000000E+00 -0.2780362426E-11  0.5526477469E-11 -0.8857602753E-08 -0.1520020570E-06  0.0000000000E+00  0.5397184646E-13  0.5216253087E-11  0.2349221165E-11  0.0000000000E+00  0.0000000000E+00  0.7058176439E-07  0.5526477469E-11  0.3583943360E-12 -0.2780362426E-11
16 -0.1307177983E-12 -0.3967391376E-12 -0.2686115556E-12 -0.6734332893E-12 -0.5959258099E-12  0.7052633073E-07  0.5526176833E-11 -0.8825066888E-08 -0.1519021097E-06  0.2355077764E-11  0.0000000000E+00  0.5526176833E-11  0.3575802469E-12  0.7052633073E-07  0.7052911041E-07  0.0000000000E+00 -0.2779683328E-11  0.5526176833E-11 -0.8825120699E-08 -0.1519073234E-06  0.0000000000E+00  0.5381085221E-13  0.5213696048E-11  0.2355077764E-11  0.0000000000E+00  0.0000000000E+00  0.7052911041E-07  0.5526176833E-11  0.3575802469E-12 -0.2779683328E-11
17 -0.8686936840E-13 -0.2917838695E-12 -0.1856600343E-12 -0.5005551348E-12 -0.3776309987E-12  0.7049941855E-07  0.5526486442E-11 -0.8809141836E-08 -0.1518582588E-06  0.2359417980E-11  0.0000000000E+00  0.5526486442E-11  0.3570976411E-12  0.7049941855E-07  0.7050219796E-07  0.0000000000E+00 -0.2779407462E-11  0.5526486442E-11 -0.8809195388E-08 -0.1518634714E-06  0.0000000000E+00  0.5355123806E-13  0.5212585112E-11  0.2359417980E-11  0.0000000000E+00  0.0000000000E+00  0.7050219796E-07  0.5526486442E-11  0.3570976411E-12 -0.2779407462E-11
18 -0.5592650016E-13 -0.1956871622E-12 -0.1270198535E-12 -0.3383292553E-12 -0.2049341508E-12  0.7048126676E-07  0.5526702337E-11 -0.8804626846E-08 -0.1518175309E-06  0.2362195154E-11  0.0000000000E+00  0.5526702337E-11  0.3566826183E-12  0.7048126676E-07  0.7048404602E-07  0.0000000000E+00 -0.2779268944E-11  0.5526702337E-11 -0.8804680174E-08 -0.1518227431E-06  0.0000000000E+00  0.5332730700E-13  0.5212197689E-11  0.2362195154E-11  0.0000000000E+00  0.0000000000E+00  0.7048404602E-07  0.5526702337E-11  0.3566826183E-12 -0.2779268944E-11
19 -0.3992076465E-13 -0.1441021159E-12 -0.9063779700E-13 -0.1993084365E-12 -0.1214995734E-12  0.7048159440E-07  0.5527057456E-11 -0.8802465815E-08 -0.1518161819E-06  0.2363808696E-11  0.0000000000E+00  0.5527057456E-11  0.3563356553E-12  0.7048159440E-07  0.7048437349E-07  0.0000000000E+00 -0.2779083780E-11  0.5527057456E-11 -0.8802519016E-08 -0.1518213937E-06  0.0000000000E+00  0.5320170264E-13  0.5211805262E-11  0.2363808696E-11  0.0000000000E+00  0.0000000000E+00  0.7048437349E-07  0.5527057456E-11  0.3563356553E-12 -0.2779083780E-11
20 -0.2010435508E-13 -0.1180688659E-12 -0.6630726869E-13 -0.1198208274E-12 -0.7690244441E-13  0.7048856658E-07  0.5527259683E-11 -0.8801190078E-08 -0.1518290695E-06  0.2364563533E-11  0.0000000000E+00  0.5527259683E-11  0.3560168836E-12  0.7048856658E-07  0.7049134552E-07  0.0000000000E+00 -0.2778939142E-11  0.5527259683E-11 -0.8801243176E-08 -0.1518342811E-06  0.0000000000E+00  0.5309827442E-13  0.5211565058E-11  0.2364563533E-11  0.0000000000E+00  0.0000000000E+00  0.7049134552E-07  0.5527259683E-11  0.3560168836E-12 -0.2778939142E-11
21 -0.1432503046E-13 -0.1031535620E-12 -0.4970943631E-13 -0.7496950111E-13 -0.6526203795E-13  0.7049872088E-07  0.5527330651E-11 -0.8800065655E-08 -0.1518518085E-06  0.2364751995E-11  0.0000000000E+00  0.5527330651E-11  0.3557272462E-12  0.7049872088E-07  0.7050149970E-07  0.0000000000E+00 -0.2778821587E-11  0.5527330651E-11 -0.8800118651E-08 -0.1518570199E-06  0.0000000000E+00  0.5299632828E-13  0.5211376793E-11  0.2364751995E-11  0.0000000000E+00  0.0000000000E+00  0.7050149970E-07  0.5527330651E-11  0.3557272462E-12 -0.2778821587E-11
22 -0.1465175415E-13 -0.8836384591E-13 -0.3753634681E-13 -0.5006388156E-13 -0.6085918091E-13  0.7050971981E-07  0.5527337850E-11 -0.8799074797E-08 -0.1518796279E-06  0.2364643432E-11  0.0000000000E+00  0.5527337850E-11  0.3554845663E-12  0.7050971981E-07  0.7051249854E-07  0.0000000000E+00 -0.2778722072E-11  0.5527337850E-11 -0.8799127707E-08 -0.1518848391E-06  0.0000000000E+00  0.5290985977E-13  0.5211199654E-11  0.2364643432E-11  0.0000000000E+00  0.0000000000E+00  0.7051249854E-07  0.5527337850E-11  0.3554845663E-12 -0.2778722072E-11
23 -0.1469610499E-13 -0.7244230263E-13 -0.2839055610E-13 -0.3568408497E-13 -0.5289742657E-13  0.7051994814E-07  0.5527328599E-11 -0.8798188790E-08 -0.1519076212E-06  0.2364436731E-11  0.0000000000E+00  0.5527328599E-11  0.3553023687E-12  0.7051994814E-07  0.7052272678E-07  0.0000000000E+00 -0.2778641135E-11  0.5527328599E-11 -0.8798241643E-08 -0.1519128322E-06  0.0000000000E+00  0.5285380234E-13  0.5211045553E-11  0.2364436731E-11  0.0000000000E+00  0.0000000000E+00  0.7052272678E-07  0.5527328599E-11  0.3553023687E-12 -0.2778641135E-11
24 -0.1341181184E-13 -0.5685449502E-13 -0.2127257176E-13 -0.2715299453E-13 -0.4258601085E-13  0.7052843470E-07  0.5527318830E-11 -0.8797364178E-08 -0.1519318619E-06  0.2364248056E-11  0.0000000000E+00  0.5527318830E-11  0.3551812509E-12  0.7052843470E-07  0.7053121328E-07  0.0000000000E+00 -0.2778579502E-11  0.5527318830E-11 -0.8797417010E-08 -0.1519370728E-06  0.0000000000E+00  0.5283191358E-13  0.5210928298E-11  0.2364248056E-11  0.0000000000E+00  0.0000000000E+00  0.7053121328E-07  0.5527318830E-11  0.3551812509E-12 -0.2778579502E-11
25 -0.1135697025E-13 -0.4293526985E-13 -0.1555715902E-13 -0.2164277501E-13 -0.3242001587E-13  0.7053485310E-07  0.5527310241E-11 -0.8796547745E-08 -0.1519505017E-06  0.2364126587E-11  0.0000000000E+00  0.5527310241E-11  0.3551121410E-12  0.7053485310E-07  0.7053763164E-07  0.0000000000E+00 -0.2778536501E-11  0.5527310241E-11 -0.8796600582E-08 -0.1519557125E-06  0.0000000000E+00  0.5283672733E-13  0.5210850393E-11  0.2364126587E-11  0.0000000000E+00  0.0000000000E+00  0.7053763164E-07  0.5527310241E-11  0.3551121410E-12 -0.2778536501E-11
26 -0.9103751788E-14 -0.3129538636E-13 -0.1095126305E-13 -0.1749795434E-13 -0.2366959618E-13  0.7053932621E-07  0.5527301419E-11 -0.8795760920E-08 -0.1519634688E-06  0.2364077995E-11  0.0000000000E+00  0.5527301419E-11  0.3550811880E-12  0.7053932621E-07  0.7054210471E-07  0.0000000000E+00 -0.2778507980E-11  0.5527301419E-11 -0.8795813777E-08 -0.1519686796E-06  0.0000000000E+00  0.5285659533E-13  0.5210800316E-11  0.2364077995E-11  0.0000000000E+00  0.0000000000E+00  0.7054210471E-07  0.5527301419E-11  0.3550811880E-12 -0.2778507980E-11
27 -0.6946338756E-14 -0.2203813810E-13 -0.7387521169E-14 -0.1392721742E-13 -0.1661596514E-13  0.7054225076E-07  0.5527292959E-11 -0.8795060415E-08 -0.1519718403E-06  0.2364085403E-11  0.0000000000E+00  0.5527292959E-11  0.3550742110E-12  0.7054225076E-07  0.7054502924E-07  0.0000000000E+00 -0.2778488818E-11  0.5527292959E-11 -0.8795113297E-08 -0.1519770511E-06  0.0000000000E+00  0.5288113835E-13  0.5210764098E-11  0.2364085403E-11  0.0000000000E+00  0.0000000000E+00  0.7054502924E-07  0.5527292959E-11  0.3550742110E-12 -0.2778488818E-11
28 -0.5073554116E-14 -0.1501781845E-13 -0.4805337520E-14 -0.1071538238E-13 -0.1120656789E-13  0.7054409168E-07  0.5527286588E-11 -0.8794496105E-08 -0.1519770257E-06  0.2364125127E-11  0.0000000000E+00  0.5527286588E-11  0.3550794860E-12  0.7054409168E-07  0.7054687015E-07  0.0000000000E+00 -0.2778474922E-11  0.5527286588E-11 -0.8794549008E-08 -0.1519822364E-06  0.0000000000E+00  0.5290381677E-13  0.5210732599E-11  0.2364125127E-11  0.0000000000E+00  0.0000000000E+00  0.7054687015E-07  0.5527286588E-11  0.3550794860E-12 -0.2778474922E-11
29 -0.3560864530E-14 -0.9940885327E-14 -0.3069973067E-14 -0.7909578776E-14 -0.7262922859E-14  0.7054524819E-07  0.5527283510E-11 -0.8794082661E-08 -0.1519802444E-06  0.2364176316E-11  0.0000000000E+00  0.5527283510E-11  0.3550889556E-12  0.7054524819E-07  0.7054802666E-07  0.0000000000E+00 -0.2778464084E-11  0.5527283510E-11 -0.8794135583E-08 -0.1519854551E-06  0.0000000000E+00  0.5292176836E-13  0.5210703197E-11  0.2364176316E-11  0.0000000000E+00  0.0000000000E+00  0.7054802666E-07  0.5527283510E-11  0.3550889556E-12 -0.2778464084E-11
30 -0.2416318912E-14 -0.6441181499E-14 -0.1981617618E-14 -0.5604922376E-14 -0.4556622083E-14  0.7054599702E-07  0.5527283564E-11 -0.8793803944E-08 -0.1519823203E-06  0.2364225007E-11  0.0000000000E+00  0.5527283564E-11  0.3550980807E-12  0.7054599702E-07  0.7054877548E-07  0.0000000000E+00 -0.2778455503E-11  0.5527283564E-11 -0.8793856878E-08 -0.1519875309E-06  0.0000000000E+00  0.5293459162E-13  0.5210677034E-11  0.2364225007E-11  0.0000000000E+00  0.0000000000E+00  0.7054877548E-07  0.5527283564E-11  0.3550980807E-12 -0.2778455503E-11
31 -0.1597464129E-14 -0.4134968990E-14 -0.1331904092E-14 -0.3837758226E-14 -0.2820115971E-14  0.7054650333E-07  0.5527285616E-11 -0.8793627937E-08 -0.1519837250E-06  0.2364264334E-11  0.0000000000E+00  0.5527285616E-11  0.3551049895E-12  0.7054650333E-07  0.7054928178E-07  0.0000000000E+00 -0.2778448972E-11  0.5527285616E-11 -0.8793680880E-08 -0.1519889357E-06  0.0000000000E+00  0.5294308444E-13  0.5210655874E-11  0.2364264334E-11  0.0000000000E+00  0.0000000000E+00  0.7054928178E-07  0.5527285616E-11  0.3551049895E-12 -0.2778448972E-11
32 -0.1040436952E-14 -0.2675429984E-14 -0.9506856288E-15 -0.2571660817E-14 -0.1779067416E-14  0.7054685452E-07  0.5527288308E-11 -0.8793521853E-08 -0.1519846986E-06  0.2364292634E-11  0.0000000000E+00  0.5527288308E-11  0.3551094178E-12  0.7054685452E-07  0.7054963297E-07  0.0000000000E+00 -0.2778444341E-11  0.5527288308E-11 -0.8793574802E-08 -0.1519899093E-06  0.0000000000E+00  0.5294838020E-13  0.5210640462E-11  0.2364292634E-11  0.0000000000E+00  0.0000000000E+00  0.7054963297E-07  0.5527288308E-11  0.3551094178E-12 -0.2778444341E-11
33 -0.6749320249E-15 -0.1783345812E-14 -0.7221433152E-15 -0.1720860334E-14 -0.1188120182E-14  0.7054709674E-07  0.5527290662E-11 -0.8793459447E-08 -0.1519853665E-06  0.2364311213E-11  0.0000000000E+00  0.5527290662E-11  0.3551118531E-12  0.7054709674E-07  0.7054987518E-07  0.0000000000E+00 -0.2778441298E-11  0.5527290662E-11 -0.8793512398E-08 -0.1519905771E-06  0.0000000000E+00  0.5295152258E-13  0.5210630253E-11  0.2364311213E-11  0.0000000000E+00  0.0000000000E+00  0.7054987518E-07  0.5527290662E-11  0.3551118531E-12 -0.2778441298E-11
34 -0.4388566609E-15 -0.1252665442E-14 -0.5758699259E-15 -0.1177392582E-14 -0.8578067431E-15  0.7054725832E-07  0.5527292260E-11 -0.8793422768E-08 -0.1519858085E-06  0.2364322525E-11  0.0000000000E+00  0.5527292260E-11  0.3551129736E-12  0.7054725832E-07  0.7055003676E-07  0.0000000000E+00 -0.2778439423E-11  0.5527292260E-11 -0.8793475721E-08 -0.1519910191E-06  0.0000000000E+00  0.5295331572E-13  0.5210623961E-11  0.2364322525E-11  0.0000000000E+00  0.0000000000E+00  0.7055003676E-07  0.5527292260E-11  0.3551129736E-12 -0.2778439423E-11
35 -0.2855897243E-15 -0.9407214204E-15 -0.4713532376E-15 -0.8336192666E-15 -0.6646043328E-15  0.7054736075E-07  0.5527293121E-11 -0.8793400718E-08 -0.1519860873E-06  0.2364329026E-11  0.0000000000E+00  0.5527293121E-11  0.3551133649E-12  0.7054736075E-07  0.7055013919E-07  0.0000000000E+00 -0.2778438311E-11  0.5527293121E-11 -0.8793453672E-08 -0.1519912979E-06  0.0000000000E+00  0.5295431398E-13  0.5210620220E-11  0.2364329026E-11  0.0000000000E+00  0.0000000000E+00  0.7055013919E-07  0.5527293121E-11  0.3551133649E-12 -0.2778438311E-11
36 -0.1847004532E-15 -0.7526820683E-15 -0.3872573253E-15 -0.6054317052E-15 -0.5388436958E-15  0.7054742181E-07  0.5527293465E-11 -0.8793386896E-08 -0.1519862545E-06  0.2364332655E-11  0.0000000000E+00  0.5527293465E-11  0.3551134277E-12  0.7054742181E-07  0.7055020024E-07  0.0000000000E+00 -0.2778437651E-11  0.5527293465E-11 -0.8793439851E-08 -0.1519914651E-06  0.0000000000E+00  0.5295486827E-13  0.5210617973E-11  0.2364332655E-11  0.0000000000E+00  0.0000000000E+00  0.7055020024E-07  0.5527293465E-11  0.3551134277E-12 -0.2778437651E-11
37 -0.1178412413E-15 -0.6280205108E-15 -0.3144690009E-15 -0.4427864012E-15 -0.4451688190E-15  0.7054745559E-07  0.5527293532E-11 -0.8793377768E-08 -0.1519863493E-06  0.2364334721E-11  0.0000000000E+00  0.5527293532E-11  0.3551133885E-12  0.7054745559E-07  0.7055023403E-07  0.0000000000E+00 -0.2778437248E-11  0.5527293532E-11 -0.8793430723E-08 -0.1519915599E-06  0.0000000000E+00  0.5295518435E-13  0.5210616562E-11  0.2364334721E-11  0.0000000000E+00  0.0000000000E+00  0.7055023403E-07  0.5527293532E-11  0.3551133885E-12 -0.2778437248E-11
38 -0.7397866580E-16 -0.5311819924E-15 -0.2505480176E-15 -0.3216956043E-15 -0.3670301382E-15  0.7054747241E-07  0.5527293484E-11 -0.8793371444E-08 -0.1519863994E-06  0.2364336001E-11  0.0000000000E+00  0.5527293484E-11  0.3551133496E-12  0.7054747241E-07  0.7055025085E-07  0.0000000000E+00 -0.2778436995E-11  0.5527293484E-11 -0.8793424400E-08 -0.1519916100E-06  0.0000000000E+00  0.5295537449E-13  0.5210615641E-11  0.2364336001E-11  0.0000000000E+00  0.0000000000E+00  0.7055025085E-07  0.5527293484E-11  0.3551133496E-12 -0.2778436995E-11
39 -0.4593887465E-16 -0.4450198429E-15 -0.1955729052E-15 -0.2309361449E-15 -0.2979049601E-15  0.7054747914E-07  0.5527293405E-11 -0.8793366922E-08 -0.1519864222E-06  0.2364336900E-11  0.0000000000E+00  0.5527293405E-11  0.3551133413E-12  0.7054747914E-07  0.7055025758E-07  0.0000000000E+00 -0.2778436839E-11  0.5527293405E-11 -0.8793419878E-08 -0.1519916328E-06  0.0000000000E+00  0.5295549617E-13  0.5210615042E-11  0.2364336900E-11  0.0000000000E+00  0.0000000000E+00  0.7055025758E-07  0.5527293405E-11  0.3551133413E-12 -0.2778436839E-11
40 -0.2865068448E-16 -0.3645249419E-15 -0.1498078644E-15 -0.1637034184E-15 -0.2363982559E-15  0.7054748014E-07  0.5527293321E-11 -0.8793363657E-08 -0.1519864287E-06  0.2364337605E-11  0.0000000000E+00  0.5527293321E-11  0.3551133610E-12  0.7054748014E-07  0.7055025858E-07  0.0000000000E+00 -0.2778436750E-11  0.5527293321E-11 -0.8793416612E-08 -0.1519916394E-06  0.0000000000E+00  0.5295557780E-13  0.5210614672E-11  0.2364337605E-11  0.0000000000E+00  0.0000000000E+00  0.7055025858E-07  0.5527293321E-11  0.3551133610E-12 -0.2778436750E-11
41 -0.1840492559E-16 -0.2906565938E-15 -0.1128929953E-15 -0.1146291888E-15 -0.1830870672E-15  0.7054747808E-07  0.5527293236E-11 -0.8793361318E-08 -0.1519864260E-06  0.2364338189E-11  0.0000000000E+00  0.5527293236E-11  0.3551133961E-12  0.7054747808E-07  0.7055025652E-07  0.0000000000E+00 -0.2778436706E-11  0.5527293236E-11 -0.8793414273E-08 -0.1519916366E-06  0.0000000000E+00  0.5295563379E-13  0.5210614465E-11  0.2364338189E-11  0.0000000000E+00  0.0000000000E+00  0.7055025652E-07  0.5527293236E-11  0.3551133961E-12 -0.2778436706E-11
42 -0.1254149482E-16 -0.2257305315E-15 -0.8387881619E-16 -0.7928921594E-16 -0.1385976178E-15  0.7054747463E-07  0.5527293150E-11 -0.8793359674E-08 -0.1519864186E-06  0.2364338676E-11  0.0000000000E+00  0.5527293150E-11  0.3551134352E-12  0.7054747463E-07  0.7055025306E-07  0.0000000000E+00 -0.2778436691E-11  0.5527293150E-11 -0.8793412630E-08 -0.1519916292E-06  0.0000000000E+00  0.5295567240E-13  0.5210614364E-11  0.2364338676E-11  0.0000000000E+00  0.0000000000E+00  0.7055025306E-07  0.5527293150E-11  0.3551134352E-12 -0.2778436691E-11
43 -0.9224755091E-17 -0.1711836902E-15 -0.6153124520E-16 -0.5419729065E-16 -0.1028343844E-15  0.7054747082E-07  0.5527293066E-11 -0.8793358542E-08 -0.1519864095E-06  0.2364339079E-11  0.0000000000E+00  0.5527293066E-11  0.3551134714E-12  0.7054747082E-07  0.7055024926E-07  0.0000000000E+00 -0.2778436690E-11  0.5527293066E-11 -0.8793411498E-08 -0.1519916201E-06  0.0000000000E+00  0.5295569911E-13  0.5210614324E-11  0.2364339079E-11  0.0000000000E+00  0.0000000000E+00  0.7055024926E-07  0.5527293066E-11  0.3551134714E-12 -0.2778436690E-11
44 -0.7252583963E-17 -0.1271195932E-15 -0.4459581284E-16 -0.3667128881E-16 -0.7498303215E-16  0.7054746727E-07  0.5527292990E-11 -0.8793357772E-08 -0.1519864008E-06  0.2364339405E-11  0.0000000000E+00  0.5527292990E-11  0.3551135016E-12  0.7054746727E-07  0.7055024571E-07  0.0000000000E+00 -0.2778436694E-11  0.5527292990E-11 -0.8793410728E-08 -0.1519916114E-06  0.0000000000E+00  0.5295571787E-13  0.5210614312E-11  0.2364339405E-11  0.0000000000E+00  0.0000000000E+00  0.7055024571E-07  0.5527292990E-11  0.3551135016E-12 -0.2778436694E-11
45 -0.5903949300E-17 -0.9265533002E-16 -0.3194204976E-16 -0.2464002779E-16 -0.5382582315E-16  0.7054746427E-07  0.5527292925E-11 -0.8793357247E-08 -0.1519863933E-06  0.2364339663E-11  0.0000000000E+00  0.5527292925E-11  0.3551135252E-12  0.7054746427E-07  0.7055024271E-07  0.0000000000E+00 -0.2778436699E-11  0.5527292925E-11 -0.8793410203E-08 -0.1519916039E-06  0.0000000000E+00  0.5295573143E-13  0.5210614312E-11  0.2364339663E-11  0.0000000000E+00  0.0000000000E+00  0.7055024271E-07  0.5527292925E-11  0.3551135252E-12 -0.2778436699E-11
46 -0.4812203418E-17 -0.6640752614E-16 -0.2261267659E-16 -0.1650098554E-16 -0.3806180498E-16  0.7054746192E-07  0.5527292874E-11 -0.8793356879E-08 -0.1519863875E-06  0.2364339865E-11  0.0000000000E+00  0.5527292874E-11  0.3551135429E-12  0.7054746192E-07  0.7055024035E-07  0.0000000000E+00 -0.2778436704E-11  0.5527292874E-11 -0.8793409835E-08 -0.1519915981E-06  0.0000000000E+00  0.5295574161E-13  0.5210614314E-11  0.2364339865E-11  0.0000000000E+00  0.0000000000E+00  0.7055024035E-07  0.5527292874E-11  0.3551135429E-12 -0.2778436704E-11
47 -0.3840876075E-17 -0.4686248623E-16 -0.1582401107E-16 -0.1104067310E-16 -0.2650600910E-16  0.7054746016E-07  0.5527292836E-11 -0.8793356613E-08 -0.1519863832E-06  0.2364340018E-11  0.0000000000E+00  0.5527292836E-11  0.3551135556E-12  0.7054746016E-07  0.7055023859E-07  0.0000000000E+00 -0.2778436706E-11  0.5527292836E-11 -0.8793409569E-08 -0.1519915939E-06  0.0000000000E+00  0.5295574947E-13  0.5210614318E-11  0.2364340018E-11  0.0000000000E+00  0.0000000000E+00  0.7055023859E-07  0.5527292836E-11  0.3551135556E-12 -0.2778436706E-11
48 -0.2971351979E-17 -0.3259356126E-16 -0.1094853223E-16 -0.7380355812E-17 -0.1816790525E-16  0.7054745889E-07  0.5527292808E-11 -0.8793356412E-08 -0.1519863802E-06  0.2364340133E-11  0.0000000000E+00  0.5527292808E-11  0.3551135645E-12  0.7054745889E-07  0.7055023733E-07  0.0000000000E+00 -0.2778436708E-11  0.5527292808E-11 -0.8793409367E-08 -0.1519915908E-06  0.0000000000E+00  0.5295575562E-13  0.5210614321E-11  0.2364340133E-11  0.0000000000E+00  0.0000000000E+00  0.7055023733E-07  0.5527292808E-11  0.3551135645E-12 -0.2778436708E-11
49 -0.2223055246E-17 -0.2236214270E-16 -0.7492857481E-17 -0.4917270527E-17 -0.1225360717E-16  0.7054745800E-07  0.5527292788E-11 -0.8793356255E-08 -0.1519863781E-06  0.2364340218E-11  0.0000000000E+00  0.5527292788E-11  0.3551135704E-12  0.7054745800E-07  0.7055023644E-07  0.0000000000E+00 -0.2778436710E-11  0.5527292788E-11 -0.8793409211E-08 -0.1519915887E-06  0.0000000000E+00  0.5295576041E-13  0.5210614325E-11  0.2364340218E-11  0.0000000000E+00  0.0000000000E+00  0.7055023644E-07  0.5527292788E-11  0.3551135704E-12 -0.2778436710E-11
50 -0.1612030658E-17 -0.1514733817E-16 -0.5075532245E-17 -0.3255520483E-17 -0.8137151968E-17  0.7054745738E-07  0.5527292775E-11 -0.8793356131E-08 -0.1519863766E-06  0.2364340279E-11  0.0000000000E+00  0.5527292775E-11  0.3551135741E-12  0.7054745738E-07  0.7055023582E-07  0.0000000000E+00 -0.2778436711E-11  0.5527292775E-11 -0.8793409087E-08 -0.1519915873E-06  0.0000000000E+00  0.5295576406E-13  0.5210614329E-11  0.2364340279E-11  0.0000000000E+00  0.0000000000E+00  0.7055023582E-07  0.5527292775E-11  0.3551135741E-12 -0.2778436711E-11
51 -0.1137951321E-17 -0.1013840966E-16 -0.3406330829E-17 -0.2138370397E-17 -0.5328636162E-17  0.7054745695E-07  0.5527292765E-11 -0.8793356034E-08 -0.1519863756E-06  0.2364340321E-11  0.0000000000E+00  0.5527292765E-11  0.3551135763E-12  0.7054745695E-07  0.7055023539E-07  0.0000000000E+00 -0.2778436712E-11  0.5527292765E-11 -0.8793408990E-08 -0.1519915863E-06  0.0000000000E+00  0.5295576680E-13  0.5210614333E-11  0.2364340321E-11  0.0000000000E+00  0.0000000000E+00  0.7055023539E-07  0.5527292765E-11  0.3551135763E-12 -0.2778436712E-11
52 -0.7860042517E-18 -0.6710663263E-17 -0.2267951844E-17 -0.1395361974E-17 -0.3449244839E-17  0.7054745666E-07  0.5527292758E-11 -0.8793355958E-08 -0.1519863750E-06  0.2364340351E-11  0.0000000000E+00  0.5527292758E-11  0.3551135775E-12  0.7054745666E-07  0.7055023509E-07  0.0000000000E+00 -0.2778436712E-11  0.5527292758E-11 -0.8793408914E-08 -0.1519915856E-06  0.0000000000E+00  0.5295576882E-13  0.5210614335E-11  0.2364340351E-11  0.0000000000E+00  0.0000000000E+00  0.7055023509E-07  0.5527292758E-11  0.3551135775E-12 -0.2778436712E-11
53 -0.5337480265E-18 -0.4395609472E-17 -0.1500414748E-17 -0.9085107049E-18 -0.2212859447E-17  0.7054745646E-07  0.5527292754E-11 -0.8793355900E-08 -0.1519863745E-06  0.2364340371E-11  0.0000000000E+00  0.5527292754E-11  0.3551135781E-12  0.7054745646E-07  0.7055023489E-07  0.0000000000E+00 -0.2778436713E-11  0.5527292754E-11 -0.8793408855E-08 -0.1519915851E-06  0.0000000000E+00  0.5295577028E-13  0.5210614337E-11  0.2364340371E-11  0.0000000000E+00  0.0000000000E+00  0.7055023489E-07  0.5527292754E-11  0.3551135781E-12 -0.2778436713E-11
54 -0.3575702040E-18 -0.2850625896E-17 -0.9880282098E-18 -0.5937460855E-18 -0.1410441445E-17  0.7054745632E-07  0.5527292751E-11 -0.8793355856E-08 -0.1519863742E-06  0.2364340385E-11  0.0000000000E+00  0.5527292751E-11  0.3551135783E-12  0.7054745632E-07  0.7055023476E-07  0.0000000000E+00 -0.2778436713E-11  0.5527292751E-11 -0.8793408811E-08 -0.1519915848E-06  0.0000000000E+00  0.5295577135E-13  0.5210614339E-11  0.2364340385E-11  0.0000000000E+00  0.0000000000E+00  0.7055023476E-07  0.5527292751E-11  0.3551135783E-12 -0.2778436713E-11