title="tecplot geometry and solution file"
variables = x y z rho u v w p mach temperature
zone t="boundary 1 bc-1", solutiontime= 0.4000000E+02, strandid=1001, i=32, j=46, f=feblock
  0.397918975219E-18  0.397918975219E-18  0.397918975219E-18  0.397918975219E-18  0.397918975219E-18  0.397918975219E-18  0.397918975219E-18
  0.397918975219E-18  0.397918975219E-18  0.397918975219E-18  0.397918975219E-18  0.397918975219E-18  0.397918975219E-18  0.397918975219E-18
  0.397918975219E-18  0.397918975219E-18  0.397918975219E-18  0.397918975219E-18  0.397918975219E-18  0.397918975219E-18  0.397918975219E-18
  0.397918975219E-18  0.397918975219E-18  0.397918975219E-18  0.397918975219E-18  0.397918975219E-18  0.397918975219E-18  0.397918975219E-18
  0.397918975219E-18  0.397918975219E-18  0.397918975219E-18  0.397918975219E-18
  0.250000000000E+01  0.250000000000E+01  0.125000000000E+01  0.146289271009E+01  0.157686156160E+01  0.308372018325E+00  0.397918975219E-18
 -0.125000000000E+01 -0.600232012419E+00  0.250000000000E+01  0.477386199275E+00  0.742988685424E+00 -0.739814786992E+00  0.177790177481E+01
  0.155830813274E+01  0.250000000000E+01 -0.250000000000E+01 -0.154800130438E+01 -0.487811078581E+00  0.250000000000E+01  0.627766083140E+00
 -0.345533899378E+00 -0.178862290564E+01 -0.158811787973E+01  0.125000000000E+01 -0.250000000000E+01 -0.144524380962E+01  0.397918975219E-18
 -0.125000000000E+01 -0.250000000000E+01 -0.250000000000E+01 -0.250000000000E+01
  0.397918975219E-18  0.125000000000E+01  0.397918975219E-18  0.103724302461E+01  0.219251206392E+01  0.922061490191E+00  0.397918975219E-18
  0.397918975219E-18  0.715990576545E+00  0.250000000000E+01  0.202479342020E+01  0.324151231464E+01  0.175434191980E+01  0.310152362409E+01
  0.404200324774E+01  0.375000000000E+01  0.397918975219E-18  0.930412228790E+00  0.299062775774E+01  0.500000000000E+01  0.429310310915E+01
  0.409252726285E+01  0.187029682677E+01  0.284428995242E+01  0.500000000000E+01  0.125000000000E+01  0.394624082883E+01  0.500000000000E+01
  0.500000000000E+01  0.250000000000E+01  0.375000000000E+01  0.500000000000E+01
  0.134427145370E+01  0.106355395286E+01  0.142583204996E+01  0.108608796618E+01  0.103229115025E+01  0.120095364485E+01  0.164466727549E+01
  0.149409064168E+01  0.123520366958E+01  0.102389313740E+01  0.102809523361E+01  0.101301828582E+01  0.103252946723E+01  0.101471891390E+01
  0.100663883733E+01  0.100830818663E+01  0.144945745473E+01  0.116393551745E+01  0.101462863653E+01  0.100426040733E+01  0.100679807575E+01
  0.100724553377E+01  0.104668118760E+01  0.101938460440E+01  0.100424800547E+01  0.106442281118E+01  0.100789341667E+01  0.100288844245E+01
  0.100334542190E+01  0.102847361808E+01  0.100958665603E+01  0.100399273867E+01
  0.000000000000E+00  0.445481419839E+00  0.000000000000E+00  0.468737854260E+00  0.462182267207E+00  0.443613739805E+00  0.000000000000E+00
  0.000000000000E+00  0.379272523953E+00  0.471738848721E+00  0.466574961204E+00  0.479355161058E+00  0.490159648365E+00  0.484514726134E+00
  0.488524773349E+00  0.489830199977E+00  0.000000000000E+00  0.450653321742E+00  0.474814036984E+00  0.495784876023E+00  0.490899460176E+00
  0.486835364448E+00  0.448668672883E+00  0.465807186539E+00  0.496536483216E+00  0.444686633616E+00  0.487701037086E+00  0.497534086418E+00
  0.496384260294E+00  0.470002882689E+00  0.489199908076E+00  0.495522029649E+00
  0.000000000000E+00  0.000000000000E+00  0.000000000000E+00  0.186085527968E-01 -0.276688292301E-02  0.332952467898E-01  0.000000000000E+00
  0.000000000000E+00 -0.594701795759E-02  0.000000000000E+00  0.356648594899E-02 -0.566637990838E-02 -0.416060356101E-02  0.305534865727E-04
 -0.106176516650E-02  0.000000000000E+00  0.000000000000E+00 -0.764112756962E-02  0.359619710536E-03  0.000000000000E+00 -0.203512851301E-02
 -0.138313244301E-02  0.156561561626E-02 -0.158521317001E-02 -0.638395979756E-04  0.000000000000E+00 -0.283451027001E-04 -0.196341516539E-03
  0.807127123628E-03  0.000000000000E+00  0.000000000000E+00  0.000000000000E+00
  0.000000000000E+00  0.452181799131E-01  0.000000000000E+00  0.123933294124E+00  0.247647190256E-01  0.165644512170E+00  0.000000000000E+00
  0.000000000000E+00  0.155763097107E+00  0.351822662881E-02  0.259783163945E-01 -0.651224840674E-02  0.748997897496E-01  0.371839407111E-02
 -0.149291994858E-03  0.459058874647E-03  0.000000000000E+00  0.140954083886E+00 -0.808565727586E-02  0.237176899507E-02 -0.304298807597E-03
 -0.438193698554E-02  0.255017506511E-01 -0.194957187050E-02  0.308362262934E-02  0.837461354653E-01 -0.121909286707E-02  0.268513924247E-02
  0.264043137356E-02  0.279386969683E-02 -0.834665064788E-03  0.345018559818E-02
  0.960184576842E+00  0.782340561786E+00  0.101844205163E+01  0.808726656039E+00  0.746125889984E+00  0.879446499201E+00  0.117475225630E+01
  0.106719924293E+01  0.916620146591E+00  0.737395237838E+00  0.743553970456E+00  0.725759209686E+00  0.757455248987E+00  0.729188341567E+00
  0.720785046109E+00  0.722781669380E+00  0.103531921805E+01  0.858317140269E+00  0.728065070205E+00  0.718615291890E+00  0.721013448214E+00
  0.721151586954E+00  0.760018783805E+00  0.732628400432E+00  0.718531161388E+00  0.791043236411E+00  0.722107947386E+00  0.717199386625E+00
  0.717636872676E+00  0.741799734072E+00  0.724056578546E+00  0.718400640140E+00
  0.000000000000E+00  0.441238352674E+00  0.000000000000E+00  0.475214984453E+00  0.460123711683E+00  0.468827816640E+00  0.000000000000E+00
  0.000000000000E+00  0.402302518074E+00  0.469814973991E+00  0.464411136710E+00  0.478714037916E+00  0.489298237581E+00  0.483068560160E+00
  0.487930062852E+00  0.488961665932E+00  0.000000000000E+00  0.464775736828E+00  0.473795659335E+00  0.495346580478E+00  0.490266092670E+00
  0.486286080251E+00  0.445717621980E+00  0.464382286357E+00  0.496127396292E+00  0.443624080872E+00  0.486964453611E+00  0.497246275717E+00
  0.496059266495E+00  0.467732360405E+00  0.488212090046E+00  0.495098267465E+00
  0.999990295028E+00  0.102982719735E+01  0.999990757903E+00  0.104247294299E+01  0.101190080505E+01  0.102520618024E+01  0.999991416700E+00
  0.999992168096E+00  0.103891223515E+01  0.100826277202E+01  0.101252833844E+01  0.100300548153E+01  0.102702865365E+01  0.100605563197E+01
  0.100244400190E+01  0.100355660159E+01  0.999992721792E+00  0.103239739518E+01  0.100459523966E+01  0.100179336087E+01  0.100260305597E+01
  0.100234966340E+01  0.101657153098E+01  0.100617544760E+01  0.100168844794E+01  0.104043291758E+01  0.100303376291E+01  0.100118726946E+01
  0.100134171126E+01  0.100976788266E+01  0.100405369257E+01  0.100176112582E+01
        12        19        11        11
        11         5        12        12
        10        14         5         5
        19        13        11        11
        19        24        13        13
        30        23        24        24
        19        12        22        22
        28        22        21        21
        11        13         6         6
         7         6         9         9
        15        12        14        14
        18        13        23        23
        15        25        21        21
        27        19        22        22
        18         8         9         9
        27        31        24        24
         4        11         6         6
         5        14        12        12
         4         2         5         5
        21        12        15        15
        14        16        15        15
        24        19        27        27
        22        29        27        27
        23        26        18        18
        17         8        18        18
         5        11         4         4
         6         3         4         4
        26        23        30        30
         5         2        10        10
        16        14        10        10
         3         6         7         7
        21        25        28        28
        29        22        28        28
         6        13         9         9
         2         4         1         1
        31        27        32        32
        25        15        20        20
        24        23        13        13
         8         7         9         9
        13        18         9         9
        31        30        24        24
        12        21        22        22
        29        32        27        27
         3         1         4         4
        26        17        18        18
        16        20        15        15
zone t="boundary 2 bc-2", solutiontime= 0.4000000E+02, strandid=1002, i=33, j=48, f=feblock
  0.500000000000E+01  0.375000000000E+01  0.250000000000E+01  0.288078410721E+01  0.125000000000E+01  0.190974100652E+01  0.326683758169E+01
  0.201431602454E+01  0.397918975219E-18  0.963108083381E+00  0.500000000000E+01  0.403552511878E+01  0.423153924130E+01  0.500000000000E+01
  0.385533350601E+01  0.500000000000E+01  0.398173246726E+01  0.315249557942E+01  0.267000324704E+01  0.154774304040E+01  0.218329375016E+01
  0.893127759452E+00  0.397918975219E-18  0.698517061619E+00  0.964171764089E+00  0.310324758057E+01  0.397918975219E-18  0.397918975219E-18
  0.125000000000E+01  0.500000000000E+01  0.375000000000E+01  0.250000000000E+01  0.397918975219E-18
 -0.250000000000E+01 -0.250000000000E+01 -0.250000000000E+01 -0.250000000000E+01 -0.250000000000E+01 -0.250000000000E+01 -0.250000000000E+01
 -0.250000000000E+01 -0.250000000000E+01 -0.250000000000E+01 -0.250000000000E+01 -0.250000000000E+01 -0.250000000000E+01 -0.250000000000E+01
 -0.250000000000E+01 -0.250000000000E+01 -0.250000000000E+01 -0.250000000000E+01 -0.250000000000E+01 -0.250000000000E+01 -0.250000000000E+01
 -0.250000000000E+01 -0.250000000000E+01 -0.250000000000E+01 -0.250000000000E+01 -0.250000000000E+01 -0.250000000000E+01 -0.250000000000E+01
 -0.250000000000E+01 -0.250000000000E+01 -0.250000000000E+01 -0.250000000000E+01 -0.250000000000E+01
  0.397918975219E-18  0.397918975219E-18  0.397918975219E-18  0.904659890645E+00  0.397918975219E-18  0.717002441913E+00  0.188609243358E+01
  0.176246431481E+01  0.397918975219E-18  0.961328577125E+00  0.125000000000E+01  0.101201586758E+01  0.191586535653E+01  0.250000000000E+01
  0.293121848150E+01  0.375000000000E+01  0.406975391361E+01  0.363585050272E+01  0.285047954584E+01  0.292817774674E+01  0.395907379566E+01
  0.205246550326E+01  0.125000000000E+01  0.306828197606E+01  0.397245519226E+01  0.433168271247E+01  0.250000000000E+01  0.375000000000E+01
  0.500000000000E+01  0.500000000000E+01  0.500000000000E+01  0.500000000000E+01  0.500000000000E+01
  0.830787409775E+00  0.935297261470E+00  0.934221979847E+00  0.968087715141E+00  0.961719526660E+00  0.964848339600E+00  0.984136205643E+00
  0.991412447325E+00  0.144945745473E+01  0.102921689103E+01  0.955878716676E+00  0.960692948964E+00  0.981487966372E+00  0.100642908931E+01
  0.997912114808E+00  0.100977868829E+01  0.100199484822E+01  0.998063219135E+00  0.991085841081E+00  0.100132719299E+01  0.100094599998E+01
  0.101224609749E+01  0.106442281118E+01  0.101082189992E+01  0.100685257813E+01  0.100118412845E+01  0.102847361808E+01  0.100958665603E+01
  0.100510171190E+01  0.100179475090E+01  0.100266311902E+01  0.100321164493E+01  0.100399273867E+01
  0.000000000000E+00  0.000000000000E+00  0.000000000000E+00  0.378986938422E+00  0.000000000000E+00  0.340639446235E+00  0.582179008053E+00
  0.575195822422E+00  0.000000000000E+00  0.489449422069E+00  0.494741307630E+00  0.431507394111E+00  0.568961809479E+00  0.536179840940E+00
  0.568879734225E+00  0.516235691474E+00  0.508555819169E+00  0.527399314342E+00  0.566648556786E+00  0.531828935095E+00  0.506096475813E+00
  0.520701996863E+00  0.444686633616E+00  0.491339928694E+00  0.492734940063E+00  0.501504526332E+00  0.470002882689E+00  0.489199908076E+00
  0.490458154804E+00  0.491426965690E+00  0.486218274359E+00  0.490304429849E+00  0.495522029649E+00
  0.000000000000E+00  0.000000000000E+00  0.000000000000E+00  0.000000000000E+00  0.000000000000E+00  0.000000000000E+00  0.000000000000E+00
  0.000000000000E+00  0.000000000000E+00  0.000000000000E+00  0.000000000000E+00  0.000000000000E+00  0.000000000000E+00  0.000000000000E+00
  0.000000000000E+00  0.000000000000E+00  0.000000000000E+00  0.000000000000E+00  0.000000000000E+00  0.000000000000E+00  0.000000000000E+00
  0.000000000000E+00  0.000000000000E+00  0.000000000000E+00  0.000000000000E+00  0.000000000000E+00  0.000000000000E+00  0.000000000000E+00
  0.000000000000E+00  0.000000000000E+00  0.000000000000E+00  0.000000000000E+00  0.000000000000E+00
  0.000000000000E+00  0.000000000000E+00  0.000000000000E+00 -0.229668915930E-02  0.000000000000E+00  0.183565264715E-01  0.121122200499E-01
  0.454986557055E-01  0.000000000000E+00  0.870789632477E-01 -0.995426032558E-01 -0.211865033794E-01 -0.306441330080E-01 -0.414442966218E-01
 -0.137879721947E-02  0.259922309560E-02  0.609521080070E-03  0.503605314798E-03  0.150967390782E-01  0.284025713876E-01  0.564165153885E-02
  0.553419853619E-01  0.837461354653E-01  0.110441034459E-01  0.679168613758E-02 -0.758101968669E-03  0.279386969683E-02 -0.834665064788E-03
  0.400707439478E-02  0.602725413728E-02 -0.143896388608E-03  0.120117132183E-02  0.345018559818E-02
  0.593415713694E+00  0.668065256998E+00  0.667297105488E+00  0.684257572380E+00  0.686937804750E+00  0.679201333694E+00  0.695811644901E+00
  0.702343850655E+00  0.103531921805E+01  0.723694675150E+00  0.672591699978E+00  0.675702735512E+00  0.694093187891E+00  0.720959953206E+00
  0.712691285999E+00  0.724770860592E+00  0.716580556680E+00  0.713298978015E+00  0.706429554008E+00  0.717737236869E+00  0.715376597523E+00
  0.730937672771E+00  0.791043236411E+00  0.724372845328E+00  0.721010715999E+00  0.715457525854E+00  0.741799734072E+00  0.724056578546E+00
  0.719312937028E+00  0.715892793449E+00  0.716608872494E+00  0.717367929103E+00  0.718400640140E+00
  0.000000000000E+00  0.000000000000E+00  0.000000000000E+00  0.380991904377E+00  0.000000000000E+00  0.343629828948E+00  0.585286158476E+00
  0.579373267182E+00  0.000000000000E+00  0.501056069406E+00  0.508460334000E+00  0.435373040452E+00  0.572640026555E+00  0.537002107506E+00
  0.568922544361E+00  0.514994098780E+00  0.508247389270E+00  0.527252886111E+00  0.567446670892E+00  0.531657156228E+00  0.505981032624E+00
  0.520795577634E+00  0.443624080872E+00  0.490663739824E+00  0.492155878349E+00  0.501390828346E+00  0.467732360405E+00  0.488212090046E+00
  0.490002738116E+00  0.491352316904E+00  0.486075474301E+00  0.490036474001E+00  0.495098267465E+00
  0.999993487379E+00  0.999993690057E+00  0.999993543115E+00  0.989539053486E+00  0.999993137282E+00  0.985524696623E+00  0.989838903676E+00
  0.991798512890E+00  0.999992721792E+00  0.984411112991E+00  0.985091898734E+00  0.984689052560E+00  0.990058458526E+00  0.100289622509E+01
  0.999855383648E+00  0.100485305998E+01  0.100121550638E+01  0.100055642776E+01  0.997896786148E+00  0.100350029306E+01  0.100058068722E+01
  0.101093276074E+01  0.104043291758E+01  0.100326475271E+01  0.100254498457E+01  0.100045586794E+01  0.100976788266E+01  0.100405369257E+01
  0.100192657113E+01  0.100045434449E+01  0.100058773726E+01  0.100109992325E+01  0.100176112582E+01
        15         7        19        19
         8        20        19        19
        18        19        21        21
         7         4         8         8
         3         6         4         4
        19         7         8         8
        19        18        15        15
        14        13        15        15
         8        22        20        20
        27        24        22        22
        19        20        21        21
        32        26        21        21
        17        18        26        26
        17        16        15        15
        25        29        21        21
        12         7        13        13
        10         8         6         6
        25        20        24        24
         4         6         8         8
        12         2         4         4
        10        23        22        22
        26        31        17        17
        30        16        17        17
         4         7        12        12
        13        11        12        12
        21        20        25        25
        24        28        25        25
        22         8        10        10
         6         5        10        10
        31        26        32        32
         4         2         3         3
         5         6         3         3
        11        13        14        14
        22        23        27        27
        28        24        27        27
        15        13         7         7
         2        12         1         1
        29        25        33        33
        23        10         9         9
        21        26        18        18
        16        14        15        15
        18        17        15        15
        29        32        21        21
        22        24        20        20
        28        33        25        25
        11         1        12        12
        31        30        17        17
         5         9        10        10
zone t="boundary 3 bc-3", solutiontime= 0.4000000E+02, strandid=1003, i=33, j=48, f=feblock
  0.375000000000E+01  0.250000000000E+01  0.500000000000E+01  0.403552511878E+01  0.288078410721E+01  0.125000000000E+01  0.190974100652E+01
  0.500000000000E+01  0.326683758169E+01  0.423153924130E+01  0.201431602454E+01  0.397918975219E-18  0.963108083381E+00  0.500000000000E+01
  0.267000324704E+01  0.385533350601E+01  0.893127759452E+00  0.154774304040E+01  0.397918975219E-18  0.500000000000E+01  0.315249557942E+01
  0.218329375016E+01  0.398173246726E+01  0.397918975219E-18  0.698517061619E+00  0.964171764089E+00  0.125000000000E+01  0.397918975219E-18
  0.500000000000E+01  0.310324758057E+01  0.250000000000E+01  0.375000000000E+01  0.397918975219E-18
  0.250000000000E+01  0.250000000000E+01  0.250000000000E+01  0.250000000000E+01  0.250000000000E+01  0.250000000000E+01  0.250000000000E+01
  0.250000000000E+01  0.250000000000E+01  0.250000000000E+01  0.250000000000E+01  0.250000000000E+01  0.250000000000E+01  0.250000000000E+01
  0.250000000000E+01  0.250000000000E+01  0.250000000000E+01  0.250000000000E+01  0.250000000000E+01  0.250000000000E+01  0.250000000000E+01
  0.250000000000E+01  0.250000000000E+01  0.250000000000E+01  0.250000000000E+01  0.250000000000E+01  0.250000000000E+01  0.250000000000E+01
  0.250000000000E+01  0.250000000000E+01  0.250000000000E+01  0.250000000000E+01  0.250000000000E+01
  0.397918975219E-18  0.397918975219E-18  0.397918975219E-18  0.101201586758E+01  0.904659890645E+00  0.397918975219E-18  0.717002441913E+00
  0.125000000000E+01  0.188609243358E+01  0.191586535653E+01  0.176246431481E+01  0.397918975219E-18  0.961328577125E+00  0.250000000000E+01
  0.285047954584E+01  0.293121848150E+01  0.205246550326E+01  0.292817774674E+01  0.125000000000E+01  0.375000000000E+01  0.363585050272E+01
  0.395907379566E+01  0.406975391361E+01  0.250000000000E+01  0.306828197606E+01  0.397245519226E+01  0.500000000000E+01  0.375000000000E+01
  0.500000000000E+01  0.433168271247E+01  0.500000000000E+01  0.500000000000E+01  0.500000000000E+01
  0.941861281429E+00  0.946296414717E+00  0.843730533130E+00  0.964331301515E+00  0.978820820646E+00  0.956975889111E+00  0.983331397126E+00
  0.963500547020E+00  0.982689288953E+00  0.984244007374E+00  0.990263805486E+00  0.134427145370E+01  0.101918251643E+01  0.100829901689E+01
  0.993456152186E+00  0.997998675057E+00  0.100807808283E+01  0.100072116080E+01  0.106355395286E+01  0.100673528644E+01  0.100058356040E+01
  0.100234980427E+01  0.100178078387E+01  0.102389313740E+01  0.100874208211E+01  0.100528370725E+01  0.100522859505E+01  0.100830818663E+01
  0.100196466896E+01  0.100162011139E+01  0.100413203164E+01  0.100321958515E+01  0.100426040733E+01
  0.000000000000E+00  0.000000000000E+00  0.000000000000E+00  0.439071219117E+00  0.399865796362E+00  0.000000000000E+00  0.373794139404E+00
  0.495017408572E+00  0.573056194243E+00  0.569605084627E+00  0.559932666913E+00  0.000000000000E+00  0.483390703056E+00  0.533822151593E+00
  0.556458768845E+00  0.564688347758E+00  0.522615499086E+00  0.522533043506E+00  0.445481419839E+00  0.518326868983E+00  0.524750893819E+00
  0.503888155742E+00  0.509839691024E+00  0.471738848721E+00  0.496245460518E+00  0.494940392969E+00  0.489076365183E+00  0.489830199977E+00
  0.493065117390E+00  0.499146578282E+00  0.486766687056E+00  0.484758134207E+00  0.495784876023E+00
  0.000000000000E+00  0.000000000000E+00  0.000000000000E+00  0.000000000000E+00  0.000000000000E+00  0.000000000000E+00  0.000000000000E+00
  0.000000000000E+00  0.000000000000E+00  0.000000000000E+00  0.000000000000E+00  0.000000000000E+00  0.000000000000E+00  0.000000000000E+00
  0.000000000000E+00  0.000000000000E+00  0.000000000000E+00  0.000000000000E+00  0.000000000000E+00  0.000000000000E+00  0.000000000000E+00
  0.000000000000E+00  0.000000000000E+00  0.000000000000E+00  0.000000000000E+00  0.000000000000E+00  0.000000000000E+00  0.000000000000E+00
  0.000000000000E+00  0.000000000000E+00  0.000000000000E+00  0.000000000000E+00  0.000000000000E+00
  0.000000000000E+00  0.000000000000E+00  0.000000000000E+00 -0.226115388528E-01  0.111963783618E-01  0.000000000000E+00  0.179816812736E-01
 -0.100761165893E+00  0.390410975860E-02 -0.389325097384E-01  0.340377349791E-01  0.000000000000E+00  0.652293811648E-01 -0.424929260707E-01
  0.843880717962E-02 -0.650992499105E-02  0.490054864955E-01  0.135873402931E-01  0.452181799131E-01  0.737188028916E-03 -0.701209255945E-03
  0.243744187572E-02  0.868952935049E-03  0.351822662881E-02  0.103945233139E-01  0.431655192153E-02  0.337507105970E-02  0.459058874647E-03
  0.572581293861E-02  0.341134919222E-03  0.160978884496E-02  0.569844413725E-03  0.237176899507E-02
  0.672750886185E+00  0.675918851620E+00  0.602658414993E+00  0.676093764396E+00  0.691308917348E+00  0.683547252809E+00  0.690066484420E+00
  0.677274957649E+00  0.695201830687E+00  0.696250880136E+00  0.703344069846E+00  0.960184576842E+00  0.719726359289E+00  0.722866634598E+00
  0.709447754675E+00  0.713700947759E+00  0.726067413277E+00  0.716602920265E+00  0.782340561786E+00  0.722284526572E+00  0.716128633848E+00
  0.716551643271E+00  0.716546536969E+00  0.737395237838E+00  0.722682909559E+00  0.719441261486E+00  0.719566087729E+00  0.722781669380E+00
  0.716030233849E+00  0.715847819628E+00  0.718146761444E+00  0.717062457517E+00  0.718615291890E+00
  0.000000000000E+00  0.000000000000E+00  0.000000000000E+00  0.443767766405E+00  0.402286945871E+00  0.000000000000E+00  0.377550362185E+00
  0.509231871103E+00  0.575832177384E+00  0.573707384696E+00  0.562554069240E+00  0.000000000000E+00  0.490563299041E+00  0.534527112713E+00
  0.556586988771E+00  0.564391561260E+00  0.522730520349E+00  0.522052007459E+00  0.441238352674E+00  0.517182276790E+00  0.524228609887E+00
  0.503687438431E+00  0.509488520187E+00  0.469814973991E+00  0.495614448370E+00  0.494483777197E+00  0.488562435853E+00  0.488961665932E+00
  0.492980868949E+00  0.499005516416E+00  0.486460983167E+00  0.484597194878E+00  0.495346580478E+00
  0.999989339439E+00  0.999989408764E+00  0.999989626853E+00  0.981541580851E+00  0.988773904144E+00  0.999989827144E+00  0.982469471646E+00
  0.984104205899E+00  0.990427568411E+00  0.990355262402E+00  0.994363009461E+00  0.999990295028E+00  0.988652068456E+00  0.100368370045E+01
  0.999769194000E+00  0.100118502342E+01  0.100834885303E+01  0.100252110945E+01  0.102982719735E+01  0.100443319194E+01  0.100199536258E+01
  0.100082056814E+01  0.100138190701E+01  0.100826277202E+01  0.100298787106E+01  0.100192389354E+01  0.100215267232E+01  0.100355660159E+01
  0.100047672183E+01  0.100056591923E+01  0.100126819416E+01  0.100066571206E+01  0.100179336087E+01
        15         9        16        16
        15        18        11        11
        22        15        21        21
        11         5         9         9
         5         7         2         2
        11         9        15        15
        16        21        15        15
        16        10        14        14
        18        17        11        11
        17        25        24        24
        22        18        15        15
        22        30        31        31
        30        21        23        23
        16        20        23        23
        22        27        26        26
        10         9         4         4
         7        11        13        13
        25        18        26        26
        11         7         5         5
         5         1         4         4
        17        19        13        13
        23        32        30        30
        23        20        29        29
         4         9         5         5
         4         8        10        10
        26        18        22        22
        26        28        25        25
        13        11        17        17
        13         6         7         7
        31        30        32        32
         2         1         5         5
         2         7         6         6
        14        10         8         8
        24        19        17        17
        24        25        28        28
         9        10        16        16
         3         4         1         1
        33        26        27        27
        12        13        19        19
        21        30        22        22
        16        14        20        20
        16        23        21        21
        22        31        27        27
        18        25        17        17
        26        33        28        28
         4         3         8         8
        23        29        32        32
        13        12         6         6
zone t="boundary 4 bc-4", solutiontime= 0.4000000E+02, strandid=1004, i=32, j=46, f=feblock
  0.125000000000E+01  0.219251206392E+01  0.103724302461E+01  0.500000000000E+01  0.250000000000E+01  0.375000000000E+01  0.404200324774E+01
  0.500000000000E+01  0.397918975219E-18  0.310152362409E+01  0.202479342020E+01  0.324151231464E+01  0.922061490191E+00  0.397918975219E-18
  0.299062775774E+01  0.394624082883E+01  0.500000000000E+01  0.409252726285E+01  0.500000000000E+01  0.429310310915E+01  0.175434191980E+01
  0.284428995242E+01  0.397918975219E-18  0.397918975219E-18  0.715990576545E+00  0.930412228790E+00  0.125000000000E+01  0.187029682677E+01
  0.500000000000E+01  0.375000000000E+01  0.250000000000E+01  0.397918975219E-18
  0.250000000000E+01  0.157686156160E+01  0.146289271009E+01  0.250000000000E+01  0.250000000000E+01  0.250000000000E+01  0.155830813274E+01
  0.125000000000E+01  0.250000000000E+01  0.177790177481E+01  0.477386199275E+00  0.742988685424E+00  0.308372018325E+00  0.125000000000E+01
 -0.487811078581E+00 -0.144524380962E+01 -0.125000000000E+01 -0.345533899378E+00  0.397918975219E-18  0.627766083140E+00 -0.739814786992E+00
 -0.158811787973E+01  0.397918975219E-18 -0.125000000000E+01 -0.600232012419E+00 -0.154800130438E+01 -0.250000000000E+01 -0.178862290564E+01
 -0.250000000000E+01 -0.250000000000E+01 -0.250000000000E+01 -0.250000000000E+01
  0.500000000000E+01  0.500000000000E+01  0.500000000000E+01  0.500000000000E+01  0.500000000000E+01  0.500000000000E+01  0.500000000000E+01
  0.500000000000E+01  0.500000000000E+01  0.500000000000E+01  0.500000000000E+01  0.500000000000E+01  0.500000000000E+01  0.500000000000E+01
  0.500000000000E+01  0.500000000000E+01  0.500000000000E+01  0.500000000000E+01  0.500000000000E+01  0.500000000000E+01  0.500000000000E+01
  0.500000000000E+01  0.500000000000E+01  0.500000000000E+01  0.500000000000E+01  0.500000000000E+01  0.500000000000E+01  0.500000000000E+01
  0.500000000000E+01  0.500000000000E+01  0.500000000000E+01  0.500000000000E+01
  0.100522859505E+01  0.100432970623E+01  0.100432033570E+01  0.100196466896E+01  0.100413203164E+01  0.100321958515E+01  0.100258621575E+01
  0.100201176947E+01  0.100426040733E+01  0.100372311454E+01  0.100446501488E+01  0.100346948565E+01  0.100365984160E+01  0.100424800547E+01
  0.100362337164E+01  0.100164187649E+01  0.100227629283E+01  0.100227307824E+01  0.100213446103E+01  0.100254342942E+01  0.100442384609E+01
  0.100337262222E+01  0.100288844245E+01  0.100334542190E+01  0.100323222671E+01  0.100406087334E+01  0.100510171190E+01  0.100431306261E+01
  0.100179475090E+01  0.100266311902E+01  0.100321164493E+01  0.100399273867E+01
  0.489076365183E+00  0.489238645511E+00  0.490983350676E+00  0.493065117390E+00  0.486766687056E+00  0.484758134207E+00  0.485405273930E+00
  0.494262909369E+00  0.495784876023E+00  0.486800373315E+00  0.488139374445E+00  0.487244732690E+00  0.494423309696E+00  0.496536483216E+00
  0.487845849020E+00  0.483219501303E+00  0.492573615378E+00  0.487262430963E+00  0.494866055980E+00  0.488012747630E+00  0.490096725286E+00
  0.488269663881E+00  0.497534086418E+00  0.496384260294E+00  0.495259765748E+00  0.493216444539E+00  0.490458154804E+00  0.490399993773E+00
  0.491426965690E+00  0.486218274359E+00  0.490304429849E+00  0.495522029649E+00
  0.000000000000E+00 -0.893844071166E-04 -0.129754350322E-02  0.000000000000E+00  0.000000000000E+00  0.000000000000E+00  0.425650478447E-03
  0.796987649086E-03  0.000000000000E+00  0.274721883783E-03 -0.942409159073E-03 -0.819935571802E-03 -0.174524228879E-02 -0.638395979756E-04
 -0.110015121114E-02 -0.102270858626E-02 -0.133249459790E-02 -0.213420495871E-02 -0.132921259116E-02 -0.106395897487E-02 -0.624383273727E-03
 -0.761653759794E-03 -0.196341516539E-03  0.807127123628E-03  0.520228343425E-04  0.161631425437E-02  0.000000000000E+00  0.791664147039E-03
  0.000000000000E+00  0.000000000000E+00  0.000000000000E+00  0.000000000000E+00