# vtk DataFile Version 2.0
FUN3D:global_image_vtk
ASCII
DATASET UNSTRUCTURED_GRID
POINTS 213 double
    0.3979189752191195E-18    0.0000000000000000E+00    0.2500000000000000E+01
    0.0000000000000000E+00    0.3979189752191195E-18    0.0000000000000000E+00
    0.1250000000000000E+01    0.0000000000000000E+00    0.2500000000000000E+01
    0.0000000000000000E+00    0.3979189752191195E-18    0.0000000000000000E+00
    0.2500000000000000E+01    0.0000000000000000E+00    0.2500000000000000E+01
    0.0000000000000000E+00    0.3979189752191195E-18    0.0000000000000000E+00
    0.3750000000000000E+01    0.0000000000000000E+00    0.2500000000000000E+01
    0.0000000000000000E+00    0.3979189752191195E-18    0.0000000000000000E+00
    0.5000000000000000E+01    0.0000000000000000E+00    0.2500000000000000E+01
    0.0000000000000000E+00    0.3979189752191195E-18    0.0000000000000000E+00
    0.5000000000000000E+01    0.0000000000000000E+00    0.1250000000000000E+01
    0.0000000000000000E+00    0.3979189752191195E-18    0.0000000000000000E+00
    0.5000000000000000E+01    0.0000000000000000E+00    0.3979189752191195E-18
    0.0000000000000000E+00    0.3979189752191195E-18    0.0000000000000000E+00
    0.5000000000000000E+01    0.0000000000000000E+00   -0.1250000000000000E+01
    0.0000000000000000E+00    0.3979189752191195E-18    0.0000000000000000E+00
    0.5000000000000000E+01    0.0000000000000000E+00   -0.2500000000000000E+01
    0.0000000000000000E+00    0.3979189752191195E-18    0.0000000000000000E+00
    0.3750000000000000E+01    0.0000000000000000E+00   -0.2500000000000000E+01
    0.0000000000000000E+00    0.3979189752191195E-18    0.0000000000000000E+00
    0.2500000000000000E+01    0.0000000000000000E+00   -0.2500000000000000E+01
    0.0000000000000000E+00    0.3979189752191195E-18    0.0000000000000000E+00
    0.1250000000000000E+01    0.0000000000000000E+00   -0.2500000000000000E+01
    0.0000000000000000E+00    0.3979189752191195E-18    0.0000000000000000E+00
    0.3979189752191195E-18    0.0000000000000000E+00   -0.2500000000000000E+01
    0.0000000000000000E+00    0.3979189752191195E-18    0.0000000000000000E+00
    0.3979189752191195E-18    0.0000000000000000E+00   -0.1250000000000000E+01
    0.0000000000000000E+00    0.3979189752191195E-18    0.0000000000000000E+00
    0.3979189752191195E-18    0.0000000000000000E+00    0.3979189752191195E-18
    0.0000000000000000E+00    0.3979189752191195E-18    0.0000000000000000E+00
    0.3979189752191195E-18    0.0000000000000000E+00    0.1250000000000000E+01
    0.0000000000000000E+00    0.3979189752191195E-18    0.0000000000000000E+00
    0.9058375365086910E+00    0.0000000000000000E+00    0.1578994732800803E+01
    0.0000000000000000E+00    0.3979189752191195E-18    0.0000000000000000E+00
    0.3982050490726493E+01    0.0000000000000000E+00   -0.1583989954232354E+01
    0.0000000000000000E+00    0.3979189752191195E-18    0.0000000000000000E+00
    0.4033849428301197E+01    0.0000000000000000E+00    0.1453322699199022E+01
    0.0000000000000000E+00    0.3979189752191195E-18    0.0000000000000000E+00
    0.1040505887381675E+01    0.0000000000000000E+00   -0.1479596339503735E+01
    0.0000000000000000E+00    0.3979189752191195E-18    0.0000000000000000E+00
    0.1099454400140349E+01    0.0000000000000000E+00   -0.3227322616384110E+00
    0.0000000000000000E+00    0.3979189752191195E-18    0.0000000000000000E+00
    0.7354504170366591E+00    0.0000000000000000E+00    0.6593508822075582E+00
    0.0000000000000000E+00    0.3979189752191195E-18    0.0000000000000000E+00
    0.1622302608453282E+01    0.0000000000000000E+00    0.8256214013940779E+00
    0.0000000000000000E+00    0.3979189752191195E-18    0.0000000000000000E+00
    0.2145871574390382E+01    0.0000000000000000E+00   -0.1650070333782557E+01
    0.0000000000000000E+00    0.3979189752191195E-18    0.0000000000000000E+00
    0.4086422318222992E+01    0.0000000000000000E+00   -0.4612828702537229E+00
    0.0000000000000000E+00    0.3979189752191195E-18    0.0000000000000000E+00
    0.2979540174134984E+01    0.0000000000000000E+00   -0.8579242121530853E+00
    0.0000000000000000E+00    0.3979189752191195E-18    0.0000000000000000E+00
    0.3045064261640043E+01    0.0000000000000000E+00   -0.1836846154397680E+01
    0.0000000000000000E+00    0.3979189752191195E-18    0.0000000000000000E+00
    0.3428197553792836E+01    0.0000000000000000E+00    0.3508002863614053E+00
    0.0000000000000000E+00    0.3979189752191195E-18    0.0000000000000000E+00
    0.4309693860063405E+01    0.0000000000000000E+00    0.5185680230613409E+00
    0.0000000000000000E+00    0.3979189752191195E-18    0.0000000000000000E+00
    0.1827272193562204E+01    0.0000000000000000E+00    0.1738996113203182E+01
    0.0000000000000000E+00    0.3979189752191195E-18    0.0000000000000000E+00
    0.2808563282768077E+01    0.0000000000000000E+00    0.1325493893339706E+01
    0.0000000000000000E+00    0.3979189752191195E-18    0.0000000000000000E+00
    0.1895995683864404E+01    0.0000000000000000E+00   -0.8731419609589618E+00
    0.0000000000000000E+00    0.3979189752191195E-18    0.0000000000000000E+00
    0.2273179336307740E+01    0.0000000000000000E+00    0.4906150219227333E-01
    0.0000000000000000E+00    0.3979189752191195E-18    0.0000000000000000E+00
    0.5000000000000000E+01    0.0000000000000000E+00    0.2500000000000000E+01
    0.0000000000000000E+00    0.1250000000000000E+01    0.0000000000000000E+00
    0.5000000000000000E+01    0.0000000000000000E+00    0.2500000000000000E+01
    0.0000000000000000E+00    0.2500000000000000E+01    0.0000000000000000E+00
    0.5000000000000000E+01    0.0000000000000000E+00    0.2500000000000000E+01
    0.0000000000000000E+00    0.3750000000000000E+01    0.0000000000000000E+00
    0.5000000000000000E+01    0.0000000000000000E+00    0.2500000000000000E+01
    0.0000000000000000E+00    0.5000000000000000E+01    0.0000000000000000E+00
    0.3750000000000000E+01    0.0000000000000000E+00    0.2500000000000000E+01
    0.0000000000000000E+00    0.5000000000000000E+01    0.0000000000000000E+00
    0.2500000000000000E+01    0.0000000000000000E+00    0.2500000000000000E+01
    0.0000000000000000E+00    0.5000000000000000E+01    0.0000000000000000E+00
    0.1250000000000000E+01    0.0000000000000000E+00    0.2500000000000000E+01
    0.0000000000000000E+00    0.5000000000000000E+01    0.0000000000000000E+00
    0.3979189752191195E-18    0.0000000000000000E+00    0.2500000000000000E+01
    0.0000000000000000E+00    0.5000000000000000E+01    0.0000000000000000E+00
    0.3979189752191195E-18    0.0000000000000000E+00    0.2500000000000000E+01
    0.0000000000000000E+00    0.3750000000000000E+01    0.0000000000000000E+00
    0.3979189752191195E-18    0.0000000000000000E+00    0.2500000000000000E+01
    0.0000000000000000E+00    0.2500000000000000E+01    0.0000000000000000E+00
    0.3979189752191195E-18    0.0000000000000000E+00    0.2500000000000000E+01
    0.0000000000000000E+00    0.1250000000000000E+01    0.0000000000000000E+00
    0.9631080833812172E+00    0.0000000000000000E+00    0.2500000000000000E+01
    0.0000000000000000E+00    0.9613285771248219E+00    0.0000000000000000E+00
    0.3981732467264904E+01    0.0000000000000000E+00    0.2500000000000000E+01
    0.0000000000000000E+00    0.4069753913607991E+01    0.0000000000000000E+00
    0.4035525118777670E+01    0.0000000000000000E+00    0.2500000000000000E+01
    0.0000000000000000E+00    0.1012015867579395E+01    0.0000000000000000E+00
    0.9641717640894248E+00    0.0000000000000000E+00    0.2500000000000000E+01
    0.0000000000000000E+00    0.3972455192261839E+01    0.0000000000000000E+00
    0.1547743040396780E+01    0.0000000000000000E+00    0.2500000000000000E+01
    0.0000000000000000E+00    0.2928177746738678E+01    0.0000000000000000E+00
    0.6985170616192014E+00    0.0000000000000000E+00    0.2500000000000000E+01
    0.0000000000000000E+00    0.3068281976055466E+01    0.0000000000000000E+00
    0.8931277594515110E+00    0.0000000000000000E+00    0.2500000000000000E+01
    0.0000000000000000E+00    0.2052465503257726E+01    0.0000000000000000E+00
    0.2183293750162785E+01    0.0000000000000000E+00    0.2500000000000000E+01
    0.0000000000000000E+00    0.3959073795658649E+01    0.0000000000000000E+00
    0.3855333506014705E+01    0.0000000000000000E+00    0.2500000000000000E+01
    0.0000000000000000E+00    0.2931218481500625E+01    0.0000000000000000E+00
    0.3152495579421047E+01    0.0000000000000000E+00    0.2500000000000000E+01
    0.0000000000000000E+00    0.3635850502723324E+01    0.0000000000000000E+00
    0.3103247580566054E+01    0.0000000000000000E+00    0.2500000000000000E+01
    0.0000000000000000E+00    0.4331682712472464E+01    0.0000000000000000E+00
    0.3266837581688852E+01    0.0000000000000000E+00    0.2500000000000000E+01
    0.0000000000000000E+00    0.1886092433583972E+01    0.0000000000000000E+00
    0.4231539241296245E+01    0.0000000000000000E+00    0.2500000000000000E+01
    0.0000000000000000E+00    0.1915865356532799E+01    0.0000000000000000E+00
    0.1909741006522088E+01    0.0000000000000000E+00    0.2500000000000000E+01
    0.0000000000000000E+00    0.7170024419130505E+00    0.0000000000000000E+00
    0.2880784107213163E+01    0.0000000000000000E+00    0.2500000000000000E+01
    0.0000000000000000E+00    0.9046598906449592E+00    0.0000000000000000E+00
    0.2014316024535771E+01    0.0000000000000000E+00    0.2500000000000000E+01
    0.0000000000000000E+00    0.1762464314805728E+01    0.0000000000000000E+00
    0.2670003247036656E+01    0.0000000000000000E+00    0.2500000000000000E+01
    0.0000000000000000E+00    0.2850479545835163E+01    0.0000000000000000E+00
    0.5000000000000000E+01    0.0000000000000000E+00    0.1250000000000000E+01
    0.0000000000000000E+00    0.5000000000000000E+01    0.0000000000000000E+00
    0.5000000000000000E+01    0.0000000000000000E+00    0.3979189752191195E-18
[...]
POINT_DATA 213
SCALARS rho double 1
LOOKUP_TABLE default
   0.1344271453695419E+01
  -0.4945910284725793E-08
   0.9569758891109604E+00
  -0.6674754973063328E-09
   0.9462964147173314E+00
  -0.1434376112868383E-08
   0.9418612814285157E+00
  -0.2613535939900040E-08
   0.8437305331304333E+00
  -0.2281955711378157E-08
   0.7738004375929245E+00
  -0.2223947612385815E-08
   0.7629818872467994E+00
  -0.2395057707789726E-08
   0.7664577756306534E+00
  -0.4101398305187456E-08
   0.8307874097753463E+00
  -0.4496495262227276E-08
   0.9352972614698594E+00
  -0.1263565083580055E-08
   0.9342219798466622E+00
  -0.1310398218271730E-08
   0.9617195266600981E+00
  -0.1922816663026973E-08
   0.1449457454725197E+01
  -0.2864822476554411E-08
   0.1494090641681085E+01
  -0.6306198879781815E-08
   0.1644667275490643E+01
  -0.7545002670183964E-08
   0.1425832049963753E+01
  -0.5418677617925458E-08
   0.1009014433280164E+01
  -0.1239269230135162E-08
   0.9508810859085849E+00
  -0.1018712249520115E-08
   0.9436508665236721E+00
  -0.8878881667338187E-09
   0.9581561043537913E+00
   0.1230641741551898E-09
   0.9415852449244267E+00
   0.3546950939673444E-10
   0.1036377239564306E+01
  -0.9193178266170741E-09
   0.9256161090165649E+00
  -0.2362439972676827E-09
   0.9322349861286647E+00
  -0.1799974825054482E-08
   0.9537479562364746E+00
  -0.2840285127325967E-08
   0.9518769621297030E+00
  -0.1713227713341648E-08
   0.9348583141338457E+00
  -0.2284237793111768E-08
   0.9564028497031404E+00
  -0.1202145582613520E-08
   0.9376098401910079E+00
  -0.1480836775217188E-08
   0.9300661501087177E+00
  -0.1463765363181559E-08
   0.9445157501748996E+00
  -0.5110855383242666E-09
   0.8863506512316199E+00
   0.3608913799415680E-09
   0.9423580001387171E+00
  -0.1843465992446602E-08
   0.9635005470198169E+00
  -0.6068825376915460E-09
   0.1008299016892052E+01
  -0.6253344345115616E-10
   0.1006735286442600E+01
   0.4583409736207195E-11
   0.1001964668960680E+01
  -0.6375955260245619E-10
   0.1003219585148110E+01
  -0.1068275452882495E-09
   0.1004132031644901E+01
  -0.1240609541980088E-09
   0.1005228595053033E+01
  -0.1119465996179379E-09
   0.1004260407331812E+01
  -0.8549086182161531E-10
   0.1008308186634381E+01
  -0.1378722782468645E-09
   0.1023893137401105E+01
  -0.2877219136887480E-09
   0.1063553952858309E+01
  -0.2129698769295765E-09
   0.1019182516432388E+01
  -0.5964232560737317E-09
   0.1001780783869640E+01
  -0.6421948414461346E-10
   0.9643313015153782E+00
  -0.8132474600989023E-09
   0.1005283707246404E+01
  -0.1275246021845291E-09
   0.1000721160796233E+01
  -0.8507048824333749E-10
   0.1008742082112227E+01
  -0.1666487710604704E-09
   0.1008078082833179E+01
  -0.1016435418706833E-09
   0.1002349804265263E+01
  -0.1142780271528855E-09
   0.9979986750568370E+00
  -0.3037782850057212E-10
   0.1000583560395239E+01
  -0.6365691701260084E-10
   0.1001620111394595E+01
  -0.1048594197111417E-09
   0.9826892889534298E+00
  -0.2286227757422363E-09
   0.9842440073738459E+00
  -0.2577795253401848E-09
   0.9833313971255856E+00
  -0.7100498188296673E-09
   0.9788208206455419E+00
  -0.7740786875708164E-09
   0.9902638054864534E+00
  -0.1623194589931572E-09
   0.9934561521858235E+00
  -0.4980192261501320E-10
   0.1002011769467158E+01
  -0.5894486256832280E-10
   0.1002134461031289E+01
  -0.5625393359686974E-10
   0.1002276292827803E+01
  -0.5732041073556958E-10
   0.1001794750901635E+01
  -0.6533253226806780E-10
   0.1009778688293081E+01
  -0.1516813186362483E-10
   0.1006429089312021E+01
   0.9502653976690438E-11
   0.9558787166758214E+00
  -0.3814314256878939E-09
   0.9249399103036025E+00
  -0.7810251894445457E-09
   0.1007036788051533E+01
  -0.1606789822658640E-10
   0.1004504965694331E+01
  -0.1830064180701701E-10
   0.9143642157442970E+00
  -0.6069406873212730E-09
   0.9089668069462792E+00
  -0.6701261699191277E-09
   0.8751688728051927E+00
  -0.8701201289416688E-09
   0.9767271637528173E+00
  -0.2498446325518333E-09
   0.1000452605083489E+01
  -0.1367226502645448E-10
   0.1005831127438680E+01
  -0.1120228842320869E-10
   0.1012882793190905E+01
   0.5747013468884610E-10
   0.1011618941732437E+01
   0.2238454433313429E-10
   0.1010438666626481E+01
   0.4406416194920955E-10
   0.1005468345078679E+01
  -0.2063476566971047E-10
   0.9907612587667545E+00
  -0.2640708589898451E-09
   0.1005140303678882E+01
  -0.4900613582115445E-11
   0.9860567192809988E+00
  -0.3377311700085032E-10
   0.1005609722112433E+01
   0.2559275219894514E-10
   0.1004248005466402E+01
  -0.8671841934029214E-10
   0.1002888442454080E+01
  -0.7812883644108751E-10
   0.1003345421895425E+01
  -0.8056823742401415E-10
   0.1003992738665284E+01
  -0.8194652121099294E-10
   0.1005101711898803E+01
  -0.1154868514354428E-09
   0.1003211644928533E+01
  -0.1160774274913975E-09
   0.1002663119015922E+01
  -0.9341747179421522E-10
   0.1002586215748033E+01
  -0.1041370387788079E-09
   0.1004060873336020E+01
  -0.9477780956693291E-10
   0.1004320335695547E+01
  -0.9838970121043939E-10
   0.1001641876490371E+01
  -0.1028416765193668E-09
   0.1002273078243138E+01
  -0.9783487922484491E-10
   0.1002543429418438E+01
  -0.9433371773739762E-10
   0.1003469485653421E+01
  -0.1175072965644807E-09
   0.1003372622218757E+01
  -0.1100945819202446E-09
   0.1003232226708284E+01
  -0.8603611310437734E-10
   0.1004423846087293E+01
  -0.1174339723894134E-09
   0.1004313062608747E+01
  -0.1190049388060407E-09
   0.1003659841595161E+01
  -0.8745916651260229E-10
   0.1003723114543660E+01
  -0.1119108649178305E-09
   0.1004329706225164E+01
  -0.1185119339913506E-09
   0.1004465014879262E+01
  -0.1294439903785536E-09
   0.1003623371642647E+01
  -0.1134523078596855E-09
   0.1064422811177824E+01
  -0.2356581420375269E-09
   0.1028473618075374E+01
  -0.2664671589692901E-09
   0.1009586656034742E+01
  -0.1429118176562385E-09
   0.1006638837326929E+01
  -0.1301528550373571E-09
   0.1163935517452852E+01
  -0.1263745786965474E-08
   0.1086087966180530E+01
  -0.2297975972537701E-09
   0.1007893416670824E+01
  -0.1394787420026553E-09
   0.1007245533774178E+01
  -0.1364741631347907E-09
   0.1006798075752869E+01
  -0.1227109060265785E-09
   0.1013018285816774E+01
  -0.2489786578618453E-09
   0.1019384604400543E+01
  -0.2213088498023504E-09
   0.1235203669579845E+01
  -0.2239035258792278E-08
   0.1032529467230121E+01
  -0.1556973869682626E-09
   0.1046681187597024E+01
  -0.3620634824072773E-09
   0.1200953644849215E+01
  -0.1791224325518970E-08
   0.1014718913899284E+01
  -0.1937017889911482E-09
   0.1032291150246494E+01
  -0.3309513445164453E-09
   0.1028095233606833E+01
  -0.3908966861180047E-09
   0.1014628636533901E+01
  -0.2332670178265758E-09
   0.1029216891031615E+01
  -0.3394330647544654E-09
   0.1001994848219860E+01
  -0.7251954563672179E-10
   0.9606929489643148E+00
  -0.4540850215225341E-09
   0.1006852578126534E+01
  -0.1285965144940718E-09
   0.1001327192992410E+01
  -0.1103492000256377E-09
   0.1010821899921054E+01
  -0.1581201081372638E-09
   0.1012246097487202E+01
  -0.1474017888688129E-09
   0.1000945999981309E+01
  -0.1072180179583278E-09
   0.9979121148082288E+00
  -0.3076741742140821E-10
   0.9980632191348305E+00
  -0.8062829591413684E-10
   0.1001184128449721E+01
  -0.9582559106639168E-10
   0.9841362056427749E+00
  -0.1277560759565237E-09
   0.9814879663720740E+00
  -0.1155814039251987E-09
   0.9648483396001134E+00
  -0.2842174544553525E-09
   0.9680877151408672E+00
  -0.6583530926710316E-09
   0.9914124473246559E+00
  -0.1104187313979062E-09
   0.9910858410811741E+00
  -0.6839271893897606E-10
   0.9925545071047057E+00
  -0.4152863048482556E-10
   0.1001727531032397E+01
  -0.8968529215846409E-10
   0.9993409361490349E+00
  -0.3816357665546303E-10
   0.9941410820689931E+00
  -0.4165490989392344E-10
   0.1007038749858881E+01
  -0.1939527892524996E-10
   0.1022539492939705E+01
  -0.1164688305105482E-09
   0.1001088101306799E+01
  -0.1962322884406075E-09
   0.1008798493358406E+01
  -0.1488155059473436E-09
   0.1004773844718749E+01
  -0.1277599451888150E-09
   0.1009050235267165E+01
  -0.1583391410204560E-09
   0.9966470334920824E+00
  -0.7384495201060721E-10
   0.1004988560035875E+01
  -0.7880981900416438E-09
   0.1003325530550509E+01
  -0.1132135091166364E-09
   0.9949431071355540E+00
  -0.5234378304561236E-10
   0.9832680872713992E+00
  -0.1101967536521288E-09
   0.9943957535424820E+00
  -0.4377446073624603E-10
   0.9973420622716708E+00
  -0.4125784995955287E-10
   0.9932190014608097E+00
  -0.4523136539860029E-10
   0.1001306475265536E+01
  -0.9712436449590157E-10
   0.1003001631862208E+01
  -0.1078492651649671E-09
   0.1002183570376679E+01
  -0.9249240302905918E-10
   0.9947078549330688E+00
  -0.7618783039203408E-11
   0.9937965460413198E+00
  -0.5722355354807505E-10
   0.1004867864284113E+01
  -0.1292959263446016E-09
   0.1020077605194741E+01
  -0.1587119411256812E-09
   0.1005364552303002E+01
  -0.1344143672204311E-09
   0.9816998157028723E+00
  -0.9455129080442094E-10
   0.1004973026327727E+01
  -0.1182939262276365E-09
   0.1012382317935632E+01
  -0.1484807256507262E-09
   0.9871424343080044E+00
  -0.5139122098414507E-09
   0.9551513536751844E+00
  -0.1633661904734981E-09
   0.9865075676096177E+00
  -0.1061162968910643E-09
   0.9864532957621096E+00
  -0.1197415564716126E-09
   0.9918946887398651E+00
  -0.6623267418051999E-09
   0.9933508216997053E+00
  -0.1641256133595398E-09
   0.9954406196344071E+00
  -0.5538679966527373E-09
   0.1037336788164041E+01
  -0.2630913559191046E-09
   0.1033536795741680E+01
  -0.5426949290554273E-09
   0.1001443350809251E+01
  -0.5965720010263918E-10
   0.1001930498095324E+01
  -0.1005872646270640E-09
   0.9912478441013670E+00
  -0.2125274942832523E-10
   0.9910920431424650E+00
  -0.5389769384407668E-10
   0.9648489945483053E+00
  -0.2783951368475430E-09
   0.9933282465281276E+00
  -0.3790981916646421E-10
   0.1006058642021555E+01
  -0.1124013366126245E-10
   0.1001954036638599E+01
  -0.2309455833600845E-10
   0.9908735743791743E+00
  -0.7837304462982334E-10
   0.9740945056529543E+00
  -0.3970827723720697E-09
   0.9418802258666455E+00
  -0.6823665169926855E-09
   0.9819379632795620E+00
  -0.3940122540515901E-09
   0.9794803512789911E+00
  -0.7676141501434692E-10
   0.9704172075147457E+00
  -0.2106524060780250E-09
   0.9720478940378378E+00
  -0.3885436772275510E-09
   0.9557351792055401E+00
  -0.2755853850798417E-09
   0.9496731314309658E+00
  -0.4451304997881961E-09
   0.9528673649156836E+00
  -0.8870709073265528E-09
   0.1002659530584380E+01
  -0.1135774223410542E-09
   0.1002471619993994E+01
  -0.1103690187385846E-09
   0.1000509328488747E+01
  -0.7157445362396243E-10
   0.1001677327691959E+01
  -0.1442674194486657E-10
   0.9607931295815479E+00
  -0.6038593036273406E-09
   0.9491625698296658E+00
  -0.8640676730472866E-09
   0.9584503137084173E+00
  -0.8197530106675930E-09
   0.1001121206984557E+01
  -0.9862393912174154E-10
   0.1000496132612975E+01
  -0.8285743714394668E-10
   0.1001156632653855E+01
  -0.3635510557962665E-10
   0.9807376176628242E+00
  -0.9826186261820109E-10
   0.9806000771902461E+00
  -0.1839682732151726E-09
   0.9628476249735506E+00
  -0.6308551374916922E-09
SCALARS u double 1
LOOKUP_TABLE default
   0.0000000000000000E+00
   0.0000000000000000E+00
   0.0000000000000000E+00
   0.0000000000000000E+00
   0.0000000000000000E+00
   0.0000000000000000E+00
   0.0000000000000000E+00
   0.0000000000000000E+00
   0.0000000000000000E+00
   0.0000000000000000E+00
   0.0000000000000000E+00
   0.0000000000000000E+00
   0.0000000000000000E+00
   0.0000000000000000E+00
   0.0000000000000000E+00
   0.0000000000000000E+00
   0.0000000000000000E+00
   0.0000000000000000E+00
   0.0000000000000000E+00
   0.0000000000000000E+00
   0.0000000000000000E+00
   0.0000000000000000E+00
   0.0000000000000000E+00
   0.0000000000000000E+00
   0.0000000000000000E+00
   0.0000000000000000E+00
   0.0000000000000000E+00
   0.0000000000000000E+00
   0.0000000000000000E+00
   0.0000000000000000E+00
   0.0000000000000000E+00
   0.0000000000000000E+00
   0.0000000000000000E+00
   0.0000000000000000E+00
   0.0000000000000000E+00
   0.0000000000000000E+00
   0.0000000000000000E+00
   0.0000000000000000E+00
   0.0000000000000000E+00
   0.0000000000000000E+00
   0.0000000000000000E+00
   0.0000000000000000E+00
   0.0000000000000000E+00
   0.0000000000000000E+00
   0.0000000000000000E+00
   0.0000000000000000E+00
   0.0000000000000000E+00
   0.0000000000000000E+00
   0.0000000000000000E+00
   0.0000000000000000E+00
   0.0000000000000000E+00
   0.0000000000000000E+00
   0.0000000000000000E+00
   0.0000000000000000E+00
   0.0000000000000000E+00
   0.0000000000000000E+00
   0.0000000000000000E+00
   0.0000000000000000E+00
   0.0000000000000000E+00
   0.0000000000000000E+00
   0.0000000000000000E+00
   0.0000000000000000E+00
   0.0000000000000000E+00
   0.0000000000000000E+00
   0.0000000000000000E+00
   0.0000000000000000E+00
   0.4950174085717691E+00
   0.4760963141356148E-09
   0.5338221515932901E+00
  -0.1167618111819020E-09
   0.5183268689833357E+00
  -0.1479971670072869E-09
   0.4930651173899791E+00
  -0.6085234470648214E-11
   0.4847581342073413E+00
   0.1241390091376430E-09
   0.4867666870560049E+00
   0.1704830096053021E-09
   0.4890763651832242E+00
   0.1638220080283806E-09
   0.4957848760227579E+00
   0.9454518082441992E-10
   0.4898301999771046E+00
   0.1503012997182209E-09
   0.4717388487205227E+00
   0.2814246352058973E-09
   0.4454814198392358E+00
   0.2713876720935022E-09
   0.4833907030561886E+00
  -0.3521047290671672E-09
   0.5098396910243247E+00
  -0.4469621572572733E-11
   0.4390712191166231E+00
   0.4425858357628975E-09
   0.4949403929689891E+00
   0.1240639402087645E-09
   0.5225330435061618E+00
   0.2275615691609792E-10
   0.4962454605181744E+00
   0.1247398705826032E-09
   0.5226154990862998E+00
   0.4731422282123221E-10
   0.5038881557423017E+00
   0.8731290113827748E-10
   0.5646883477575892E+00
  -0.8408120992982082E-10
   0.5247508938193753E+00
  -0.5108922491170213E-11
   0.4991465782822700E+00
   0.8398709756773977E-10
   0.5730561942427319E+00
  -0.7815361455416315E-11
   0.5696050846271097E+00
   0.9333586687293057E-10
   0.3737941394036373E+00
  -0.1970812083461126E-09
   0.3998657963622462E+00
   0.1226194095488424E-09
   0.5599326669126380E+00
  -0.1608661039226953E-09
   0.5564587688453745E+00
  -0.5804844471440649E-10
   0.4942629093685215E+00
  -0.1510323480441763E-10
   0.4948660559804018E+00
  -0.2221421283604903E-10
   0.4925736153784787E+00
  -0.2501733462703482E-10
   0.4914269656895290E+00
  -0.5670709324245191E-11
   0.5162356914741622E+00
  -0.1349686799358997E-09
   0.5361798409401238E+00
  -0.1403154225188190E-09
   0.4947413076297701E+00
   0.3762212949882998E-09
   0.4524111490564592E+00
   0.6344500617498662E-09
   0.5128777226438015E+00
  -0.1175143237492556E-09
   0.5117941109520239E+00
  -0.1087808901515325E-09
   0.4783517289915413E+00
   0.6132386826414057E-09
   0.4931696401061775E+00
   0.6607243025071233E-09
   0.4603173714801181E+00
   0.8128455889043128E-09
   0.5244892890669498E+00
   0.2120384066956316E-09
   0.5297434265362447E+00
  -0.6623230416640668E-10
   0.5129578807745515E+00
  -0.1229753400112606E-09
   0.5328358272441550E+00
  -0.2012436797389292E-09
   0.5308941198036548E+00
  -0.1807274624689907E-09
   0.5309855651510147E+00
  -0.1955938922722165E-09
   0.5063656234090984E+00
  -0.9550016835258677E-10
   0.5282462052810812E+00
   0.1088603769234177E-09
   0.5410312780843726E+00
  -0.1613244066462837E-09
   0.5361261361096479E+00
   0.6858301718812084E-10
   0.5374105323327371E+00
  -0.1171070546290198E-09
   0.4965364832161075E+00
   0.8308778646890365E-10
   0.4975340864175433E+00
   0.7575636478809599E-10
   0.4963842602942642E+00
   0.8647747491808259E-10
   0.4955220296485145E+00
   0.9328311759238079E-10
   0.4904581548043177E+00
   0.1659420618294695E-09
   0.4903044298494164E+00
   0.1655303972448836E-09
   0.4862182743593574E+00
   0.1164564795354279E-09
   0.4854052739297953E+00
   0.1011161641773584E-09
   0.4932164445385370E+00
   0.1375802291827845E-09
   0.4909833506757670E+00
   0.1477230505460360E-09
   0.4832195013028667E+00
   0.9776829820541273E-10
   0.4872624309632317E+00
   0.8321533108985513E-10
   0.4880127476302686E+00
   0.7085029514071453E-10
   0.4872447326897649E+00
   0.1443129697292963E-09
   0.4882696638812759E+00
   0.1607464667673069E-09
   0.4952597657477380E+00
   0.1180214855298139E-09
   0.4900967252863847E+00
   0.1770577398182865E-09
   0.4903999937732446E+00
   0.1743831099815766E-09
   0.4944233096955115E+00
   0.1305926004972013E-09
   0.4868003733145820E+00
   0.1500695722354039E-09
   0.4892386455109993E+00
   0.1681892795477968E-09
   0.4881393744449753E+00
   0.1771157709495270E-09
   0.4878458490203705E+00
   0.1540405890064024E-09
   0.4446866336157824E+00
   0.2069581188615224E-09
   0.4700028826890925E+00
   0.2573891557132834E-09
   0.4891999080760011E+00
   0.1464816020398327E-09
   0.4885247733493077E+00
   0.1524178489340400E-09
   0.4506533217418411E+00
   0.7645853523307705E-09
   0.4687378542600618E+00
   0.2420392022877221E-09
   0.4877010370862014E+00
   0.1532581827708671E-09
   0.4868353644483371E+00
   0.1610284057766345E-09
   0.4908994601757578E+00
   0.1295193742594256E-09
   0.4793551610582125E+00
   0.2387854651082551E-09
   0.4658071865390938E+00
   0.2396825106204359E-09
   0.3792725239532210E+00
   0.1223986365133426E-08
   0.4901596483650136E+00
   0.8061511413725209E-10
   0.4486686728829314E+00
   0.3151464389464551E-09
   0.4436137398047809E+00
   0.9533538446527313E-09
   0.4845147261343659E+00
   0.1984935900951232E-09
   0.4621822672074918E+00
   0.3047095085320842E-09
   0.4665749612043754E+00
   0.2603802185047325E-09
   0.4748140369835900E+00
   0.2436054644219427E-09
   0.4894494220685429E+00
  -0.1910554918491220E-09
   0.5085558191694163E+00
  -0.1846091901405422E-10
   0.4315073941113515E+00
   0.6815695862472629E-09
   0.4927349400634363E+00
   0.1289725202523293E-09
   0.5318289350952714E+00
  -0.3572556524789391E-10
   0.4913399286937651E+00
   0.1292234125801857E-09
   0.5207019968631739E+00
   0.1714645775664059E-10
   0.5060964758128378E+00
   0.6717743917396443E-10
   0.5688797342247879E+00
  -0.8456661404934173E-10
   0.5273993143417548E+00
  -0.2808344647299225E-10
   0.5015045263322114E+00
   0.6864130231420040E-10
   0.5821790080531178E+00
   0.1160037235701981E-09
   0.5689618094792215E+00
   0.1780898379592299E-09
   0.3406394462350536E+00
   0.1217297841863603E-09
   0.3789869384215706E+00
   0.3279208145256710E-09
   0.5751958224223187E+00
  -0.8773893621763985E-10
   0.5666485567862516E+00
  -0.8431452429641971E-10
   0.5704108805261172E+00
  -0.5173086895943996E-10
   0.5291056391306836E+00
  -0.1450220271298081E-10
   0.5451902759959742E+00
  -0.1721699280181344E-10
   0.5718804338864498E+00
  -0.5477200850412165E-10
   0.5389079156422257E+00
   0.4829100565223724E-10
   0.5475507498140463E+00
   0.7790966134005215E-10
   0.5821713868916017E+00
  -0.8298532605470865E-10
   0.4925601796036714E+00
   0.1058745414276147E-09
   0.5042157452988419E+00
   0.8631013825185215E-10
   0.4961735454572599E+00
   0.1236851574639624E-09
   0.5565208007060389E+00
  -0.1241713550500131E-09
   0.4758845197232666E+00
  -0.5661222075118778E-09
   0.4950268542390576E+00
   0.1249375198948667E-09
   0.5498525401250065E+00
  -0.3273865116589766E-10
   0.5891202263558052E+00
   0.5188808543361947E-10
   0.5841957649071357E+00
  -0.6538690817593828E-10
   0.5469097474155801E+00
  -0.4473392506795958E-10
   0.5805417606056406E+00
  -0.3444543784887122E-10
   0.5106251390478963E+00
   0.5080936342983430E-10
   0.5030200419073613E+00
   0.9022630998422277E-10
   0.5033624843085275E+00
   0.5477829114209543E-10
   0.5676445876174233E+00
  -0.9024612647173649E-10
   0.5563943065720668E+00
  -0.4972303041256195E-10
   0.4947255947768853E+00
   0.1145819047214219E-09
   0.5505243857183594E+00
  -0.7783336031638122E-10
   0.5510857278987931E+00