# vtk DataFile Version 2.0
FUN3D:global_image_vtk
ASCII
DATASET UNSTRUCTURED_GRID
POINTS 213 double
   -0.5474738059504602E-02    0.5000000000000005E-30    0.2504941999961484E+01
    0.1212121212121208E-30    0.8055550996138860E-04    0.5000000000000000E-30
    0.1245419063214956E+01    0.1000000000000001E-29    0.2504941999961484E+01
    0.1212121212121208E-30    0.1041110799572809E-03    0.1000000000000000E-29
    0.2497696076329003E+01    0.5000000000000000E-30    0.2504941999961484E+01
    0.1212121212121208E-30    0.1102916248165164E-03    0.5000000000000000E-30
    0.3750590986574023E+01    0.1000000000000000E-29    0.2504941999961484E+01
    0.1212121212121208E-30    0.1358046305401372E-03    0.1000000000000000E-29
    0.5003221380247613E+01    0.5000000000000000E-30    0.2504941999961484E+01
    0.1212121212121208E-30    0.9683523344461431E-04    0.5000000000000000E-30
    0.5004676745410213E+01    0.1000000000000000E-29    0.1281291377273527E+01
    0.4999999999999978E-30    0.1639128333390527E-03    0.1000000000000000E-29
    0.5004772723164809E+01    0.4999999999999996E-30    0.2775094235895190E-01
    0.9999999999999983E-30    0.1904167401678425E-03    0.5000000000000000E-30
    0.5003581213732991E+01    0.1000000000000000E-29   -0.1225853394964910E+01
    0.4999999999999982E-30    0.1608071321506643E-03    0.1000000000000000E-29
    0.5001952545688034E+01    0.5000000000000000E-30   -0.2496589021166458E+01
    0.1212121212121210E-30    0.1082184661237440E-03    0.5000000000000000E-30
    0.3750348114452023E+01    0.1000000000000000E-29   -0.2496589021166458E+01
    0.1212121212121210E-30    0.1458710028767740E-03    0.1000000000000000E-29
    0.2498611455860786E+01    0.5000000000000000E-30   -0.2496589021166458E+01
    0.1212121212121210E-30    0.1008914036254582E-03    0.5000000000000000E-30
    0.1247175253529147E+01    0.1000000000000000E-29   -0.2496589021166458E+01
    0.1212121212121210E-30    0.1108597702464409E-03    0.1000000000000000E-29
   -0.3383978115785169E-02    0.5000000000000005E-30   -0.2496589021166458E+01
    0.1212121212121210E-30    0.8107707488508309E-04    0.5000000000000000E-30
   -0.4257799575230425E-02    0.1000000000000000E-29   -0.1225734704378883E+01
    0.4999999999999982E-30    0.3420054752112378E-04    0.1000000000000000E-29
   -0.5251637157060784E-02    0.5000000000000005E-30    0.2619498345569626E-01
    0.9999999999999983E-30    0.1039613540431139E-03    0.5000000000000000E-30
   -0.5676113931367688E-02    0.1000000000000001E-29    0.1278221711771627E+01
    0.4999999999999978E-30    0.8237742971856088E-04    0.1000000000000000E-29
    0.9003209086382191E+00    0.5000000000000005E-30    0.1608979275733105E+01
    0.9999999999999973E-30    0.8718012080222159E-04    0.5000000000000000E-30
    0.3983172220881041E+01    0.1000000000000000E-29   -0.1561211796856023E+01
    0.4999999999999982E-30    0.1757351954316810E-03    0.1000000000000000E-29
    0.4035602066125263E+01    0.5000000000000000E-30    0.1486760229513980E+01
    0.9999999999999973E-30    0.1714506678095473E-03    0.5000000000000000E-30
    0.1036613696945808E+01    0.1000000000000000E-29   -0.1455626319023465E+01
    0.4999999999999982E-30    0.1047538994854991E-03    0.1000000000000000E-29
    0.1094353438944835E+01    0.5000000000000005E-30   -0.2964620713744224E+00
    0.9999999999999973E-30    0.1261326919438921E-03    0.5000000000000000E-30
    0.7298399754953697E+00    0.1000000000000001E-29    0.6874686188446064E+00
    0.4999999999999941E-30    0.1045682047596808E-03    0.1000000000000000E-29
    0.1617018610904462E+01    0.5000000000000005E-30    0.8553209657949420E+00
    0.9999999999999936E-30    0.1530917835092516E-03    0.5000000000000000E-30
    0.2143199645120234E+01    0.1000000000000000E-29   -0.1627128401290524E+01
    0.4999999999999982E-30    0.1606433273473873E-03    0.1000000000000000E-29
    0.4088840470379843E+01    0.5000000000000000E-30   -0.4351046471404206E+00
    0.9999999999999983E-30    0.2720522799659064E-03    0.5000000000000000E-30
    0.2977916500432660E+01    0.1000000000000000E-29   -0.8334990271277849E+00
    0.4999999999999654E-30    0.2246092970106250E-03    0.1000000000000000E-29
    0.3044093236197656E+01    0.5000000000000000E-30   -0.1814361118269820E+01
    0.9999999999999992E-30    0.1617179478026198E-03    0.5000000000000000E-30
    0.3427866617085304E+01    0.1000000000000000E-29    0.3813906574464904E+00
    0.4999999999999982E-30    0.2937830712453904E-03    0.1000000000000000E-29
    0.4313225396320023E+01    0.4999999999999996E-30    0.5489135083257440E+00
    0.9999999999999936E-30    0.2313893475642814E-03    0.5000000000000000E-30
    0.1823032699632841E+01    0.1000000000000000E-29    0.1771265381755795E+01
    0.4999999999999978E-30    0.1837610807679524E-03    0.1000000000000000E-29
    0.2806311135978372E+01    0.5000000000000005E-30    0.1358629571504236E+01
    0.9999999999996421E-30    0.1944713312552748E-03    0.5000000000000000E-30
    0.1891860844560957E+01    0.1000000000000000E-29   -0.8481309128925676E+00
    0.4999999999999931E-30    0.1671170219251228E-03    0.1000000000000000E-29
    0.2268769163417530E+01    0.5000000000000005E-30    0.7723707075737757E-01
    0.9999999999999983E-30    0.2073128221063425E-03    0.5000000000000000E-30
    0.5000000000000000E+01    0.1619010747715938E-46    0.2504941999961484E+01
    0.1212121212121208E-30    0.1250000000000000E+01    0.1619010747715938E-46
    0.5000000000000000E+01    0.1619010747715938E-46    0.2504941999961484E+01
    0.1212121212121208E-30    0.2500000000000000E+01    0.1619010747715938E-46
    0.5000000000000000E+01    0.1619010747715938E-46    0.2504941999961484E+01
    0.1212121212121208E-30    0.3750000000000000E+01    0.1619010747715938E-46
    0.5000000000000000E+01    0.1619010747715938E-46    0.2504941999961484E+01
    0.1212121212121208E-30    0.5000000000000000E+01    0.1619010747715938E-46
    0.3750000000000000E+01    0.1619010747715938E-46    0.2504941999961484E+01
    0.1212121212121208E-30    0.5000000000000000E+01    0.1619010747715938E-46
    0.2500000000000000E+01    0.1619010747715938E-46    0.2504941999961484E+01
    0.1212121212121208E-30    0.5000000000000000E+01    0.1619010747715938E-46
    0.1250000000000000E+01    0.1619010747715938E-46    0.2504941999961484E+01
    0.1212121212121208E-30    0.5000000000000000E+01    0.1619010747715938E-46
   -0.1572448961761907E-19    0.1619010747715938E-46    0.2504941999961484E+01
    0.1212121212121208E-30    0.5000000000000000E+01    0.1619010747715938E-46
   -0.1572448961761907E-19    0.1619010747715938E-46    0.2504941999961484E+01
    0.1212121212121208E-30    0.3750000000000000E+01    0.1619010747715938E-46
   -0.1572448961761907E-19    0.1619010747715938E-46    0.2504941999961484E+01
    0.1212121212121208E-30    0.2500000000000000E+01    0.1619010747715938E-46
   -0.1572448961761907E-19    0.1619010747715938E-46    0.2504941999961484E+01
    0.1212121212121208E-30    0.1250000000000000E+01    0.1619010747715938E-46
    0.9588956144355161E+00    0.4088323204880002E-30    0.2504941999961484E+01
    0.1212121212121208E-30    0.9696527279204157E+00    0.8253355966551795E-30
    0.3981953084978401E+01    0.7369699780742404E-31    0.2504941999961484E+01
    0.1212121212121208E-30    0.4070563876500500E+01    0.1516277355831400E-30
    0.4036122198870731E+01    0.5331184872988197E-30    0.2504941999961484E+01
    0.1212121212121208E-30    0.1017567671852929E+01    0.8139234257758055E-30
    0.9637572703692218E+00   -0.9331067766505218E-32    0.2504941999961484E+01
    0.1212121212121208E-30    0.3973598229042282E+01    0.1306014370159958E-30
    0.1546540123352509E+01    0.8002905657929941E-31    0.2504941999961484E+01
    0.1212121212121208E-30    0.2931570247918891E+01    0.3996885550961832E-30
    0.6973799367138885E+00    0.3481309068501784E-32    0.2504941999961484E+01
    0.1212121212121208E-30    0.3070319998906840E+01    0.2100037182687885E-30
    0.8903741869765986E+00    0.7712488796376530E-31    0.2504941999961484E+01
    0.1212121212121208E-30    0.2056562332029389E+01    0.4294668085394144E-30
    0.2183041992443720E+01    0.3782461580930963E-31    0.2504941999961484E+01
    0.1212121212121208E-30    0.3960694489254670E+01    0.2259705361714204E-30
    0.3855844883881474E+01    0.1784932175604151E-30    0.2504941999961484E+01
    0.1212121212121208E-30    0.2933250643805067E+01    0.3558534735537604E-30
    0.3152611372008677E+01    0.1115283363377719E-30    0.2504941999961484E+01
    0.1212121212121208E-30    0.3637668435336390E+01    0.2959845527160113E-30
    0.3103307388029136E+01    0.5185271477193810E-31    0.2504941999961484E+01
    0.1212121212121208E-30    0.4332607836744343E+01    0.1521436499779033E-30
    0.3266711050822213E+01    0.3601961362740710E-30    0.2504941999961484E+01
    0.1212121212121208E-30    0.1889656733417950E+01    0.6353768785674069E-30
    0.4232537571805413E+01    0.2580489315429022E-30    0.2504941999961484E+01
    0.1212121212121208E-30    0.1918627039918501E+01    0.4090791405810320E-30
    0.1905522344842234E+01    0.6572817491139281E-30    0.2504941999961484E+01
    0.1212121212121208E-30    0.7226292666170522E+00    0.8977306600900022E-30
    0.2879767720433331E+01    0.6107141644546290E-30    0.2504941999961484E+01
    0.1212121212121208E-30    0.9080947549972161E+00    0.8180347387425544E-30
    0.2012711351533434E+01    0.3615868018464613E-30    0.2504941999961484E+01
    0.1212121212121208E-30    0.1767082528588959E+01    0.7060364642885013E-30
    0.2669681472765471E+01    0.1849800474543258E-30    0.2504941999961484E+01
    0.1212121212121208E-30    0.2853394418098206E+01    0.4820509466870776E-30
    0.5000000000000000E+01    0.1619010747715938E-46    0.1250000000000000E+01
    0.1619010747715938E-46    0.5000000000000000E+01    0.1619010747715938E-46
    0.5000000000000000E+01    0.1619010747715938E-46   -0.1572448961761907E-19
[...]
POINT_DATA 213
SCALARS rho double 1
LOOKUP_TABLE default
   0.1219599913617166E+01
  -0.6526407565031920E-31
   0.9221793838880172E+00
   0.2217449191231773E-31
   0.9104476812929984E+00
  -0.8034671712255873E-31
   0.8966767976561243E+00
   0.2806558972220259E-31
   0.7819488863887653E+00
  -0.7932711189045833E-32
   0.7116571317215619E+00
   0.2387655997574335E-30
   0.6990709657843129E+00
   0.9048882682256650E-31
   0.7029546921929947E+00
   0.4252343504969333E-31
   0.7687355881556819E+00
  -0.8914836450371921E-31
   0.8895232822289747E+00
   0.3337904119162529E-31
   0.8987464019091760E+00
  -0.7715173528828123E-31
   0.9249601769146871E+00
  -0.1601541228766337E-31
   0.1300246732778245E+01
  -0.1090121099795217E-30
   0.1348040885210586E+01
  -0.5523172658204324E-30
   0.1456338075679605E+01
  -0.2681109969888590E-30
   0.1286719692337429E+01
  -0.4187495198031767E-30
   0.9619642158942098E+00
  -0.4382651064681508E-31
   0.9047653980566145E+00
  -0.1613266002149963E-31
   0.8972301123592469E+00
   0.2238535003388178E-31
   0.9249192778392726E+00
  -0.1345788236237699E-31
   0.9126331843475698E+00
   0.2682093442740802E-32
   0.9866008235395337E+00
  -0.1762656601185560E-30
   0.8974308639202260E+00
  -0.4227030782746564E-31
   0.8999717894748011E+00
  -0.8274863430375448E-31
   0.9067475719166322E+00
  -0.2569583420540674E-31
   0.9112478406999970E+00
  -0.3898940808815384E-31
   0.8943866375889633E+00
  -0.1148926236773437E-31
   0.9125851103369113E+00
  -0.2531585407684370E-31
   0.8902529657865581E+00
   0.7644195701783254E-32
   0.9018652715698493E+00
  -0.3507167670886752E-31
   0.9063596825073756E+00
   0.1370389615754853E-31
   0.8623950846104192E+00
   0.3650674226520492E-31
   0.9078064541469577E+00
   0.9875007119518279E-31
   0.9506821980942192E+00
  -0.3136076129053592E-31
   0.1008490980202845E+01
   0.1583918039320777E-32
   0.1006976758480174E+01
   0.1121690827129357E-32
   0.1000145908665366E+01
  -0.5935625547394575E-33
   0.1000492870001278E+01
  -0.2315211266271424E-32
   0.1001010370654637E+01
  -0.2967943911811160E-32
   0.1002467258125890E+01
  -0.2020740238062655E-32
   0.1001944765553475E+01
  -0.1278945309284635E-33
   0.1004886098317260E+01
  -0.1727124853649535E-33
   0.1016625222136649E+01
   0.7331005506520199E-32
   0.1058313554257930E+01
   0.2243851231846852E-31
   0.1005436788048851E+01
   0.2141650237228873E-31
   0.1000007369537321E+01
  -0.1615738620151305E-32
   0.9457700490482194E+00
  -0.3686342231362823E-31
   0.1002042271947831E+01
  -0.1068146584638812E-32
   0.9982829476285281E+00
  -0.4530960377414411E-34
   0.1004492521308453E+01
   0.4396950787365295E-33
   0.1005371617840374E+01
   0.1984504456313552E-32
   0.9993111978129330E+00
  -0.2178440278332038E-32
   0.9978002667662115E+00
  -0.1220094357907197E-32
   0.9988040172539802E+00
  -0.2610784146390953E-32
   0.9987211972701920E+00
  -0.2487373853900984E-32
   0.9780928918388493E+00
  -0.3877129090081765E-32
   0.9796706142197593E+00
  -0.1919773246227480E-32
   0.9639504863509805E+00
  -0.3058349786289708E-31
   0.9601301310484334E+00
  -0.2019843135075286E-31
   0.9867991728035259E+00
  -0.4870633289768057E-32
   0.9922400513197518E+00
  -0.1350649658823895E-32
   0.1000342977223477E+01
  -0.3833983297929111E-33
   0.1000541450813957E+01
  -0.3981771848036938E-33
   0.1000671133070679E+01
  -0.4379841224612395E-33
   0.9998284135088810E+00
   0.1060462582356669E-33
   0.1009782297109949E+01
   0.2490847479652005E-32
   0.1007174224039056E+01
   0.2487664747406518E-32
   0.9448363517733139E+00
  -0.2612156609717546E-31
   0.9034576848518405E+00
  -0.3727450453058241E-31
   0.1007039898459493E+01
   0.1390286450427723E-32
   0.1004193124635580E+01
   0.3381266249779114E-33
   0.8965165777363374E+00
  -0.3780587187211912E-31
   0.8926680498152729E+00
  -0.1668325802469025E-31
   0.8470449750115709E+00
  -0.1975146523418652E-31
   0.9708429042675932E+00
  -0.6079340292677129E-32
   0.1000202431946863E+01
   0.5143495040391469E-32
   0.1006091577615687E+01
   0.3892032847398729E-33
   0.1015639761998055E+01
   0.4157343792238939E-32
   0.1012987271709634E+01
   0.4333823774399839E-32
   0.1012861697417667E+01
   0.9698617535654055E-33
   0.1005118612467280E+01
   0.5595776297634950E-33
   0.9863622640683094E+00
  -0.5004698856774580E-33
   0.1006593489931529E+01
   0.8183442533348136E-33
   0.9849764702311935E+00
   0.5653279223196541E-32
   0.1008140573348330E+01
   0.3977800909798670E-32
   0.1001902606874106E+01
  -0.2058043486091500E-33
   0.1000777962764644E+01
   0.1673400695537158E-33
   0.1001300678117646E+01
   0.3088276614343954E-33
   0.1001842923437893E+01
   0.8473190178847442E-34
   0.1002348926670444E+01
  -0.1481610327166482E-32
   0.1000286871387716E+01
  -0.2783171951712977E-32
   0.1000192914675873E+01
  -0.1725571143893394E-32
   0.9997755933120835E+00
  -0.2111966349431001E-32
   0.1001746394682108E+01
  -0.1023525128187941E-32
   0.1001907944788001E+01
  -0.1492993800495711E-32
   0.9986523977728849E+00
  -0.1817933805806605E-32
   0.9995364912100447E+00
  -0.1876250905379532E-32
   0.9999232355146753E+00
  -0.1714534417417865E-32
   0.1000198767987058E+01
  -0.2559571731275632E-32
   0.1000442941677130E+01
  -0.2194134335807057E-32
   0.1001058841351801E+01
  -0.5312622850230376E-33
   0.1001457792922560E+01
  -0.2051475353060412E-32
   0.1001331328856416E+01
  -0.2186749278172157E-32
   0.1001525818348993E+01
  -0.1226974366435233E-32
   0.1000861177977840E+01
  -0.2763641357484814E-32
   0.1001344306221299E+01
  -0.2638375942440111E-32
   0.1001108536260468E+01
  -0.2442283065225767E-32
   0.1000543854547240E+01
  -0.2518302191219952E-32
   0.1060180605604283E+01
   0.1169740103928687E-31
   0.1020434851446596E+01
   0.8928188049906161E-32
   0.1005937367251553E+01
   0.7271485047966881E-33
   0.1003463833916343E+01
   0.2295455478408287E-33
   0.1142067394351898E+01
   0.1140888908151015E-31
   0.1083370527282703E+01
   0.1859591936198162E-31
   0.1004378517860455E+01
   0.3923808594932859E-33
   0.1003909103423277E+01
   0.3769269786271047E-33
   0.1003789602179355E+01
  -0.1451410523517210E-33
   0.1006675430344190E+01
   0.3384237833440329E-32
   0.1012240635871925E+01
   0.7141959624682148E-32
   0.1193114846293332E+01
  -0.3842458930952865E-31
   0.1028000791361243E+01
   0.5187124097596308E-32
   0.1034785375862002E+01
   0.1549435806247731E-31
   0.1169417159577740E+01
   0.3150147416187757E-31
   0.1009874385357499E+01
   0.2797336928868007E-32
   0.1023546143335935E+01
   0.1041109189999761E-31
   0.1017121966024161E+01
   0.4404719730765189E-32
   0.1007875017663678E+01
   0.5139201340604588E-32
   0.1013904356827826E+01
   0.1706844760979114E-31
   0.1000120419972777E+01
  -0.1408723362816981E-32
   0.9442367766745950E+00
  -0.3559100433914937E-31
   0.1003512214009015E+01
  -0.4182326431606350E-33
   0.9988676266154530E+00
  -0.4904325449120637E-32
   0.1006433377412964E+01
   0.1903674950497496E-32
   0.1009136818442676E+01
  -0.1469557240593610E-32
   0.9979418413411549E+00
  -0.2566998995736058E-32
   0.9977846798161866E+00
  -0.1760372509647994E-32
   0.9961676217013863E+00
  -0.3077195131680714E-32
   0.9984778160662012E+00
  -0.2263109886295504E-32
   0.9810175331359731E+00
  -0.1170125575282434E-31
   0.9780877552762084E+00
  -0.6293878730083960E-32
   0.9479693804095212E+00
  -0.3581682892561475E-31
   0.9505424156674321E+00
  -0.3988264910877965E-31
   0.9877990056526762E+00
  -0.9720938135241058E-32
   0.9899199084747561E+00
  -0.3810122573222299E-32
   0.9925444357413945E+00
  -0.3909059359614826E-32
   0.9998150160080733E+00
  -0.1908410251506459E-32
   0.9986044256974635E+00
  -0.2999780471750665E-32
   0.9946495923490595E+00
  -0.1973937193421713E-32
   0.1006783294486211E+01
   0.1411107515944860E-32
   0.1021195773710092E+01
   0.1319396358841443E-31
   0.9979991516429435E+00
  -0.7855282695763724E-32
   0.1004785936910706E+01
  -0.6520775848443875E-33
   0.1001443253578705E+01
  -0.1032675189753433E-32
   0.1004870015573926E+01
   0.2203371023786584E-33
   0.9952898773713748E+00
  -0.2108506624418898E-32
   0.9853957099542218E+00
   0.1022427317686658E-31
   0.1000226007444835E+01
  -0.2129396290395375E-32
   0.9938930119371521E+00
  -0.2605816105896331E-32
   0.9819631293087787E+00
  -0.1652761478854325E-32
   0.9943515144921530E+00
  -0.2165788142930569E-32
   0.9968775152976270E+00
  -0.2861316045742146E-32
   0.9937161314907593E+00
  -0.1025756764134230E-32
   0.9987031086240500E+00
  -0.2300654559516063E-32
   0.1000033244278800E+01
  -0.2326261599295186E-32
   0.9996686280107273E+00
  -0.2457351656032203E-32
   0.9958480420587099E+00
  -0.6083663173522254E-33
   0.9933618045053416E+00
  -0.2421505844458694E-32
   0.1001379813514598E+01
  -0.1549540573035150E-32
   0.1018342565079070E+01
  -0.9611925387533518E-33
   0.1002761163883229E+01
  -0.4745910644124329E-32
   0.9806466643452236E+00
  -0.9435873079086295E-32
   0.1001874257979824E+01
  -0.1378597386198488E-32
   0.1008205818684713E+01
   0.1266877174327328E-32
   0.9702345995627055E+00
  -0.1171639865824582E-31
   0.9431323729230939E+00
   0.5982421857554267E-32
   0.9846786353184721E+00
  -0.1087364179712440E-31
   0.9843645601673737E+00
  -0.6787178037741083E-32
   0.9754696721940153E+00
  -0.3226047612331496E-31
   0.9908380426682384E+00
  -0.1396198670817503E-31
   0.9779133561213815E+00
  -0.3237024298722004E-31
   0.1033958406005656E+01
  -0.6944965983117919E-32
   0.1021656796291826E+01
   0.1296883773696491E-31
   0.1000033005346957E+01
  -0.1812216962562844E-32
   0.9991734290873929E+00
  -0.2853893068675680E-32
   0.9919055285384111E+00
   0.2328798064317567E-32
   0.9907248504710615E+00
  -0.3646652331543229E-32
   0.9574014550820341E+00
  -0.8288844714136634E-32
   0.9930506880942087E+00
   0.1301820628256520E-32
   0.1006289131536093E+01
   0.1383799318463316E-32
   0.1002044037553245E+01
  -0.2898692372950812E-33
   0.9896477897162349E+00
  -0.4697641465101906E-32
   0.9652799827153939E+00
  -0.6050958711569375E-32
   0.9203406997248856E+00
  -0.2556434490000351E-31
   0.9724368701982348E+00
  -0.1141397414005957E-31
   0.9781836989276869E+00
  -0.5097391146550987E-32
   0.9559726800661242E+00
  -0.5687178268981075E-32
   0.9617645757545311E+00
  -0.2370017706522082E-31
   0.9490309801048628E+00
  -0.2828139735677647E-32
   0.9366912375348575E+00
  -0.2237095872864996E-31
   0.9303104723267313E+00
  -0.2983688521870917E-31
   0.9992919130672411E+00
  -0.1524656218494237E-32
   0.9994619482034158E+00
  -0.2253216832213567E-32
   0.9988025047109110E+00
  -0.2103362566193093E-32
   0.1002017073946798E+01
  -0.4595015583151705E-33
   0.9391477998922280E+00
  -0.2465414324495255E-31
   0.9239055150469273E+00
  -0.6045660501862994E-31
   0.9359217488829562E+00
  -0.1829278823972158E-31
   0.9984137893782501E+00
  -0.2444003862327310E-32
   0.9983444540240144E+00
  -0.2323900392601416E-32
   0.1000450520513083E+01
  -0.1445676672464984E-32
   0.9793848501606134E+00
  -0.1011283962590007E-31
   0.9713545842929958E+00
  -0.7112131304040468E-32
   0.9447096592561720E+00
  -0.1688391995869011E-31
SCALARS u double 1
LOOKUP_TABLE default
   0.0000000000000000E+00
   0.0000000000000000E+00
   0.0000000000000000E+00
   0.0000000000000000E+00
   0.0000000000000000E+00
   0.0000000000000000E+00
   0.0000000000000000E+00
   0.0000000000000000E+00
   0.0000000000000000E+00
   0.0000000000000000E+00
   0.0000000000000000E+00
   0.0000000000000000E+00
   0.0000000000000000E+00
   0.0000000000000000E+00
   0.0000000000000000E+00
   0.0000000000000000E+00
   0.0000000000000000E+00
   0.0000000000000000E+00
   0.0000000000000000E+00
   0.0000000000000000E+00
   0.0000000000000000E+00
   0.0000000000000000E+00
   0.0000000000000000E+00
   0.0000000000000000E+00
   0.0000000000000000E+00
   0.0000000000000000E+00
   0.0000000000000000E+00
   0.0000000000000000E+00
   0.0000000000000000E+00
   0.0000000000000000E+00
   0.0000000000000000E+00
   0.0000000000000000E+00
   0.0000000000000000E+00
   0.0000000000000000E+00
   0.0000000000000000E+00
   0.0000000000000000E+00
   0.0000000000000000E+00
   0.0000000000000000E+00
   0.0000000000000000E+00
   0.0000000000000000E+00
   0.0000000000000000E+00
   0.0000000000000000E+00
   0.0000000000000000E+00
   0.0000000000000000E+00
   0.0000000000000000E+00
   0.0000000000000000E+00
   0.0000000000000000E+00
   0.0000000000000000E+00
   0.0000000000000000E+00
   0.0000000000000000E+00
   0.0000000000000000E+00
   0.0000000000000000E+00
   0.0000000000000000E+00
   0.0000000000000000E+00
   0.0000000000000000E+00
   0.0000000000000000E+00
   0.0000000000000000E+00
   0.0000000000000000E+00
   0.0000000000000000E+00
   0.0000000000000000E+00
   0.0000000000000000E+00
   0.0000000000000000E+00
   0.0000000000000000E+00
   0.0000000000000000E+00
   0.0000000000000000E+00
   0.0000000000000000E+00
   0.5044657153267285E+00
  -0.2399820266491418E-31
   0.5290125001249757E+00
  -0.6867451506998647E-32
   0.5144832571544072E+00
   0.1984601703964531E-34
   0.4932265007147077E+00
   0.8626232247039549E-33
   0.4881034954293041E+00
   0.5794301726722612E-32
   0.4912132665130956E+00
   0.8335231859452257E-32
   0.4932012104335722E+00
   0.6413923946787786E-32
   0.4982359621910304E+00
  -0.2868132702172582E-33
   0.4935755401449296E+00
   0.2340653781828430E-32
   0.4788817929298144E+00
  -0.6293285920720054E-32
   0.4518340488405867E+00
  -0.1447549915557383E-31
   0.4750761855211057E+00
   0.6754803905553544E-31
   0.5097784009970956E+00
  -0.4173493667714110E-33
   0.4511935386183674E+00
   0.8834227999231073E-31
   0.4980813340877299E+00
   0.2130545399985257E-32
   0.5232695275299889E+00
  -0.6433370822164725E-32
   0.4995198835911501E+00
  -0.2969828971097185E-33
   0.5239976612173943E+00
  -0.1031517268113557E-31
   0.5062462133612008E+00
   0.4343872437999160E-33
   0.5621720090422048E+00
  -0.1834014531865472E-32
   0.5246973183384970E+00
  -0.3531270782495588E-32
   0.5014415355688993E+00
   0.1648607319018394E-32
   0.5724415173380456E+00
   0.1729307966503300E-31
   0.5707004872019706E+00
  -0.1722135589933248E-33
   0.3697808153149229E+00
   0.9900898833820301E-31
   0.4030358778674066E+00
   0.6312364214430825E-31
   0.5559039170490842E+00
   0.3405790681177479E-31
   0.5550071828224382E+00
  -0.7917583092871841E-33
   0.4941866649120022E+00
   0.7228306461140191E-34
   0.4946225571721366E+00
  -0.6238585437790078E-33
   0.4922550880774234E+00
  -0.1841152264616334E-32
   0.4916952757086608E+00
  -0.9786432822531683E-33
   0.5126203612101735E+00
   0.1874927677925903E-32
   0.5320037748259318E+00
   0.3907828668328597E-32
   0.5051851732894238E+00
  -0.1095859839567685E-31
   0.4700274422241379E+00
  -0.3516568924722127E-31
   0.5096958286798318E+00
   0.1225398446304620E-32
   0.5089633499334708E+00
   0.1128474730662704E-33
   0.4955096745857451E+00
  -0.1618672467176445E-31
   0.5091189249436361E+00
  -0.3937827848697138E-31
   0.4859971782618140E+00
  -0.8336597009630404E-31
   0.5290197329654500E+00
  -0.2637264747122064E-31
   0.5276939305556978E+00
  -0.7318221844156307E-32
   0.5095384286339970E+00
  -0.1371374264166750E-32
   0.5265023575269361E+00
   0.2278391580794873E-32
   0.5255836715224566E+00
   0.4218737532863469E-32
   0.5249264246899390E+00
   0.3251773883557089E-33
   0.5039105676555797E+00
  -0.1326635037165813E-32
   0.5284460209983135E+00
  -0.1423130340138474E-31
   0.5353830987664421E+00
  -0.2419354672021304E-32
   0.5371546995991039E+00
  -0.2060571965477557E-31
   0.5324039368582598E+00
  -0.7831320156563846E-32
   0.4987533161461121E+00
  -0.9758305225797228E-33
   0.4995693380799582E+00
  -0.1057148329787572E-32
   0.4985678142319862E+00
  -0.2157787305055897E-33
   0.4978564019020782E+00
  -0.5884297914209678E-33
   0.4945363810553400E+00
   0.4912804558893819E-32
   0.4946354240656660E+00
   0.6725565380491908E-32
   0.4894932186615705E+00
   0.3881160720353991E-32
   0.4881854149293851E+00
   0.4061753024033129E-32
   0.4965709365752305E+00
   0.3341244408090488E-32
   0.4946579467471079E+00
   0.5214654946959319E-32
   0.4860622930852027E+00
   0.1567072786513270E-32
   0.4896816117887408E+00
   0.2934979609387697E-32
   0.4900401236950113E+00
   0.2933754743890597E-32
   0.4911767741913780E+00
   0.6265533828074091E-32
   0.4926166626955431E+00
   0.6828397989071854E-32
   0.4981835085210692E+00
   0.2554612809629092E-32
   0.4946289643977436E+00
   0.7026639578399333E-32
   0.4948394986229571E+00
   0.6539862807346215E-32
   0.4976378086146764E+00
   0.4018726418714247E-32
   0.4907933142526740E+00
   0.6956265686520174E-32
   0.4936012114806701E+00
   0.7223906768407703E-32
   0.4927628912637545E+00
   0.7904541772299847E-32
   0.4920514951908110E+00
   0.7189062011565393E-32
   0.4513309486381045E+00
  -0.1195032767020860E-31
   0.4773809617875425E+00
  -0.7990929718580323E-32
   0.4929577593227728E+00
  -0.7418799338483368E-33
   0.4922016431822662E+00
   0.3939015979047655E-32
   0.4645164622668260E+00
   0.1973112573450724E-31
   0.4729120395439979E+00
  -0.1900824745555155E-31
   0.4915211032815777E+00
   0.1020038903487244E-32
   0.4906741942899438E+00
   0.3157262808338474E-32
   0.4940153701932939E+00
   0.2181100665311365E-32
   0.4854929930745464E+00
   0.3888371035477856E-33
   0.4731445505145467E+00
  -0.7976432925284045E-32
   0.4017685352716353E+00
   0.1333210733462795E-31
   0.4925811127421739E+00
  -0.4403896775015358E-31
   0.4586089377544455E+00
  -0.1536202910817612E-31
   0.4595049325912657E+00
   0.5858780277921378E-32
   0.4895104444366704E+00
  -0.1612114723729082E-32
   0.4701583353009844E+00
  -0.1232581560829166E-31
   0.4742235035200502E+00
  -0.3036004480997080E-31
   0.4816343218385799E+00
  -0.3592022786681089E-32
   0.4809631439133590E+00
   0.6643907027692911E-31
   0.5081955852927572E+00
   0.5791693156099779E-33
   0.4436620420940654E+00
   0.3309808925473075E-31
   0.4960916958401190E+00
   0.1460785415327648E-32
   0.5314783349106716E+00
  -0.3715009620369106E-32
   0.4949806832962029E+00
  -0.1701260839827268E-32
   0.5219301823561071E+00
  -0.1256539282077331E-32
   0.5081293872675988E+00
   0.3276504373569501E-33
   0.5664001670778093E+00
   0.1309700843771056E-31
   0.5269142300078914E+00
   0.1660301970667381E-32
   0.5035387233634164E+00
   0.2170304490870150E-32
   0.5834535199025799E+00
   0.3540610912067528E-31
   0.5720240543057949E+00
   0.1675941667696170E-31
   0.3408859787972497E+00
   0.1056239539748504E-30
   0.3851958352801595E+00
  -0.1647388830983190E-31
   0.5717594931430978E+00
   0.5950089042485239E-31
   0.5645095790363912E+00
   0.1289590016738986E-31
   0.5689243688383534E+00
  -0.3185775640581734E-32
   0.5291696422570108E+00
  -0.7926736138493896E-32
   0.5449155772736251E+00
  -0.1260698354729204E-31
   0.5701879996570510E+00
   0.7396841343846755E-32
   0.5404097314619994E+00
  -0.2256170954446185E-31
   0.5487779046384252E+00
   0.2256841232228884E-31
   0.5790107886360154E+00
   0.3623559817968255E-31
   0.4955235725197913E+00
  -0.6419223246351615E-32
   0.5064965498887189E+00
  -0.1291749031351139E-32
   0.4994484985751398E+00
  -0.5085866633996603E-32
   0.5533092708747807E+00
   0.7510982808711945E-32
   0.4597902452479439E+00
  -0.1937567770115288E-31
   0.4983751332286497E+00
   0.3063501064438424E-32
   0.5489762939828994E+00
  -0.6232024096255359E-32
   0.5894376514252698E+00
   0.1954368481886828E-31
   0.5821700660577732E+00
   0.2856137075246417E-32
   0.5457059880237709E+00
  -0.2701619144377091E-32
   0.5785146403095189E+00
   0.1407569634882305E-32
   0.5122043911193719E+00
  -0.2202916507795762E-32
   0.5055088210335811E+00
  -0.1004805721983392E-32
   0.5048980709610784E+00
   0.2821280580125869E-33
   0.5645297506077155E+00
   0.2903605404034768E-32
   0.5552265536362260E+00
  -0.8090595215639648E-33
   0.4977583767271208E+00
   0.4727660114487366E-33
   0.5488209304667601E+00
  -0.1764487166991838E-31
   0.5486892305189555E+00