# vtk DataFile Version 2.0
FUN3D:global_image_vtk
ASCII
DATASET UNSTRUCTURED_GRID
POINTS 213 double
   -0.7777674059870012E-18    0.0000000000000000E+00    0.2500000000000000E+01
    0.0000000000000000E+00   -0.7777674059870012E-18    0.0000000000000000E+00
    0.1250000000000000E+01    0.0000000000000000E+00    0.2500000000000000E+01
    0.0000000000000000E+00   -0.7777674059870012E-18    0.0000000000000000E+00
    0.2500000000000000E+01    0.0000000000000000E+00    0.2500000000000000E+01
    0.0000000000000000E+00   -0.7777674059870012E-18    0.0000000000000000E+00
    0.3750000000000000E+01    0.0000000000000000E+00    0.2500000000000000E+01
    0.0000000000000000E+00   -0.7777674059870012E-18    0.0000000000000000E+00
    0.5000000000000000E+01    0.0000000000000000E+00    0.2500000000000000E+01
    0.0000000000000000E+00   -0.7777674059870012E-18    0.0000000000000000E+00
    0.5000000000000000E+01    0.0000000000000000E+00    0.1250000000000000E+01
    0.0000000000000000E+00   -0.7777674059870012E-18    0.0000000000000000E+00
    0.5000000000000000E+01    0.0000000000000000E+00   -0.7777674059870012E-18
    0.0000000000000000E+00   -0.7777674059870012E-18    0.0000000000000000E+00
    0.5000000000000000E+01    0.0000000000000000E+00   -0.1250000000000000E+01
    0.0000000000000000E+00   -0.7777674059870012E-18    0.0000000000000000E+00
    0.5000000000000000E+01    0.0000000000000000E+00   -0.2500000000000000E+01
    0.0000000000000000E+00   -0.7777674059870012E-18    0.0000000000000000E+00
    0.3750000000000000E+01    0.0000000000000000E+00   -0.2500000000000000E+01
    0.0000000000000000E+00   -0.7777674059870012E-18    0.0000000000000000E+00
    0.2500000000000000E+01    0.0000000000000000E+00   -0.2500000000000000E+01
    0.0000000000000000E+00   -0.7777674059870012E-18    0.0000000000000000E+00
    0.1250000000000000E+01    0.0000000000000000E+00   -0.2500000000000000E+01
    0.0000000000000000E+00   -0.7777674059870012E-18    0.0000000000000000E+00
   -0.7777674059870012E-18    0.0000000000000000E+00   -0.2500000000000000E+01
    0.0000000000000000E+00   -0.7777674059870012E-18    0.0000000000000000E+00
   -0.7777674059870012E-18    0.0000000000000000E+00   -0.1250000000000000E+01
    0.0000000000000000E+00   -0.7777674059870012E-18    0.0000000000000000E+00
   -0.7777674059870012E-18    0.0000000000000000E+00   -0.7777674059870012E-18
    0.0000000000000000E+00   -0.7777674059870012E-18    0.0000000000000000E+00
   -0.7777674059870012E-18    0.0000000000000000E+00    0.1250000000000000E+01
    0.0000000000000000E+00   -0.7777674059870012E-18    0.0000000000000000E+00
    0.9058375365086910E+00    0.0000000000000000E+00    0.1578994732800803E+01
    0.0000000000000000E+00   -0.7777674059870012E-18    0.0000000000000000E+00
    0.3982050490726493E+01    0.0000000000000000E+00   -0.1583989954232354E+01
    0.0000000000000000E+00   -0.7777674059870012E-18    0.0000000000000000E+00
    0.4033849428301197E+01    0.0000000000000000E+00    0.1453322699199022E+01
    0.0000000000000000E+00   -0.7777674059870012E-18    0.0000000000000000E+00
    0.1040505887381675E+01    0.0000000000000000E+00   -0.1479596339503735E+01
    0.0000000000000000E+00   -0.7777674059870012E-18    0.0000000000000000E+00
    0.1099454400140349E+01    0.0000000000000000E+00   -0.3227322616384110E+00
    0.0000000000000000E+00   -0.7777674059870012E-18    0.0000000000000000E+00
    0.7354504170366591E+00    0.0000000000000000E+00    0.6593508822075582E+00
    0.0000000000000000E+00   -0.7777674059870012E-18    0.0000000000000000E+00
    0.1622302608453282E+01    0.0000000000000000E+00    0.8256214013940779E+00
    0.0000000000000000E+00   -0.7777674059870012E-18    0.0000000000000000E+00
    0.2145871574390382E+01    0.0000000000000000E+00   -0.1650070333782557E+01
    0.0000000000000000E+00   -0.7777674059870012E-18    0.0000000000000000E+00
    0.4086422318222992E+01    0.0000000000000000E+00   -0.4612828702537229E+00
    0.0000000000000000E+00   -0.7777674059870012E-18    0.0000000000000000E+00
    0.2979540174134984E+01    0.0000000000000000E+00   -0.8579242121530853E+00
    0.0000000000000000E+00   -0.7777674059870012E-18    0.0000000000000000E+00
    0.3045064261640043E+01    0.0000000000000000E+00   -0.1836846154397680E+01
    0.0000000000000000E+00   -0.7777674059870012E-18    0.0000000000000000E+00
    0.3428197553792836E+01    0.0000000000000000E+00    0.3508002863614053E+00
    0.0000000000000000E+00   -0.7777674059870012E-18    0.0000000000000000E+00
    0.4309693860063405E+01    0.0000000000000000E+00    0.5185680230613409E+00
    0.0000000000000000E+00   -0.7777674059870012E-18    0.0000000000000000E+00
    0.1827272193562204E+01    0.0000000000000000E+00    0.1738996113203182E+01
    0.0000000000000000E+00   -0.7777674059870012E-18    0.0000000000000000E+00
    0.2808563282768077E+01    0.0000000000000000E+00    0.1325493893339706E+01
    0.0000000000000000E+00   -0.7777674059870012E-18    0.0000000000000000E+00
    0.1895995683864404E+01    0.0000000000000000E+00   -0.8731419609589618E+00
    0.0000000000000000E+00   -0.7777674059870012E-18    0.0000000000000000E+00
    0.2273179336307740E+01    0.0000000000000000E+00    0.4906150219227333E-01
    0.0000000000000000E+00   -0.7777674059870012E-18    0.0000000000000000E+00
    0.5000000000000000E+01    0.0000000000000000E+00    0.2500000000000000E+01
    0.0000000000000000E+00    0.1250000000000000E+01    0.0000000000000000E+00
    0.5000000000000000E+01    0.0000000000000000E+00    0.2500000000000000E+01
    0.0000000000000000E+00    0.2500000000000000E+01    0.0000000000000000E+00
    0.5000000000000000E+01    0.0000000000000000E+00    0.2500000000000000E+01
    0.0000000000000000E+00    0.3750000000000000E+01    0.0000000000000000E+00
    0.5000000000000000E+01    0.0000000000000000E+00    0.2500000000000000E+01
    0.0000000000000000E+00    0.5000000000000000E+01    0.0000000000000000E+00
    0.3750000000000000E+01    0.0000000000000000E+00    0.2500000000000000E+01
    0.0000000000000000E+00    0.5000000000000000E+01    0.0000000000000000E+00
    0.2500000000000000E+01    0.0000000000000000E+00    0.2500000000000000E+01
    0.0000000000000000E+00    0.5000000000000000E+01    0.0000000000000000E+00
    0.1250000000000000E+01    0.0000000000000000E+00    0.2500000000000000E+01
    0.0000000000000000E+00    0.5000000000000000E+01    0.0000000000000000E+00
   -0.7777674059870012E-18    0.0000000000000000E+00    0.2500000000000000E+01
    0.0000000000000000E+00    0.5000000000000000E+01    0.0000000000000000E+00
   -0.7777674059870012E-18    0.0000000000000000E+00    0.2500000000000000E+01
    0.0000000000000000E+00    0.3750000000000000E+01    0.0000000000000000E+00
   -0.7777674059870012E-18    0.0000000000000000E+00    0.2500000000000000E+01
    0.0000000000000000E+00    0.2500000000000000E+01    0.0000000000000000E+00
   -0.7777674059870012E-18    0.0000000000000000E+00    0.2500000000000000E+01
    0.0000000000000000E+00    0.1250000000000000E+01    0.0000000000000000E+00
    0.9631080833812172E+00    0.0000000000000000E+00    0.2500000000000000E+01
    0.0000000000000000E+00    0.9613285771248219E+00    0.0000000000000000E+00
    0.3981732467264904E+01    0.0000000000000000E+00    0.2500000000000000E+01
    0.0000000000000000E+00    0.4069753913607991E+01    0.0000000000000000E+00
    0.4035525118777670E+01    0.0000000000000000E+00    0.2500000000000000E+01
    0.0000000000000000E+00    0.1012015867579395E+01    0.0000000000000000E+00
    0.9641717640894248E+00    0.0000000000000000E+00    0.2500000000000000E+01
    0.0000000000000000E+00    0.3972455192261839E+01    0.0000000000000000E+00
    0.1547743040396780E+01    0.0000000000000000E+00    0.2500000000000000E+01
    0.0000000000000000E+00    0.2928177746738678E+01    0.0000000000000000E+00
    0.6985170616192014E+00    0.0000000000000000E+00    0.2500000000000000E+01
    0.0000000000000000E+00    0.3068281976055466E+01    0.0000000000000000E+00
    0.8931277594515110E+00    0.0000000000000000E+00    0.2500000000000000E+01
    0.0000000000000000E+00    0.2052465503257726E+01    0.0000000000000000E+00
    0.2183293750162785E+01    0.0000000000000000E+00    0.2500000000000000E+01
    0.0000000000000000E+00    0.3959073795658649E+01    0.0000000000000000E+00
    0.3855333506014705E+01    0.0000000000000000E+00    0.2500000000000000E+01
    0.0000000000000000E+00    0.2931218481500625E+01    0.0000000000000000E+00
    0.3152495579421047E+01    0.0000000000000000E+00    0.2500000000000000E+01
    0.0000000000000000E+00    0.3635850502723324E+01    0.0000000000000000E+00
    0.3103247580566054E+01    0.0000000000000000E+00    0.2500000000000000E+01
    0.0000000000000000E+00    0.4331682712472464E+01    0.0000000000000000E+00
    0.3266837581688852E+01    0.0000000000000000E+00    0.2500000000000000E+01
    0.0000000000000000E+00    0.1886092433583972E+01    0.0000000000000000E+00
    0.4231539241296245E+01    0.0000000000000000E+00    0.2500000000000000E+01
    0.0000000000000000E+00    0.1915865356532799E+01    0.0000000000000000E+00
    0.1909741006522088E+01    0.0000000000000000E+00    0.2500000000000000E+01
    0.0000000000000000E+00    0.7170024419130505E+00    0.0000000000000000E+00
    0.2880784107213163E+01    0.0000000000000000E+00    0.2500000000000000E+01
    0.0000000000000000E+00    0.9046598906449592E+00    0.0000000000000000E+00
    0.2014316024535771E+01    0.0000000000000000E+00    0.2500000000000000E+01
    0.0000000000000000E+00    0.1762464314805728E+01    0.0000000000000000E+00
    0.2670003247036656E+01    0.0000000000000000E+00    0.2500000000000000E+01
    0.0000000000000000E+00    0.2850479545835163E+01    0.0000000000000000E+00
    0.5000000000000000E+01    0.0000000000000000E+00    0.1250000000000000E+01
    0.0000000000000000E+00    0.5000000000000000E+01    0.0000000000000000E+00
    0.5000000000000000E+01    0.0000000000000000E+00   -0.7777674059870012E-18
[...]
POINT_DATA 213
SCALARS rho double 1
LOOKUP_TABLE default
   0.1343965967634351E+01
  -0.1930632410267854E-31
   0.9576972754477316E+00
  -0.3005298061595432E-32
   0.9477448461509288E+00
  -0.2768094832265470E-32
   0.9438131459130004E+00
  -0.3813552383548583E-32
   0.8441009502079798E+00
  -0.5424339269181778E-32
   0.7733576842968963E+00
  -0.5531162738317477E-32
   0.7630128838352834E+00
  -0.5619678634779455E-32
   0.7656186420825336E+00
  -0.5541857476968564E-32
   0.8316614378601497E+00
  -0.5425199109042877E-32
   0.9369663715687933E+00
  -0.3923915452916937E-32
   0.9354398940474888E+00
  -0.3090901317844320E-32
   0.9614824120538383E+00
  -0.3085798393287283E-32
   0.1447869012705834E+01
  -0.1162230027885484E-31
   0.1492319205079610E+01
  -0.1154784466037567E-31
   0.1642809593419884E+01
  -0.1492241330056862E-31
   0.1425671994008624E+01
  -0.1142158415287233E-31
   0.1009386316599811E+01
  -0.4193542235105531E-32
   0.9522697508996859E+00
  -0.3949649633816489E-32
   0.9451727087728289E+00
  -0.3969502248755169E-32
   0.9577559829428863E+00
  -0.2738804908245444E-32
   0.9405678787722943E+00
  -0.2370518891209361E-32
   0.1035489934795312E+01
  -0.4030952423939894E-32
   0.9260511834231493E+00
  -0.2294578005661454E-32
   0.9335251664946843E+00
  -0.2825862590410357E-32
   0.9552381752232171E+00
  -0.4010461926019629E-32
   0.9537149717399034E+00
  -0.3517786368002976E-32
   0.9360594565926647E+00
  -0.3502342612662527E-32
   0.9578783286419307E+00
  -0.3752051495101805E-32
   0.9386202178051793E+00
  -0.4070972565333537E-32
   0.9312265818793320E+00
  -0.2070218218351996E-32
   0.9460891779733936E+00
  -0.3154541998838444E-32
   0.8867073897269764E+00
  -0.2155467422028519E-32
   0.9437960444256672E+00
  -0.2983842886883470E-32
   0.9641219460441440E+00
  -0.1707481397235533E-32
   0.1007296400389853E+01
  -0.7950208927666562E-34
   0.1006184778433492E+01
   0.1106810159483238E-33
   0.1004574959510068E+01
  -0.3413302834340941E-33
   0.1005751423353290E+01
  -0.5056069395524871E-33
   0.1004610527118253E+01
  -0.3902241835939624E-33
   0.1005284910624134E+01
  -0.2894077270591585E-33
   0.1003004652672688E+01
  -0.1128203537575466E-33
   0.1008151398528161E+01
  -0.3322734776595325E-33
   0.1023748878780486E+01
  -0.7580821901846278E-33
   0.1062885649332599E+01
  -0.3143132765542796E-33
   0.1019113286573546E+01
  -0.2280723687240172E-32
   0.1001827820049415E+01
  -0.1394904945028948E-33
   0.9658918547355735E+00
  -0.2126339028192324E-32
   0.1005409935464768E+01
  -0.3419362843800310E-33
   0.1000775310092326E+01
  -0.2119140154913550E-33
   0.1008827306455808E+01
  -0.4544023007816157E-33
   0.1007918430168300E+01
  -0.1953862337419409E-33
   0.1002494199693774E+01
  -0.3161778446554464E-33
   0.9976014237389524E+00
  -0.1802888292287694E-34
   0.1000593571477917E+01
  -0.1386930605018026E-33
   0.1001865292211819E+01
  -0.2904353661036997E-33
   0.9828372192304642E+00
  -0.7034028993439942E-33
   0.9840878144060770E+00
  -0.6853892863347566E-33
   0.9841380518130047E+00
  -0.2384778451427411E-32
   0.9802128055320610E+00
  -0.2184047050945149E-32
   0.9905521809376968E+00
  -0.6505844000733747E-33
   0.9934998277231897E+00
  -0.1299753426278493E-33
   0.1004778245139574E+01
  -0.3208346053109854E-33
   0.1004767189439792E+01
  -0.2959993250169922E-33
   0.1005114321540642E+01
  -0.2864144713969481E-33
   0.1004850286208850E+01
  -0.3443005794969201E-33
   0.1009544108990174E+01
   0.1872454372169459E-34
   0.1004699691067604E+01
   0.6468395743135443E-34
   0.9559620075107663E+00
  -0.1096403015485656E-32
   0.9257182865621314E+00
  -0.2386156740031777E-32
   0.1007687731087530E+01
  -0.6384096219093737E-35
   0.1004499793528264E+01
   0.1478136468559348E-34
   0.9151324669626790E+00
  -0.1660310038031273E-32
   0.9096292342674225E+00
  -0.1510207293075548E-32
   0.8762723022943507E+00
  -0.2652449696342786E-32
   0.9757629706285672E+00
  -0.6944433215214895E-33
   0.9987129104658156E+00
  -0.4042228661232454E-34
   0.1006335541459333E+01
   0.1988393381790505E-34
   0.1010818858828708E+01
   0.3039582174120421E-33
   0.1010129204678001E+01
   0.1570030858465606E-33
   0.1009074518689096E+01
   0.3030288387768239E-33
   0.1005937111848202E+01
  -0.3376089269117739E-34
   0.9900076156131691E+00
  -0.6934133489878926E-33
   0.1003829925499288E+01
   0.1425521879439976E-33
   0.9846226061812530E+00
  -0.1141874018435454E-33
   0.1002837187919299E+01
   0.2594812060268126E-33
   0.1003882860797673E+01
  -0.1780388561117214E-33
   0.1003215373753950E+01
  -0.2104499217935060E-33
   0.1003424139095006E+01
  -0.1963237981052878E-33
   0.1003738532259393E+01
  -0.1796244438891646E-33
   0.1005281661882734E+01
  -0.2713016706138144E-33
   0.1003265155810996E+01
  -0.3025818731929879E-33
   0.1004580560412005E+01
  -0.3830549271603941E-33
   0.1005196429764846E+01
  -0.5021917142522784E-33
   0.1004060719557667E+01
  -0.2139894725967553E-33
   0.1004546525464543E+01
  -0.2595905135992533E-33
   0.1003385890676198E+01
  -0.4100023472377513E-33
   0.1004519397933983E+01
  -0.4388134661264881E-33
   0.1005791658023137E+01
  -0.4977811434745457E-33
   0.1004686432087732E+01
  -0.4504260817621083E-33
   0.1003955411417295E+01
  -0.3437567354112722E-33
   0.1003135933598831E+01
  -0.1935339021469468E-33
   0.1004406797996624E+01
  -0.2894104134605043E-33
   0.1004217778951151E+01
  -0.2902699798283007E-33
   0.1003536250780027E+01
  -0.1920886769937243E-33
   0.1005309733575073E+01
  -0.4590675750082239E-33
   0.1004812133425284E+01
  -0.3622347105292741E-33
   0.1004741758192397E+01
  -0.3735550497798912E-33
   0.1004669787428033E+01
  -0.4150332754935590E-33
   0.1064928020942194E+01
  -0.3304431346006138E-33
   0.1028650830657648E+01
  -0.7038172092859709E-33
   0.1009537909972405E+01
  -0.3329649002381501E-33
   0.1006519332415041E+01
  -0.3196292127194092E-33
   0.1163380979325723E+01
  -0.1952356466616994E-32
   0.1086055351418842E+01
  -0.2225232680382636E-33
   0.1007820126450316E+01
  -0.3228348007325283E-33
   0.1007302541942144E+01
  -0.3284262433575805E-33
   0.1006711537804454E+01
  -0.2863154281743132E-33
   0.1012984941641106E+01
  -0.6653206116947881E-33
   0.1019259447996209E+01
  -0.6011584563876652E-33
   0.1234910554614847E+01
  -0.3645560455834929E-32
   0.1032980185110456E+01
  -0.3749677638950373E-33
   0.1046583638467579E+01
  -0.9584257203388210E-33
   0.1200461008371339E+01
  -0.2860322828585443E-32
   0.1014504356477224E+01
  -0.4687109446580631E-33
   0.1031892368870834E+01
  -0.8020965788425218E-33
   0.1028375142752712E+01
  -0.1089447483239856E-32
   0.1014845788576753E+01
  -0.6241049571816775E-33
   0.1029073307084029E+01
  -0.1373112571194389E-32
   0.1002080407487945E+01
  -0.1736116817696920E-33
   0.9621401817653310E+00
  -0.1537924693274764E-32
   0.1006807134313355E+01
  -0.3205335397034198E-33
   0.1001537961985528E+01
  -0.2435828246068272E-33
   0.1010605446161178E+01
  -0.3985521947405490E-33
   0.1012248905165910E+01
  -0.3036324254532539E-33
   0.1001047925377158E+01
  -0.2892834274451090E-33
   0.9972872453241779E+00
  -0.3418969851081804E-34
   0.9978249677162824E+00
  -0.1810629662946414E-33
   0.1001116545180367E+01
  -0.2545384550131049E-33
   0.9838204470594587E+00
  -0.3867240859762039E-33
   0.9808407242421652E+00
  -0.3733137686694143E-33
   0.9653613812500562E+00
  -0.1596609294896717E-32
   0.9688902731646213E+00
  -0.1642021078616632E-32
   0.9913867320667991E+00
  -0.4089081739378087E-33
   0.9913033738152852E+00
  -0.1519029426470179E-33
   0.9924499654348694E+00
   0.7264949535006592E-35
   0.1001939551080493E+01
  -0.2120249628747891E-33
   0.9994944958013081E+00
  -0.3061648008422435E-34
   0.9940522237249588E+00
   0.4041538997872062E-34
   0.1006988072657246E+01
   0.7635232795076223E-34
   0.1022221194402590E+01
  -0.1757590582830740E-33
   0.1000742636804124E+01
  -0.3825388987102904E-33
   0.1008918713637496E+01
  -0.3917797779728100E-33
   0.1004949826044665E+01
  -0.3571427781218796E-33
   0.1009093555032719E+01
  -0.4130697897104604E-33
   0.9967232935967140E+00
  -0.2410840644561549E-33
   0.1004971621879494E+01
  -0.2516626479837510E-32
   0.1003543350914265E+01
  -0.3097921395254030E-33
   0.9949818723443814E+00
  -0.1015609807045927E-33
   0.9827942753740969E+00
  -0.1738268489050337E-33
   0.9939983480111076E+00
  -0.5609046766070405E-34
   0.9970549763110911E+00
  -0.2214654987152944E-34
   0.9919138356333285E+00
   0.2316030035965742E-34
   0.1001240974747777E+01
  -0.2512804678119749E-33
   0.1003192427345809E+01
  -0.2993435800572532E-33
   0.1002174556152905E+01
  -0.2319442142454488E-33
   0.9936100681949366E+00
   0.1301270161229378E-33
   0.9937194722190997E+00
  -0.5718722222293510E-34
   0.1005130361514284E+01
  -0.3657958517477123E-33
   0.1019813425056610E+01
  -0.1960770243341388E-33
   0.1005421270509442E+01
  -0.2853020630516786E-33
   0.9816989787013113E+00
  -0.2001958323143585E-33
   0.1005148095043193E+01
  -0.3094016721547060E-33
   0.1012366735237739E+01
  -0.3838797663191782E-33
   0.9872336011565961E+00
  -0.1641252825141177E-32
   0.9550246544525807E+00
  -0.1118214913337584E-32
   0.9860586848367099E+00
  -0.1918915543643213E-33
   0.9866043131600817E+00
  -0.3379867142447014E-33
   0.9925193440929343E+00
  -0.1904616401864042E-32
   0.9931308550038236E+00
  -0.3685085252055873E-33
   0.9948952536291459E+00
  -0.1574667749650034E-32
   0.1037296046680760E+01
  -0.3505819189619638E-33
   0.1033015715191760E+01
  -0.1115428630306646E-32
   0.1001454862150513E+01
  -0.1222568235638443E-33
   0.1002005181991802E+01
  -0.2703360004607453E-33
   0.9897996521978059E+00
   0.5883989568807732E-34
   0.9907251148394146E+00
  -0.8293323213103911E-34
   0.9646455768505140E+00
  -0.7315881235161305E-33
   0.9920848215134925E+00
  -0.4277098568096095E-34
   0.1005418868864876E+01
   0.2882035063182141E-34
   0.1001496628923395E+01
   0.1631629521698966E-34
   0.9910386850927009E+00
  -0.1609153655604043E-33
   0.9741297641649056E+00
  -0.1124360449898963E-32
   0.9424060726446557E+00
  -0.2201767392280332E-32
   0.9820102507641648E+00
  -0.1202144504974318E-32
   0.9791544204582479E+00
  -0.1542903655052820E-33
   0.9713816149384230E+00
  -0.1362037186379383E-32
   0.9720530691776260E+00
  -0.1007531078584090E-32
   0.9554278773095254E+00
  -0.6220929624830529E-33
   0.9502413896975698E+00
  -0.1195266977570591E-32
   0.9545737784627979E+00
  -0.2010300994092875E-32
   0.1002932458334220E+01
  -0.3262908286428224E-33
   0.1002562230715086E+01
  -0.3025336072600035E-33
   0.1000541323126074E+01
  -0.1679878343602170E-33
   0.1001108797918291E+01
   0.7355483973961942E-34
   0.9616592909681010E+00
  -0.2074291771543271E-32
   0.9512265345198141E+00
  -0.2265662139958034E-32
   0.9602851469638007E+00
  -0.2032733443169370E-32
   0.1000865689607291E+01
  -0.2567727754849131E-33
   0.1000324352436861E+01
  -0.2045261322620473E-33
   0.1000906465853878E+01
  -0.2921294847213998E-34
   0.9809417604364297E+00
  -0.2121050207064814E-33
   0.9805261768489991E+00
  -0.9474748370521841E-33
   0.9640837780614875E+00
  -0.1654300413417122E-32
SCALARS u double 1
LOOKUP_TABLE default
   0.0000000000000000E+00
   0.0000000000000000E+00
   0.0000000000000000E+00
   0.0000000000000000E+00
   0.0000000000000000E+00
   0.0000000000000000E+00
   0.0000000000000000E+00
   0.0000000000000000E+00
   0.0000000000000000E+00
   0.0000000000000000E+00
   0.0000000000000000E+00
   0.0000000000000000E+00
   0.0000000000000000E+00
   0.0000000000000000E+00
   0.0000000000000000E+00
   0.0000000000000000E+00
   0.0000000000000000E+00
   0.0000000000000000E+00
   0.0000000000000000E+00
   0.0000000000000000E+00
   0.0000000000000000E+00
   0.0000000000000000E+00
   0.0000000000000000E+00
   0.0000000000000000E+00
   0.0000000000000000E+00
   0.0000000000000000E+00
   0.0000000000000000E+00
   0.0000000000000000E+00
   0.0000000000000000E+00
   0.0000000000000000E+00
   0.0000000000000000E+00
   0.0000000000000000E+00
   0.0000000000000000E+00
   0.0000000000000000E+00
   0.0000000000000000E+00
   0.0000000000000000E+00
   0.0000000000000000E+00
   0.0000000000000000E+00
   0.0000000000000000E+00
   0.0000000000000000E+00
   0.0000000000000000E+00
   0.0000000000000000E+00
   0.0000000000000000E+00
   0.0000000000000000E+00
   0.0000000000000000E+00
   0.0000000000000000E+00
   0.0000000000000000E+00
   0.0000000000000000E+00
   0.0000000000000000E+00
   0.0000000000000000E+00
   0.0000000000000000E+00
   0.0000000000000000E+00
   0.0000000000000000E+00
   0.0000000000000000E+00
   0.0000000000000000E+00
   0.0000000000000000E+00
   0.0000000000000000E+00
   0.0000000000000000E+00
   0.0000000000000000E+00
   0.0000000000000000E+00
   0.0000000000000000E+00
   0.0000000000000000E+00
   0.0000000000000000E+00
   0.0000000000000000E+00
   0.0000000000000000E+00
   0.0000000000000000E+00
   0.4956088279345610E+00
   0.1454366941390568E-32
   0.5336028971777893E+00
  -0.3499220058254317E-33
   0.5184450485809213E+00
  -0.4318881136181020E-33
   0.4933133805792277E+00
   0.3208719309418808E-34
   0.4841981490234034E+00
   0.3530009958441046E-33
   0.4837170322521641E+00
   0.5243544523502858E-33
   0.4863897384613604E+00
   0.5157571642717245E-33
   0.4963079453288717E+00
   0.2075829872338894E-33
   0.4896567684916248E+00
   0.3736545761427746E-33
   0.4720672482611443E+00
   0.7157150347942195E-33
   0.4463580839360031E+00
   0.5749027752112008E-33
   0.4827649172437862E+00
  -0.1062032356789853E-32
   0.5089240083233902E+00
   0.7159376644392949E-34
   0.4407506702889693E+00
   0.1295378926617949E-32
   0.4944059175687557E+00
   0.3676770709938848E-33
   0.5229414833732317E+00
   0.1263662796750799E-33
   0.4962113328389094E+00
   0.3477226538599653E-33
   0.5227252773339235E+00
   0.1744478553069190E-33
   0.5032083731940475E+00
   0.3095105952044107E-33
   0.5640222653751149E+00
  -0.2219700726878609E-33
   0.5252398845331606E+00
   0.5115211178002866E-34
   0.4980203182372672E+00
   0.3022775004464253E-33
   0.5719626553424919E+00
   0.3029795433148996E-34
   0.5688065660677235E+00
   0.2962518103120366E-33
   0.3730025263929178E+00
  -0.5745614323273385E-33
   0.4007150974052884E+00
   0.4266534825311106E-33
   0.5587988180019301E+00
  -0.3825983363288795E-33
   0.5564435980850713E+00
  -0.9984466426688694E-34
   0.4946070205201298E+00
  -0.1298141768052167E-35
   0.4954020890703071E+00
  -0.2078877856149593E-34
   0.4937887069182083E+00
  -0.4212576693686763E-34
   0.4918952700369215E+00
   0.4568400138637413E-34
   0.5164135097811439E+00
  -0.3096649400353514E-33
   0.5359192418660542E+00
  -0.3385036535698308E-33
   0.4957089560919715E+00
   0.1003742283386121E-32
   0.4530920750034137E+00
   0.2012166507095529E-32
   0.5123877367001841E+00
  -0.2638426104246168E-33
   0.5107432043210258E+00
  -0.2592058575017931E-33
   0.4790291047600012E+00
   0.1553448010824925E-32
   0.4944626123727711E+00
   0.1449096937821650E-32
   0.4614927590774924E+00
   0.2408911717240343E-32
   0.5257659112052145E+00
   0.6022156271277376E-33
   0.5298668677635974E+00
  -0.1566647600730042E-33
   0.5123506250375587E+00
  -0.2975591169707977E-33
   0.5330012243248008E+00
  -0.5855694631192406E-33
   0.5309373758990447E+00
  -0.4704274878488204E-33
   0.5300690753785395E+00
  -0.5814428813859588E-33
   0.5056169293034893E+00
  -0.2073617086360523E-33
   0.5285423540794485E+00
   0.3333053292896496E-33
   0.5403389548173200E+00
  -0.5135904499808627E-33
   0.5368093473138498E+00
   0.1015675255885025E-33
   0.5377911719219085E+00
  -0.4701074930428375E-33
   0.4974925002427542E+00
   0.1740933093297792E-33
   0.4981163008523725E+00
   0.1773003645270787E-33
   0.4967933544890827E+00
   0.1903891791451954E-33
   0.4957441690090543E+00
   0.2141346286365489E-33
   0.4878915027769664E+00
   0.4680379585043187E-33
   0.4876185036455840E+00
   0.4805686739278890E-33
   0.4855744435168508E+00
   0.3109685595226382E-33
   0.4864380783501674E+00
   0.2994723117767640E-33
   0.4916982559464616E+00
   0.3783142040552463E-33
   0.4891553760348585E+00
   0.4411266715916065E-33
   0.4852571563247510E+00
   0.2495949760876423E-33
   0.4886306924200984E+00
   0.2304962151400816E-33
   0.4891593043532307E+00
   0.2134048545996893E-33
   0.4864820345448242E+00
   0.4389201691046004E-33
   0.4864884601693417E+00
   0.4511166450418632E-33
   0.4945747634517705E+00
   0.3105413607932430E-33
   0.4872882733690070E+00
   0.5182004042739042E-33
   0.4875772047236124E+00
   0.5111321151636801E-33
   0.4930333112216173E+00
   0.3595324789470836E-33
   0.4847489963316647E+00
   0.4536601916871556E-33
   0.4867503333292464E+00
   0.5246146419437685E-33
   0.4860741812843655E+00
   0.5305943705036565E-33
   0.4863473319542573E+00
   0.4570850023939419E-33
   0.4453025377888664E+00
   0.4675471787800668E-33
   0.4698446885735178E+00
   0.6442352173145369E-33
   0.4891585189786357E+00
   0.3435146737214807E-33
   0.4880234324098419E+00
   0.3881572454552956E-33
   0.4508541986215309E+00
   0.1273360758685916E-32
   0.4675635714822936E+00
   0.5549027318131511E-33
   0.4875638097181309E+00
   0.3585382898173749E-33
   0.4867846703305048E+00
   0.3659232606459377E-33
   0.4910070759952704E+00
   0.3017952570450483E-33
   0.4794303207735977E+00
   0.6110380459149463E-33
   0.4668009664711900E+00
   0.5866284986371313E-33
   0.3794183367087288E+00
   0.1989844485182433E-32
   0.4896737061991780E+00
   0.2273439721329493E-33
   0.4493542209833688E+00
   0.7650276243071546E-33
   0.4441330454931373E+00
   0.1479710369995652E-32
   0.4845044462669979E+00
   0.4900690823894227E-33
   0.4634869325781650E+00
   0.7055520327282430E-33
   0.4670678931570890E+00
   0.7487024653653560E-33
   0.4748190089543871E+00
   0.6093644284131812E-33
   0.4893617551538737E+00
  -0.5011088570154107E-33
   0.5086596075075671E+00
   0.4171362277614255E-34
   0.4339262708570598E+00
   0.1213282672711632E-32
   0.4926474815179469E+00
   0.3378872875617346E-33
   0.5329860892521737E+00
   0.1079647846168548E-34
   0.4918407843206456E+00
   0.3273400822670432E-33
   0.5207224501429146E+00
   0.1390059286737019E-33
   0.5065004761765888E+00
   0.2444975783060529E-33
   0.5670296824556178E+00
  -0.1110725444659783E-33
   0.5283167985417165E+00
   0.1877524210672460E-34
   0.5014208323962385E+00
   0.2300181165196596E-33
   0.5802774552252239E+00
   0.2654908248768135E-33
   0.5677865473019117E+00
   0.3761286302751973E-33
   0.3413713418181529E+00
   0.1886015275495837E-33
   0.3799191811973410E+00
   0.6569088318378762E-33
   0.5737491347504682E+00
  -0.1382599606171301E-33
   0.5664341420576715E+00
  -0.9198488470034504E-34
   0.5693347636062521E+00
  -0.3269720424408120E-34
   0.5290190586687374E+00
   0.9761474261443972E-34
   0.5447941407676508E+00
   0.8036409976585171E-34
   0.5714556247217003E+00
  -0.3708360444831602E-34
   0.5388201780475124E+00
   0.2608876225540576E-33
   0.5474922101351739E+00
   0.2056289801994991E-33
   0.5819849040554356E+00
  -0.1991607615322291E-33
   0.4927287444245749E+00
   0.3112084808630814E-33
   0.5038081360801708E+00
   0.3023149395178098E-33
   0.4963777804866377E+00
   0.3531920564570505E-33
   0.5560551743114657E+00
  -0.2748048520890864E-33
   0.4759488690766228E+00
  -0.1564153195687732E-32
   0.4944703448952336E+00
   0.3651907259702993E-33
   0.5492269732029594E+00
   0.4603936774243520E-35
   0.5873511810397096E+00
   0.7697427920108644E-34
   0.5827117378132853E+00
  -0.1572151959567298E-33
   0.5459119783780852E+00
  -0.1797682894104950E-34
   0.5779713469400121E+00
  -0.1659202283925261E-33
   0.5101703931799491E+00
   0.2416102997877668E-33
   0.5024518105231128E+00
   0.3317473224557615E-33
   0.5028207581553163E+00
   0.2267796577323142E-33
   0.5662368375143174E+00
  -0.2310524301186970E-33
   0.5559265057093592E+00
   0.9138257822907569E-35
   0.4944845323776056E+00
   0.3625827407125599E-33
   0.5501273442853758E+00
  -0.4409711611144222E-34
   0.5508114156181932E+00