# vtk DataFile Version 2.0
FUN3D:global_image_vtk
ASCII
DATASET UNSTRUCTURED_GRID
POINTS 213 double
   -0.4769284392886393E-18    0.0000000000000000E+00    0.2500000000000000E+01
    0.0000000000000000E+00   -0.4769284392886393E-18    0.0000000000000000E+00
    0.1250000000000000E+01    0.0000000000000000E+00    0.2500000000000000E+01
    0.0000000000000000E+00   -0.4769284392886393E-18    0.0000000000000000E+00
    0.2500000000000000E+01    0.0000000000000000E+00    0.2500000000000000E+01
    0.0000000000000000E+00   -0.4769284392886393E-18    0.0000000000000000E+00
    0.3750000000000000E+01    0.0000000000000000E+00    0.2500000000000000E+01
    0.0000000000000000E+00   -0.4769284392886393E-18    0.0000000000000000E+00
    0.5000000000000000E+01    0.0000000000000000E+00    0.2500000000000000E+01
    0.0000000000000000E+00   -0.4769284392886393E-18    0.0000000000000000E+00
    0.5000000000000000E+01    0.0000000000000000E+00    0.1250000000000000E+01
    0.0000000000000000E+00   -0.4769284392886393E-18    0.0000000000000000E+00
    0.5000000000000000E+01    0.0000000000000000E+00   -0.4769284392886393E-18
    0.0000000000000000E+00   -0.4769284392886393E-18    0.0000000000000000E+00
    0.5000000000000000E+01    0.0000000000000000E+00   -0.1250000000000000E+01
    0.0000000000000000E+00   -0.4769284392886393E-18    0.0000000000000000E+00
    0.5000000000000000E+01    0.0000000000000000E+00   -0.2500000000000000E+01
    0.0000000000000000E+00   -0.4769284392886393E-18    0.0000000000000000E+00
    0.3750000000000000E+01    0.0000000000000000E+00   -0.2500000000000000E+01
    0.0000000000000000E+00   -0.4769284392886393E-18    0.0000000000000000E+00
    0.2500000000000000E+01    0.0000000000000000E+00   -0.2500000000000000E+01
    0.0000000000000000E+00   -0.4769284392886393E-18    0.0000000000000000E+00
    0.1250000000000000E+01    0.0000000000000000E+00   -0.2500000000000000E+01
    0.0000000000000000E+00   -0.4769284392886393E-18    0.0000000000000000E+00
   -0.4769284392886393E-18    0.0000000000000000E+00   -0.2500000000000000E+01
    0.0000000000000000E+00   -0.4769284392886393E-18    0.0000000000000000E+00
   -0.4769284392886393E-18    0.0000000000000000E+00   -0.1250000000000000E+01
    0.0000000000000000E+00   -0.4769284392886393E-18    0.0000000000000000E+00
   -0.4769284392886393E-18    0.0000000000000000E+00   -0.4769284392886393E-18
    0.0000000000000000E+00   -0.4769284392886393E-18    0.0000000000000000E+00
   -0.4769284392886393E-18    0.0000000000000000E+00    0.1250000000000000E+01
    0.0000000000000000E+00   -0.4769284392886393E-18    0.0000000000000000E+00
    0.9058375365086910E+00    0.0000000000000000E+00    0.1578994732800803E+01
    0.0000000000000000E+00   -0.4769284392886393E-18    0.0000000000000000E+00
    0.3982050490726493E+01    0.0000000000000000E+00   -0.1583989954232354E+01
    0.0000000000000000E+00   -0.4769284392886393E-18    0.0000000000000000E+00
    0.4033849428301197E+01    0.0000000000000000E+00    0.1453322699199022E+01
    0.0000000000000000E+00   -0.4769284392886393E-18    0.0000000000000000E+00
    0.1040505887381675E+01    0.0000000000000000E+00   -0.1479596339503735E+01
    0.0000000000000000E+00   -0.4769284392886393E-18    0.0000000000000000E+00
    0.1099454400140349E+01    0.0000000000000000E+00   -0.3227322616384110E+00
    0.0000000000000000E+00   -0.4769284392886393E-18    0.0000000000000000E+00
    0.7354504170366591E+00    0.0000000000000000E+00    0.6593508822075582E+00
    0.0000000000000000E+00   -0.4769284392886393E-18    0.0000000000000000E+00
    0.1622302608453282E+01    0.0000000000000000E+00    0.8256214013940779E+00
    0.0000000000000000E+00   -0.4769284392886393E-18    0.0000000000000000E+00
    0.2145871574390382E+01    0.0000000000000000E+00   -0.1650070333782557E+01
    0.0000000000000000E+00   -0.4769284392886393E-18    0.0000000000000000E+00
    0.4086422318222992E+01    0.0000000000000000E+00   -0.4612828702537229E+00
    0.0000000000000000E+00   -0.4769284392886393E-18    0.0000000000000000E+00
    0.2979540174134984E+01    0.0000000000000000E+00   -0.8579242121530853E+00
    0.0000000000000000E+00   -0.4769284392886393E-18    0.0000000000000000E+00
    0.3045064261640043E+01    0.0000000000000000E+00   -0.1836846154397680E+01
    0.0000000000000000E+00   -0.4769284392886393E-18    0.0000000000000000E+00
    0.3428197553792836E+01    0.0000000000000000E+00    0.3508002863614053E+00
    0.0000000000000000E+00   -0.4769284392886393E-18    0.0000000000000000E+00
    0.4309693860063405E+01    0.0000000000000000E+00    0.5185680230613409E+00
    0.0000000000000000E+00   -0.4769284392886393E-18    0.0000000000000000E+00
    0.1827272193562204E+01    0.0000000000000000E+00    0.1738996113203182E+01
    0.0000000000000000E+00   -0.4769284392886393E-18    0.0000000000000000E+00
    0.2808563282768077E+01    0.0000000000000000E+00    0.1325493893339706E+01
    0.0000000000000000E+00   -0.4769284392886393E-18    0.0000000000000000E+00
    0.1895995683864404E+01    0.0000000000000000E+00   -0.8731419609589618E+00
    0.0000000000000000E+00   -0.4769284392886393E-18    0.0000000000000000E+00
    0.2273179336307740E+01    0.0000000000000000E+00    0.4906150219227333E-01
    0.0000000000000000E+00   -0.4769284392886393E-18    0.0000000000000000E+00
    0.5000000000000000E+01    0.0000000000000000E+00    0.2500000000000000E+01
    0.0000000000000000E+00    0.1250000000000000E+01    0.0000000000000000E+00
    0.5000000000000000E+01    0.0000000000000000E+00    0.2500000000000000E+01
    0.0000000000000000E+00    0.2500000000000000E+01    0.0000000000000000E+00
    0.5000000000000000E+01    0.0000000000000000E+00    0.2500000000000000E+01
    0.0000000000000000E+00    0.3750000000000000E+01    0.0000000000000000E+00
    0.5000000000000000E+01    0.0000000000000000E+00    0.2500000000000000E+01
    0.0000000000000000E+00    0.5000000000000000E+01    0.0000000000000000E+00
    0.3750000000000000E+01    0.0000000000000000E+00    0.2500000000000000E+01
    0.0000000000000000E+00    0.5000000000000000E+01    0.0000000000000000E+00
    0.2500000000000000E+01    0.0000000000000000E+00    0.2500000000000000E+01
    0.0000000000000000E+00    0.5000000000000000E+01    0.0000000000000000E+00
    0.1250000000000000E+01    0.0000000000000000E+00    0.2500000000000000E+01
    0.0000000000000000E+00    0.5000000000000000E+01    0.0000000000000000E+00
   -0.4769284392886393E-18    0.0000000000000000E+00    0.2500000000000000E+01
    0.0000000000000000E+00    0.5000000000000000E+01    0.0000000000000000E+00
   -0.4769284392886393E-18    0.0000000000000000E+00    0.2500000000000000E+01
    0.0000000000000000E+00    0.3750000000000000E+01    0.0000000000000000E+00
   -0.4769284392886393E-18    0.0000000000000000E+00    0.2500000000000000E+01
    0.0000000000000000E+00    0.2500000000000000E+01    0.0000000000000000E+00
   -0.4769284392886393E-18    0.0000000000000000E+00    0.2500000000000000E+01
    0.0000000000000000E+00    0.1250000000000000E+01    0.0000000000000000E+00
    0.9631080833812172E+00    0.0000000000000000E+00    0.2500000000000000E+01
    0.0000000000000000E+00    0.9613285771248219E+00    0.0000000000000000E+00
    0.3981732467264904E+01    0.0000000000000000E+00    0.2500000000000000E+01
    0.0000000000000000E+00    0.4069753913607991E+01    0.0000000000000000E+00
    0.4035525118777670E+01    0.0000000000000000E+00    0.2500000000000000E+01
    0.0000000000000000E+00    0.1012015867579395E+01    0.0000000000000000E+00
    0.9641717640894248E+00    0.0000000000000000E+00    0.2500000000000000E+01
    0.0000000000000000E+00    0.3972455192261839E+01    0.0000000000000000E+00
    0.1547743040396780E+01    0.0000000000000000E+00    0.2500000000000000E+01
    0.0000000000000000E+00    0.2928177746738678E+01    0.0000000000000000E+00
    0.6985170616192014E+00    0.0000000000000000E+00    0.2500000000000000E+01
    0.0000000000000000E+00    0.3068281976055466E+01    0.0000000000000000E+00
    0.8931277594515110E+00    0.0000000000000000E+00    0.2500000000000000E+01
    0.0000000000000000E+00    0.2052465503257726E+01    0.0000000000000000E+00
    0.2183293750162785E+01    0.0000000000000000E+00    0.2500000000000000E+01
    0.0000000000000000E+00    0.3959073795658649E+01    0.0000000000000000E+00
    0.3855333506014705E+01    0.0000000000000000E+00    0.2500000000000000E+01
    0.0000000000000000E+00    0.2931218481500625E+01    0.0000000000000000E+00
    0.3152495579421047E+01    0.0000000000000000E+00    0.2500000000000000E+01
    0.0000000000000000E+00    0.3635850502723324E+01    0.0000000000000000E+00
    0.3103247580566054E+01    0.0000000000000000E+00    0.2500000000000000E+01
    0.0000000000000000E+00    0.4331682712472464E+01    0.0000000000000000E+00
    0.3266837581688852E+01    0.0000000000000000E+00    0.2500000000000000E+01
    0.0000000000000000E+00    0.1886092433583972E+01    0.0000000000000000E+00
    0.4231539241296245E+01    0.0000000000000000E+00    0.2500000000000000E+01
    0.0000000000000000E+00    0.1915865356532799E+01    0.0000000000000000E+00
    0.1909741006522088E+01    0.0000000000000000E+00    0.2500000000000000E+01
    0.0000000000000000E+00    0.7170024419130505E+00    0.0000000000000000E+00
    0.2880784107213163E+01    0.0000000000000000E+00    0.2500000000000000E+01
    0.0000000000000000E+00    0.9046598906449592E+00    0.0000000000000000E+00
    0.2014316024535771E+01    0.0000000000000000E+00    0.2500000000000000E+01
    0.0000000000000000E+00    0.1762464314805728E+01    0.0000000000000000E+00
    0.2670003247036656E+01    0.0000000000000000E+00    0.2500000000000000E+01
    0.0000000000000000E+00    0.2850479545835163E+01    0.0000000000000000E+00
    0.5000000000000000E+01    0.0000000000000000E+00    0.1250000000000000E+01
    0.0000000000000000E+00    0.5000000000000000E+01    0.0000000000000000E+00
    0.5000000000000000E+01    0.0000000000000000E+00   -0.4769284392886393E-18
[...]
POINT_DATA 213
SCALARS rho double 1
LOOKUP_TABLE default
   0.1344271208743156E+01
  -0.1928282393908312E-31
   0.9569753658251822E+00
  -0.2975531333466242E-32
   0.9462958492651485E+00
  -0.2740487959233847E-32
   0.9418607970248424E+00
  -0.3820642388895376E-32
   0.8437304692397506E+00
  -0.5453473946368422E-32
   0.7737999653814924E+00
  -0.5551209403472710E-32
   0.7629813032725988E+00
  -0.5640025735327832E-32
   0.7664566247454806E+00
  -0.5583693029521252E-32
   0.8307870632238624E+00
  -0.5444582499831119E-32
   0.9352971456285737E+00
  -0.3901334761120924E-32
   0.9342214703379683E+00
  -0.3069198000771542E-32
   0.9617188898713172E+00
  -0.3095983526760554E-32
   0.1449457028262346E+01
  -0.1164881661462272E-31
   0.1494090139718450E+01
  -0.1158714119309417E-31
   0.1644666868332951E+01
  -0.1495062052086892E-31
   0.1425831830488489E+01
  -0.1139475696759885E-31
   0.1009013943392494E+01
  -0.4175693833529796E-32
   0.9508806827993804E+00
  -0.3941495334632179E-32
   0.9436506568398926E+00
  -0.3978351906492542E-32
   0.9581556332476562E+00
  -0.2759062870292967E-32
   0.9415847365055365E+00
  -0.2397382656575232E-32
   0.1036376813577931E+01
  -0.4045701494154783E-32
   0.9256155195308272E+00
  -0.2282741307825407E-32
   0.9322343768824537E+00
  -0.2807184214152803E-32
   0.9537476564352412E+00
  -0.4006413591866927E-32
   0.9518766725709570E+00
  -0.3491712536940524E-32
   0.9348579474685765E+00
  -0.3481927080449874E-32
   0.9564026853225704E+00
  -0.3739261797210253E-32
   0.9376096248982138E+00
  -0.4071818163243263E-32
   0.9300655883258414E+00
  -0.2036805814300886E-32
   0.9445152941574801E+00
  -0.3138373184204357E-32
   0.8863500475601861E+00
  -0.2153616860409241E-32
   0.9423576213017001E+00
  -0.2963498728555757E-32
   0.9635049396699038E+00
  -0.1730728189391733E-32
   0.1008297547025386E+01
  -0.1424621234431523E-33
   0.1006736524546101E+01
   0.5369945940681641E-34
   0.1001962597801218E+01
  -0.1691131824177089E-33
   0.1003217542078205E+01
  -0.2754877707682629E-33
   0.1004131523326936E+01
  -0.3103906330315799E-33
   0.1005228017122322E+01
  -0.2754546929296547E-33
   0.1004260078681662E+01
  -0.2172939946351408E-33
   0.1008307819760823E+01
  -0.3337002723826602E-33
   0.1023892679907486E+01
  -0.7543289119393990E-33
   0.1063553379465345E+01
  -0.3298224617258458E-33
   0.1019182199002392E+01
  -0.2264968945966470E-32
   0.1001781828223952E+01
  -0.1589042194068386E-33
   0.9643370754698450E+00
  -0.2158911472128610E-32
   0.1005283223763631E+01
  -0.3199703443086908E-33
   0.1000720594839597E+01
  -0.2039662077438723E-33
   0.1008741628509914E+01
  -0.4310812049037242E-33
   0.1008077615448712E+01
  -0.1915678626185314E-33
   0.1002349081070992E+01
  -0.2883457244123552E-33
   0.9979976478334981E+00
  -0.6196511580163649E-34
   0.1000582805805210E+01
  -0.1500278125902539E-33
   0.1001619700097878E+01
  -0.2711295906331656E-33
   0.9826888157005507E+00
  -0.7000937731949753E-33
   0.9842444304112824E+00
  -0.7269141770388456E-33
   0.9833309163150765E+00
  -0.2330494322266572E-32
   0.9788228467488826E+00
  -0.2203310720360128E-32
   0.9902631161621154E+00
  -0.6302746340947183E-33
   0.9934556334018073E+00
  -0.1438725070657892E-33
   0.1002008567473647E+01
  -0.1564954328311314E-33
   0.1002131937673254E+01
  -0.1504142434071755E-33
   0.1002273868456554E+01
  -0.1465207314946587E-33
   0.1001792588461462E+01
  -0.1751518479053365E-33
   0.1009780380579418E+01
  -0.1197464250156469E-34
   0.1006428770860001E+01
  -0.3695596641939245E-35
   0.9558785334444695E+00
  -0.1098901518791086E-32
   0.9249414604341075E+00
  -0.2388757099616161E-32
   0.1007037222691421E+01
  -0.9935124286090150E-35
   0.1004506706961229E+01
  -0.7993091119111762E-35
   0.9143642040432440E+00
  -0.1658015831373468E-32
   0.9089674250232126E+00
  -0.1513780711474078E-32
   0.8751689923707653E+00
  -0.2639432751365509E-32
   0.9767263162276515E+00
  -0.7204101063377461E-33
   0.1000451720931536E+01
  -0.1075227017612976E-33
   0.1005832110593833E+01
   0.2613108358510802E-34
   0.1012882859489588E+01
   0.2235790945289644E-33
   0.1011619456396879E+01
   0.8361319146424726E-34
   0.1010439651424229E+01
   0.2405914492613131E-33
   0.1005469850623962E+01
  -0.1676466690386601E-34
   0.9907607348799610E+00
  -0.7345546231847920E-33
   0.1005139244633201E+01
   0.7823150626996663E-34
   0.9860561064223060E+00
  -0.1678248114451149E-33
   0.1005608731304574E+01
   0.1985701263845537E-33
   0.1004247665136318E+01
  -0.2228820793477855E-33
   0.1002888227907121E+01
  -0.2014708238143121E-33
   0.1003345233720857E+01
  -0.1914739870736031E-33
   0.1003992934909404E+01
  -0.1975272208279442E-33
   0.1005101252207391E+01
  -0.2631387247262296E-33
   0.1003211245594890E+01
  -0.2826524145109852E-33
   0.1002661000016799E+01
  -0.2403167227061070E-33
   0.1002582352603753E+01
  -0.2855588739090117E-33
   0.1004060478935644E+01
  -0.2192419145807298E-33
   0.1004319750397031E+01
  -0.2364711980658762E-33
   0.1001639798528715E+01
  -0.2821542419296040E-33
   0.1002269923934981E+01
  -0.2714372094492152E-33
   0.1002539699031923E+01
  -0.2616299926838073E-33
   0.1003467879762533E+01
  -0.3217343880610127E-33
   0.1003371755134113E+01
  -0.2770770849763359E-33
   0.1003231840627070E+01
  -0.2057778878231787E-33
   0.1004423356068629E+01
  -0.2792541129767729E-33
   0.1004312869666045E+01
  -0.2847079599988926E-33
   0.1003659577420928E+01
  -0.2016954781180917E-33
   0.1003722447189293E+01
  -0.2861827859060904E-33
   0.1004328701856378E+01
  -0.2948487090389851E-33
   0.1004464189868483E+01
  -0.3295815976549477E-33
   0.1003622266484556E+01
  -0.2970218884798485E-33
   0.1064422805944827E+01
  -0.3271719200772094E-33
   0.1028473136900194E+01
  -0.6739119055740841E-33
   0.1009586336869956E+01
  -0.3297517086198424E-33
   0.1006638479373200E+01
  -0.3140193320796306E-33
   0.1163935047973613E+01
  -0.1936467687453179E-32
   0.1086087624512972E+01
  -0.2072455394659112E-33
   0.1007893018435077E+01
  -0.3218860063128305E-33
   0.1007245102800848E+01
  -0.3110615431759336E-33
   0.1006797771305055E+01
  -0.2877417485945788E-33
   0.1013017832751432E+01
  -0.6515674029078108E-33
   0.1019384062990982E+01
  -0.6003303610068944E-33
   0.1235203388345514E+01
  -0.3625417539458226E-32
   0.1032529210204954E+01
  -0.3550511780216635E-33
   0.1046680598261594E+01
  -0.9425151407292002E-33
   0.1200953383362380E+01
  -0.2853990487034901E-32
   0.1014718475915085E+01
  -0.4712679551662032E-33
   0.1032290602161212E+01
  -0.8167815231195306E-33
   0.1028094683016189E+01
  -0.1073166358040933E-32
   0.1014628090073961E+01
  -0.5972279054073095E-33
   0.1029216450567785E+01
  -0.1371221120220781E-32
   0.1001995313676447E+01
  -0.1816448836765662E-33
   0.9606935935665725E+00
  -0.1520962575085670E-32
   0.1006852001752343E+01
  -0.3083419703733227E-33
   0.1001326718815617E+01
  -0.2359722189997475E-33
   0.1010821283857063E+01
  -0.3917592767890637E-33
   0.1012245682367289E+01
  -0.2928247640029032E-33
   0.1000945521310781E+01
  -0.2787125813706673E-33
   0.9979118584834789E+00
  -0.6393026729207685E-34
   0.9980626118553807E+00
  -0.1907037284507743E-33
   0.1001183410970716E+01
  -0.2493772624307044E-33
   0.9841357044296767E+00
  -0.3900599189203556E-33
   0.9814876453860876E+00
  -0.3992220569449253E-33
   0.9648480956372623E+00
  -0.1572590328294596E-32
   0.9680872737303207E+00
  -0.1608125511999788E-32
   0.9914121517588468E+00
  -0.4074718543162372E-33
   0.9910855269552075E+00
  -0.1515196792076308E-33
   0.9925540310557752E+00
  -0.7958417747009902E-35
   0.1001726950842996E+01
  -0.1968337130694925E-33
   0.9993404000609891E+00
  -0.2590884416759936E-34
   0.9941406545737032E+00
   0.3034569715094211E-34
   0.1007038267324866E+01
   0.7704313250281998E-34
   0.1022539075333251E+01
  -0.1779992490216664E-33
   0.1001087799077650E+01
  -0.3870586688519823E-33
   0.1008797957912882E+01
  -0.3738772070729527E-33
   0.1004773313297475E+01
  -0.3298208984806044E-33
   0.1009049752747409E+01
  -0.3967979470912663E-33
   0.9966466436349962E+00
  -0.2323553061864737E-33
   0.1004988210884523E+01
  -0.2497191628020118E-32
   0.1003325054138226E+01
  -0.2892952371555733E-33
   0.9949426557857312E+00
  -0.1047797200638184E-33
   0.9832678209903016E+00
  -0.2009393080970198E-33
   0.9943951204066468E+00
  -0.7609287644171301E-34
   0.9973415609540753E+00
  -0.4443469820953636E-34
   0.9932183039299604E+00
  -0.1584223117894487E-34
   0.1001305687267342E+01
  -0.2534747162934948E-33
   0.1003001012649300E+01
  -0.2796536651100627E-33
   0.1002183019128480E+01
  -0.2374768598008786E-33
   0.9947076969751588E+00
   0.7801202987629964E-34
   0.9937961218915177E+00
  -0.6992456500491040E-34
   0.1004867357112860E+01
  -0.3387109820054188E-33
   0.1020077193971887E+01
  -0.1930439307221107E-33
   0.1005364189650243E+01
  -0.2737290428758957E-33
   0.9816994966178648E+00
  -0.2023151468378094E-33
   0.1004972507256654E+01
  -0.2917325840855584E-33
   0.1012381722037847E+01
  -0.3712760043736260E-33
   0.9871421276739216E+00
  -0.1628238858471676E-32
   0.9551509554450284E+00
  -0.1127641045240675E-32
   0.9865071477366548E+00
  -0.2211680253214690E-33
   0.9864529268572603E+00
  -0.3388019160866752E-33
   0.9918942187421210E+00
  -0.1874179796918530E-32
   0.9933504726848584E+00
  -0.3728968589514018E-33
   0.9954401745756127E+00
  -0.1565328742063870E-32
   0.1037336480991592E+01
  -0.3394208754636852E-33
   0.1033536385075520E+01
  -0.1115515447646566E-32
   0.1001443721315982E+01
  -0.1342196287448558E-33
   0.1001929835001909E+01
  -0.2563127453855183E-33
   0.9912472975837854E+00
   0.1385034896561509E-35
   0.9910915033075602E+00
  -0.1051046549226013E-33
   0.9648483303146033E+00
  -0.7596022469559127E-33
   0.9933277824519059E+00
  -0.9673850266538301E-34
   0.1006058688374856E+01
  -0.1064624119372052E-34
   0.1001953965961506E+01
  -0.1683461764933685E-34
   0.9908730288906507E+00
  -0.1567597339037511E-33
   0.9740944811345102E+00
  -0.1142836879046191E-32
   0.9418804200712980E+00
  -0.2214257269833580E-32
   0.9819375028786549E+00
  -0.1186814597413540E-32
   0.9794798828403503E+00
  -0.1870832242748770E-33
   0.9704169889964764E+00
  -0.1362412867579667E-32
   0.9720473138963193E+00
  -0.1009886556535121E-32
   0.9557349865600552E+00
  -0.6648717067030592E-33
   0.9496732352109812E+00
  -0.1216954342148731E-32
   0.9528674744137920E+00
  -0.2014478868838989E-32
   0.1002658943400377E+01
  -0.3054431752773481E-33
   0.1002470941125969E+01
  -0.2887950444286706E-33
   0.1000509066320843E+01
  -0.1724264236822164E-33
   0.1001677410833050E+01
   0.3304018000752656E-34
   0.9607925489756477E+00
  -0.2070344486546873E-32
   0.9491634586198587E+00
  -0.2269422691123644E-32
   0.9584505340032724E+00
  -0.2025906365031860E-32
   0.1001120983825322E+01
  -0.2587112882479406E-33
   0.1000495893937605E+01
  -0.2081831729884214E-33
   0.1001156198482140E+01
  -0.6026348644457705E-34
   0.9807373266177714E+00
  -0.2102045160832492E-33
   0.9805995713467746E+00
  -0.9424006215920962E-33
   0.9628478419959685E+00
  -0.1659510838704586E-32
SCALARS u double 1
LOOKUP_TABLE default
   0.0000000000000000E+00
   0.0000000000000000E+00
   0.0000000000000000E+00
   0.0000000000000000E+00
   0.0000000000000000E+00
   0.0000000000000000E+00
   0.0000000000000000E+00
   0.0000000000000000E+00
   0.0000000000000000E+00
   0.0000000000000000E+00
   0.0000000000000000E+00
   0.0000000000000000E+00
   0.0000000000000000E+00
   0.0000000000000000E+00
   0.0000000000000000E+00
   0.0000000000000000E+00
   0.0000000000000000E+00
   0.0000000000000000E+00
   0.0000000000000000E+00
   0.0000000000000000E+00
   0.0000000000000000E+00
   0.0000000000000000E+00
   0.0000000000000000E+00
   0.0000000000000000E+00
   0.0000000000000000E+00
   0.0000000000000000E+00
   0.0000000000000000E+00
   0.0000000000000000E+00
   0.0000000000000000E+00
   0.0000000000000000E+00
   0.0000000000000000E+00
   0.0000000000000000E+00
   0.0000000000000000E+00
   0.0000000000000000E+00
   0.0000000000000000E+00
   0.0000000000000000E+00
   0.0000000000000000E+00
   0.0000000000000000E+00
   0.0000000000000000E+00
   0.0000000000000000E+00
   0.0000000000000000E+00
   0.0000000000000000E+00
   0.0000000000000000E+00
   0.0000000000000000E+00
   0.0000000000000000E+00
   0.0000000000000000E+00
   0.0000000000000000E+00
   0.0000000000000000E+00
   0.0000000000000000E+00
   0.0000000000000000E+00
   0.0000000000000000E+00
   0.0000000000000000E+00
   0.0000000000000000E+00
   0.0000000000000000E+00
   0.0000000000000000E+00
   0.0000000000000000E+00
   0.0000000000000000E+00
   0.0000000000000000E+00
   0.0000000000000000E+00
   0.0000000000000000E+00
   0.0000000000000000E+00
   0.0000000000000000E+00
   0.0000000000000000E+00
   0.0000000000000000E+00
   0.0000000000000000E+00
   0.0000000000000000E+00
   0.4950110135177475E+00
   0.1398290567881292E-32
   0.5338225452507860E+00
  -0.3133312929176720E-33
   0.5183272202604148E+00
  -0.3979908883501967E-33
   0.4930668744961674E+00
  -0.2837824243241681E-35
   0.4847615483190381E+00
   0.3231896969346930E-33
   0.4867708650422330E+00
   0.4269686432835305E-33
   0.4890781397619775E+00
   0.3948892554313864E-33
   0.4957852386269466E+00
   0.2356494626422972E-33
   0.4898308252046907E+00
   0.3623046783427544E-33
   0.4717392714041079E+00
   0.7149137367465076E-33
   0.4454820090654927E+00
   0.5933787630137391E-33
   0.4833909694084756E+00
  -0.1087412433404580E-32
   0.5098448339989566E+00
   0.6542997581383972E-35
   0.4390689329443589E+00
   0.1212099699162903E-32
   0.4949406631077447E+00
   0.3119914664562280E-33
   0.5225336460441181E+00
   0.1072727821343423E-33
   0.4962460559077462E+00
   0.3296644572847409E-33
   0.5226160334744856E+00
   0.1705064939226902E-33
   0.5038889833402026E+00
   0.2410239548188762E-33
   0.5646883774180113E+00
  -0.1996302066811425E-33
   0.5247516906831282E+00
   0.2243320058982450E-34
   0.4991503247121017E+00
   0.2341678927784537E-33
   0.5730562759439213E+00
  -0.4307483533960466E-35
   0.5696032647877948E+00
   0.2731440855423535E-33
   0.3737941480915273E+00
  -0.6392870911466102E-33
   0.3998649565404121E+00
   0.3243441103101869E-33
   0.5599333490371372E+00
  -0.3988584853956992E-33
   0.5564591911373037E+00
  -0.1069611835808377E-33
   0.4942646007925786E+00
  -0.2391256286002431E-34
   0.4948669616837152E+00
  -0.3629464904299193E-34
   0.4925722795776320E+00
  -0.4573193431118730E-34
   0.4914259436616050E+00
   0.4642663043818187E-35
   0.5162367828718877E+00
  -0.3097888040572775E-33
   0.5361799214811671E+00
  -0.3044496646727718E-33
   0.4947403930445520E+00
   0.9766273307240159E-33
   0.4524087677301213E+00
   0.1967127989553283E-32
   0.5128784557796016E+00
  -0.2782138984967925E-33
   0.5117944343724375E+00
  -0.2883282516907728E-33
   0.4783506580390658E+00
   0.1522016185155849E-32
   0.4931686301359966E+00
   0.1435069808410160E-32
   0.4603167332212271E+00
   0.2384239740231797E-32
   0.5244892851575599E+00
   0.5995491070244826E-33
   0.5297435782266388E+00
  -0.1149532634051615E-33
   0.5129577279143047E+00
  -0.3130346375819509E-33
   0.5328357023602476E+00
  -0.5322247358632730E-33
   0.5308945474151465E+00
  -0.4303115316796413E-33
   0.5309850998489841E+00
  -0.5571222499780182E-33
   0.5063656845531452E+00
  -0.2452178960839719E-33
   0.5282454138160328E+00
   0.3303154825503260E-33
   0.5410314682578550E+00
  -0.4711382921633931E-33
   0.5361259217070976E+00
   0.1359762266492540E-33
   0.5374106357526819E+00
  -0.4146499176066591E-33
   0.4965368166410129E+00
   0.2131840969006124E-33
   0.4975343342388953E+00
   0.1946214221362386E-33
   0.4963843263529136E+00
   0.2043668259436122E-33
   0.4955221093881108E+00
   0.2164006304094627E-33
   0.4904588019988529E+00
   0.3840871558080947E-33
   0.4903057945595790E+00
   0.4053177940327979E-33
   0.4862158701849239E+00
   0.2954401413110299E-33
   0.4854072199922344E+00
   0.2712157322018833E-33
   0.4932172234146755E+00
   0.3172393410300352E-33
   0.4909844512575038E+00
   0.3522726929081101E-33
   0.4832164990637517E+00
   0.2591166003445614E-33
   0.4872625898320951E+00
   0.2273753669662381E-33
   0.4880148002517458E+00
   0.1923558183213043E-33
   0.4872477241493364E+00
   0.3796406259730267E-33
   0.4882690327088136E+00
   0.3994389316425317E-33
   0.4952602389710313E+00
   0.2762890554393577E-33
   0.4900976087306920E+00
   0.4239225831856239E-33
   0.4904008965709802E+00
   0.4173461802212902E-33
   0.4944239625493149E+00
   0.3049504059825849E-33
   0.4868046650618161E+00
   0.3860957085569662E-33
   0.4892409161702326E+00
   0.4198874608458673E-33
   0.4881405474573043E+00
   0.4391415908764640E-33
   0.4878464082058360E+00
   0.3949264194011352E-33
   0.4446864134236411E+00
   0.4691860356294703E-33
   0.4700033910255232E+00
   0.6215875077904118E-33
   0.4892002185200637E+00
   0.3384649084350474E-33
   0.4885244054742418E+00
   0.3487616473370075E-33
   0.4506542225508999E+00
   0.1241496162471419E-32
   0.4687377378977135E+00
   0.4909887938995086E-33
   0.4877011039949752E+00
   0.3448063128505224E-33
   0.4868355579664284E+00
   0.3457096303026291E-33
   0.4908993811247634E+00
   0.2902100431341662E-33
   0.4793557143009931E+00
   0.5998677921450397E-33
   0.4658078892434994E+00
   0.6083522193727084E-33
   0.3792728855110427E+00
   0.1960447035773088E-32
   0.4901597505965163E+00
   0.2133037167699307E-33
   0.4486692405105644E+00
   0.7644929727077660E-33
   0.4436142181969397E+00
   0.1479919937132702E-32
   0.4845151868371559E+00
   0.4829701347488333E-33
   0.4621829420331314E+00
   0.7428368083225039E-33
   0.4665756929957875E+00
   0.7625308818464257E-33
   0.4748147314909839E+00
   0.5911272769633345E-33
   0.4894497516493716E+00
  -0.5099277510678514E-33
   0.5085609645317740E+00
  -0.4212107832299013E-35
   0.4315071842695237E+00
   0.1202768210533231E-32
   0.4927356290547718E+00
   0.3118635314953338E-33
   0.5318295952003896E+00
   0.1018807042017058E-34
   0.4913405852453538E+00
   0.3277950788001557E-33
   0.5207023235059973E+00
   0.1268742126285064E-33
   0.5060988232062997E+00
   0.2037244564269381E-33
   0.5688805978582722E+00
  -0.1509995046628473E-33
   0.5274018789187445E+00
  -0.1929310865221142E-35
   0.5015077354570397E+00
   0.2013145261865276E-33
   0.5821787292985573E+00
   0.2321158105606692E-33
   0.5689608799103975E+00
   0.3572988951687021E-33
   0.3406396586589405E+00
   0.1652755505485424E-33
   0.3789867443690588E+00
   0.6268732704607102E-33
   0.5751961259675451E+00
  -0.1594688986701745E-33
   0.5666490233945198E+00
  -0.1119108193246121E-33
   0.5704107661264175E+00
  -0.4884357614843662E-34
   0.5291061772628953E+00
   0.6198576234790502E-34
   0.5451907103478231E+00
   0.5562583344213396E-34
   0.5718807983442168E+00
  -0.3828148686194932E-34
   0.5389084365164430E+00
   0.2541681198306652E-33
   0.5475510981847469E+00
   0.1978709824199648E-33
   0.5821718717412961E+00
  -0.1946809832915260E-33
   0.4925606393089971E+00
   0.2852533440887648E-33
   0.5042161174148697E+00
   0.2405127898791327E-33
   0.4961740394242276E+00
   0.3344774173662604E-33
   0.5565212879502934E+00
  -0.2897786643273036E-33
   0.4758848616802870E+00
  -0.1583428371170209E-32
   0.4950282845236778E+00
   0.3164356406252313E-33
   0.5498526890321056E+00
  -0.2700571598104666E-34
   0.5891201066101296E+00
   0.1074835046000741E-33
   0.5841957167395763E+00
  -0.1448078164726146E-33
   0.5469100835822892E+00
  -0.5363838775844407E-34
   0.5805414046671341E+00
  -0.1151055593514206E-33
   0.5106265300341559E+00
   0.1790877294996370E-33
   0.5030213709674268E+00
   0.2600582751535755E-33
   0.5033662723349733E+00
   0.1689820939249343E-33
   0.5676438118229853E+00
  -0.2162361911966698E-33
   0.5563948696706703E+00
  -0.2581414387411026E-34
   0.4947260784749212E+00
   0.2990823405367140E-33
   0.5505248453785935E+00
  -0.5130640818831719E-34
   0.5510860370055285E+00