# vtk DataFile Version 2.0
FUN3D:global_image_vtk
ASCII
DATASET UNSTRUCTURED_GRID
POINTS 213 double
   -0.7777674059870012E-18    0.0000000000000000E+00    0.2500000000000000E+01
    0.0000000000000000E+00   -0.7777674059870012E-18    0.0000000000000000E+00
    0.1250000000000000E+01    0.0000000000000000E+00    0.2500000000000000E+01
    0.0000000000000000E+00   -0.7777674059870012E-18    0.0000000000000000E+00
    0.2500000000000000E+01    0.0000000000000000E+00    0.2500000000000000E+01
    0.0000000000000000E+00   -0.7777674059870012E-18    0.0000000000000000E+00
    0.3750000000000000E+01    0.0000000000000000E+00    0.2500000000000000E+01
    0.0000000000000000E+00   -0.7777674059870012E-18    0.0000000000000000E+00
    0.5000000000000000E+01    0.0000000000000000E+00    0.2500000000000000E+01
    0.0000000000000000E+00   -0.7777674059870012E-18    0.0000000000000000E+00
    0.5000000000000000E+01    0.0000000000000000E+00    0.1250000000000000E+01
    0.0000000000000000E+00   -0.7777674059870012E-18    0.0000000000000000E+00
    0.5000000000000000E+01    0.0000000000000000E+00   -0.7777674059870012E-18
    0.0000000000000000E+00   -0.7777674059870012E-18    0.0000000000000000E+00
    0.5000000000000000E+01    0.0000000000000000E+00   -0.1250000000000000E+01
    0.0000000000000000E+00   -0.7777674059870012E-18    0.0000000000000000E+00
    0.5000000000000000E+01    0.0000000000000000E+00   -0.2500000000000000E+01
    0.0000000000000000E+00   -0.7777674059870012E-18    0.0000000000000000E+00
    0.3750000000000000E+01    0.0000000000000000E+00   -0.2500000000000000E+01
    0.0000000000000000E+00   -0.7777674059870012E-18    0.0000000000000000E+00
    0.2500000000000000E+01    0.0000000000000000E+00   -0.2500000000000000E+01
    0.0000000000000000E+00   -0.7777674059870012E-18    0.0000000000000000E+00
    0.1250000000000000E+01    0.0000000000000000E+00   -0.2500000000000000E+01
    0.0000000000000000E+00   -0.7777674059870012E-18    0.0000000000000000E+00
   -0.7777674059870012E-18    0.0000000000000000E+00   -0.2500000000000000E+01
    0.0000000000000000E+00   -0.7777674059870012E-18    0.0000000000000000E+00
   -0.7777674059870012E-18    0.0000000000000000E+00   -0.1250000000000000E+01
    0.0000000000000000E+00   -0.7777674059870012E-18    0.0000000000000000E+00
   -0.7777674059870012E-18    0.0000000000000000E+00   -0.7777674059870012E-18
    0.0000000000000000E+00   -0.7777674059870012E-18    0.0000000000000000E+00
   -0.7777674059870012E-18    0.0000000000000000E+00    0.1250000000000000E+01
    0.0000000000000000E+00   -0.7777674059870012E-18    0.0000000000000000E+00
    0.9058375365086910E+00    0.0000000000000000E+00    0.1578994732800803E+01
    0.0000000000000000E+00   -0.7777674059870012E-18    0.0000000000000000E+00
    0.3982050490726493E+01    0.0000000000000000E+00   -0.1583989954232354E+01
    0.0000000000000000E+00   -0.7777674059870012E-18    0.0000000000000000E+00
    0.4033849428301197E+01    0.0000000000000000E+00    0.1453322699199022E+01
    0.0000000000000000E+00   -0.7777674059870012E-18    0.0000000000000000E+00
    0.1040505887381675E+01    0.0000000000000000E+00   -0.1479596339503735E+01
    0.0000000000000000E+00   -0.7777674059870012E-18    0.0000000000000000E+00
    0.1099454400140349E+01    0.0000000000000000E+00   -0.3227322616384110E+00
    0.0000000000000000E+00   -0.7777674059870012E-18    0.0000000000000000E+00
    0.7354504170366591E+00    0.0000000000000000E+00    0.6593508822075582E+00
    0.0000000000000000E+00   -0.7777674059870012E-18    0.0000000000000000E+00
    0.1622302608453282E+01    0.0000000000000000E+00    0.8256214013940779E+00
    0.0000000000000000E+00   -0.7777674059870012E-18    0.0000000000000000E+00
    0.2145871574390382E+01    0.0000000000000000E+00   -0.1650070333782557E+01
    0.0000000000000000E+00   -0.7777674059870012E-18    0.0000000000000000E+00
    0.4086422318222992E+01    0.0000000000000000E+00   -0.4612828702537229E+00
    0.0000000000000000E+00   -0.7777674059870012E-18    0.0000000000000000E+00
    0.2979540174134984E+01    0.0000000000000000E+00   -0.8579242121530853E+00
    0.0000000000000000E+00   -0.7777674059870012E-18    0.0000000000000000E+00
    0.3045064261640043E+01    0.0000000000000000E+00   -0.1836846154397680E+01
    0.0000000000000000E+00   -0.7777674059870012E-18    0.0000000000000000E+00
    0.3428197553792836E+01    0.0000000000000000E+00    0.3508002863614053E+00
    0.0000000000000000E+00   -0.7777674059870012E-18    0.0000000000000000E+00
    0.4309693860063405E+01    0.0000000000000000E+00    0.5185680230613409E+00
    0.0000000000000000E+00   -0.7777674059870012E-18    0.0000000000000000E+00
    0.1827272193562204E+01    0.0000000000000000E+00    0.1738996113203182E+01
    0.0000000000000000E+00   -0.7777674059870012E-18    0.0000000000000000E+00
    0.2808563282768077E+01    0.0000000000000000E+00    0.1325493893339706E+01
    0.0000000000000000E+00   -0.7777674059870012E-18    0.0000000000000000E+00
    0.1895995683864404E+01    0.0000000000000000E+00   -0.8731419609589618E+00
    0.0000000000000000E+00   -0.7777674059870012E-18    0.0000000000000000E+00
    0.2273179336307740E+01    0.0000000000000000E+00    0.4906150219227333E-01
    0.0000000000000000E+00   -0.7777674059870012E-18    0.0000000000000000E+00
    0.5000000000000000E+01    0.0000000000000000E+00    0.2500000000000000E+01
    0.0000000000000000E+00    0.1250000000000000E+01    0.0000000000000000E+00
    0.5000000000000000E+01    0.0000000000000000E+00    0.2500000000000000E+01
    0.0000000000000000E+00    0.2500000000000000E+01    0.0000000000000000E+00
    0.5000000000000000E+01    0.0000000000000000E+00    0.2500000000000000E+01
    0.0000000000000000E+00    0.3750000000000000E+01    0.0000000000000000E+00
    0.5000000000000000E+01    0.0000000000000000E+00    0.2500000000000000E+01
    0.0000000000000000E+00    0.5000000000000000E+01    0.0000000000000000E+00
    0.3750000000000000E+01    0.0000000000000000E+00    0.2500000000000000E+01
    0.0000000000000000E+00    0.5000000000000000E+01    0.0000000000000000E+00
    0.2500000000000000E+01    0.0000000000000000E+00    0.2500000000000000E+01
    0.0000000000000000E+00    0.5000000000000000E+01    0.0000000000000000E+00
    0.1250000000000000E+01    0.0000000000000000E+00    0.2500000000000000E+01
    0.0000000000000000E+00    0.5000000000000000E+01    0.0000000000000000E+00
   -0.7777674059870012E-18    0.0000000000000000E+00    0.2500000000000000E+01
    0.0000000000000000E+00    0.5000000000000000E+01    0.0000000000000000E+00
   -0.7777674059870012E-18    0.0000000000000000E+00    0.2500000000000000E+01
    0.0000000000000000E+00    0.3750000000000000E+01    0.0000000000000000E+00
   -0.7777674059870012E-18    0.0000000000000000E+00    0.2500000000000000E+01
    0.0000000000000000E+00    0.2500000000000000E+01    0.0000000000000000E+00
   -0.7777674059870012E-18    0.0000000000000000E+00    0.2500000000000000E+01
    0.0000000000000000E+00    0.1250000000000000E+01    0.0000000000000000E+00
    0.9631080833812172E+00    0.0000000000000000E+00    0.2500000000000000E+01
    0.0000000000000000E+00    0.9613285771248219E+00    0.0000000000000000E+00
    0.3981732467264904E+01    0.0000000000000000E+00    0.2500000000000000E+01
    0.0000000000000000E+00    0.4069753913607991E+01    0.0000000000000000E+00
    0.4035525118777670E+01    0.0000000000000000E+00    0.2500000000000000E+01
    0.0000000000000000E+00    0.1012015867579395E+01    0.0000000000000000E+00
    0.9641717640894248E+00    0.0000000000000000E+00    0.2500000000000000E+01
    0.0000000000000000E+00    0.3972455192261839E+01    0.0000000000000000E+00
    0.1547743040396780E+01    0.0000000000000000E+00    0.2500000000000000E+01
    0.0000000000000000E+00    0.2928177746738678E+01    0.0000000000000000E+00
    0.6985170616192014E+00    0.0000000000000000E+00    0.2500000000000000E+01
    0.0000000000000000E+00    0.3068281976055466E+01    0.0000000000000000E+00
    0.8931277594515110E+00    0.0000000000000000E+00    0.2500000000000000E+01
    0.0000000000000000E+00    0.2052465503257726E+01    0.0000000000000000E+00
    0.2183293750162785E+01    0.0000000000000000E+00    0.2500000000000000E+01
    0.0000000000000000E+00    0.3959073795658649E+01    0.0000000000000000E+00
    0.3855333506014705E+01    0.0000000000000000E+00    0.2500000000000000E+01
    0.0000000000000000E+00    0.2931218481500625E+01    0.0000000000000000E+00
    0.3152495579421047E+01    0.0000000000000000E+00    0.2500000000000000E+01
    0.0000000000000000E+00    0.3635850502723324E+01    0.0000000000000000E+00
    0.3103247580566054E+01    0.0000000000000000E+00    0.2500000000000000E+01
    0.0000000000000000E+00    0.4331682712472464E+01    0.0000000000000000E+00
    0.3266837581688852E+01    0.0000000000000000E+00    0.2500000000000000E+01
    0.0000000000000000E+00    0.1886092433583972E+01    0.0000000000000000E+00
    0.4231539241296245E+01    0.0000000000000000E+00    0.2500000000000000E+01
    0.0000000000000000E+00    0.1915865356532799E+01    0.0000000000000000E+00
    0.1909741006522088E+01    0.0000000000000000E+00    0.2500000000000000E+01
    0.0000000000000000E+00    0.7170024419130505E+00    0.0000000000000000E+00
    0.2880784107213163E+01    0.0000000000000000E+00    0.2500000000000000E+01
    0.0000000000000000E+00    0.9046598906449592E+00    0.0000000000000000E+00
    0.2014316024535771E+01    0.0000000000000000E+00    0.2500000000000000E+01
    0.0000000000000000E+00    0.1762464314805728E+01    0.0000000000000000E+00
    0.2670003247036656E+01    0.0000000000000000E+00    0.2500000000000000E+01
    0.0000000000000000E+00    0.2850479545835163E+01    0.0000000000000000E+00
    0.5000000000000000E+01    0.0000000000000000E+00    0.1250000000000000E+01
    0.0000000000000000E+00    0.5000000000000000E+01    0.0000000000000000E+00
    0.5000000000000000E+01    0.0000000000000000E+00   -0.7777674059870012E-18
[...]
POINT_DATA 213
SCALARS rho double 1
LOOKUP_TABLE default
   0.1343965967634351E+01
  -0.4952353778241648E-08
   0.9576972754477316E+00
  -0.6788824288862715E-09
   0.9477448461509287E+00
  -0.1448973993603958E-08
   0.9438131459130000E+00
  -0.2619404639901421E-08
   0.8441009502079798E+00
  -0.2272644205557103E-08
   0.7733576842968966E+00
  -0.2214868991857528E-08
   0.7630128838352832E+00
  -0.2387082186793572E-08
   0.7656186420825333E+00
  -0.4083967553693334E-08
   0.8316614378601497E+00
  -0.4493910781048473E-08
   0.9369663715687931E+00
  -0.1278916305462709E-08
   0.9354398940474888E+00
  -0.1321527843788436E-08
   0.9614824120538383E+00
  -0.1916117741692327E-08
   0.1447869012705834E+01
  -0.2852290164994256E-08
   0.1492319205079610E+01
  -0.6281154260641548E-08
   0.1642809593419883E+01
  -0.7526426262523462E-08
   0.1425671994008624E+01
  -0.5427522148655366E-08
   0.1009386316599811E+01
  -0.1244205187425456E-08
   0.9522697508996860E+00
  -0.1026095146266965E-08
   0.9451727087728287E+00
  -0.8876965000640101E-09
   0.9577559829428862E+00
   0.1324510786219138E-09
   0.9405678787722941E+00
   0.5373807757764603E-10
   0.1035489934795312E+01
  -0.9087796422652960E-09
   0.9260511834231493E+00
  -0.2373922282084790E-09
   0.9335251664946843E+00
  -0.1809825019393664E-08
   0.9552381752232170E+00
  -0.2849587284723432E-08
   0.9537149717399033E+00
  -0.1729121428850790E-08
   0.9360594565926645E+00
  -0.2297995765881626E-08
   0.9578783286419303E+00
  -0.1211877098482664E-08
   0.9386202178051792E+00
  -0.1483674978280864E-08
   0.9312265818793320E+00
  -0.1478420191464075E-08
   0.9460891779733934E+00
  -0.5193822149587697E-09
   0.8867073897269764E+00
   0.3638130849824575E-09
   0.9437960444256672E+00
  -0.1853361255666590E-08
   0.9641219460441444E+00
  -0.6071255746820920E-09
   0.1007296400389854E+01
  -0.4193470811032895E-10
   0.1006184778433493E+01
   0.2194481158264547E-10
   0.1004574959510068E+01
  -0.1191739569445102E-09
   0.1005751423353290E+01
  -0.1838766888467698E-09
   0.1004610527118253E+01
  -0.1551417824128453E-09
   0.1005284910624135E+01
  -0.1200582652135126E-09
   0.1003004652672688E+01
  -0.5095274034443944E-10
   0.1008151398528162E+01
  -0.1385167871095025E-09
   0.1023748878780486E+01
  -0.2890728909630247E-09
   0.1062885649332599E+01
  -0.2087350241186814E-09
   0.1019113286573546E+01
  -0.6009254356915352E-09
   0.1001827820049415E+01
  -0.5936127842288494E-10
   0.9658918547355735E+00
  -0.8120401700263854E-09
   0.1005409935464768E+01
  -0.1354521577957213E-09
   0.1000775310092326E+01
  -0.8917209118037056E-10
   0.1008827306455809E+01
  -0.1750073271312101E-09
   0.1007918430168300E+01
  -0.1041932003625626E-09
   0.1002494199693774E+01
  -0.1245407828783715E-09
   0.9976014237389527E+00
  -0.1569039218633695E-10
   0.1000593571477917E+01
  -0.6033510069692275E-10
   0.1001865292211819E+01
  -0.1118072286306053E-09
   0.9828372192304642E+00
  -0.2298379785566807E-09
   0.9840878144060772E+00
  -0.2470273666649941E-09
   0.9841380518130048E+00
  -0.7289540749743400E-09
   0.9802128055320610E+00
  -0.7766114173833974E-09
   0.9905521809376967E+00
  -0.1690275792299742E-09
   0.9934998277231899E+00
  -0.4555934223669488E-10
   0.1004778245139573E+01
  -0.1091009826633672E-09
   0.1004767189439792E+01
  -0.9555818226579594E-10
   0.1005114321540641E+01
  -0.9545713983156529E-10
   0.1004850286208850E+01
  -0.1108796317722065E-09
   0.1009544108990174E+01
  -0.9662261766996165E-11
   0.1004699691067603E+01
   0.3165409818387527E-10
   0.9559620075107669E+00
  -0.3885536357203303E-09
   0.9257182865621317E+00
  -0.7815997702073756E-09
   0.1007687731087530E+01
  -0.1870537466633806E-10
   0.1004499793528264E+01
  -0.1424592774501474E-10
   0.9151324669626792E+00
  -0.6091107796981648E-09
   0.9096292342674216E+00
  -0.6743293001596260E-09
   0.8762723022943504E+00
  -0.8767806934427762E-09
   0.9757629706285671E+00
  -0.2375144675692305E-09
   0.9987129104658161E+00
   0.1145927803936454E-10
   0.1006335541459332E+01
  -0.1603351608122135E-10
   0.1010818858828708E+01
   0.8009529634641333E-10
   0.1010129204678001E+01
   0.4326368510279089E-10
   0.1009074518689095E+01
   0.6032162268956056E-10
   0.1005937111848202E+01
  -0.2838671379206406E-10
   0.9900076156131695E+00
  -0.2514921591114556E-09
   0.1003829925499289E+01
   0.1643563848703644E-10
   0.9846226061812526E+00
  -0.1474081019939761E-10
   0.1002837187919298E+01
   0.4800230769539114E-10
   0.1003882860797673E+01
  -0.6995525630356693E-10
   0.1003215373753949E+01
  -0.7822938934730972E-10
   0.1003424139095006E+01
  -0.8165473398793089E-10
   0.1003738532259392E+01
  -0.7827578945027880E-10
   0.1005281661882734E+01
  -0.1230093616970962E-09
   0.1003265155810996E+01
  -0.1269977991501818E-09
   0.1004580560412004E+01
  -0.1282812542359630E-09
   0.1005196429764846E+01
  -0.1723605550321055E-09
   0.1004060719557666E+01
  -0.9682992257690935E-10
   0.1004546525464543E+01
  -0.1075173762191342E-09
   0.1003385890676199E+01
  -0.1351297364994890E-09
   0.1004519397933984E+01
  -0.1403681078522487E-09
   0.1005791658023138E+01
  -0.1597998699470771E-09
   0.1004686432087732E+01
  -0.1530710505912022E-09
   0.1003955411417294E+01
  -0.1281177309230855E-09
   0.1003135933598831E+01
  -0.8419336447250512E-10
   0.1004406797996624E+01
  -0.1258064131887872E-09
   0.1004217778951151E+01
  -0.1268322808704000E-09
   0.1003536250780027E+01
  -0.8836274240828080E-10
   0.1005309733575072E+01
  -0.1719078093238656E-09
   0.1004812133425283E+01
  -0.1438586800959461E-09
   0.1004741758192397E+01
  -0.1450674660799261E-09
   0.1004669787428034E+01
  -0.1438388990311589E-09
   0.1064928020942195E+01
  -0.2442976422527192E-09
   0.1028650830657648E+01
  -0.2765533536804586E-09
   0.1009537909972405E+01
  -0.1480332751865034E-09
   0.1006519332415041E+01
  -0.1336267334254178E-09
   0.1163380979325723E+01
  -0.1258201433326164E-08
   0.1086055351418842E+01
  -0.2334998290264800E-09
   0.1007820126450315E+01
  -0.1422721100660157E-09
   0.1007302541942144E+01
  -0.1417091273703398E-09
   0.1006711537804454E+01
  -0.1235011643968851E-09
   0.1012984941641107E+01
  -0.2565187045239566E-09
   0.1019259447996209E+01
  -0.2224182939780524E-09
   0.1234910554614846E+01
  -0.2245262678311013E-08
   0.1032980185110456E+01
  -0.1686689009998537E-09
   0.1046583638467580E+01
  -0.3650609615018189E-09
   0.1200461008371339E+01
  -0.1798174988706562E-08
   0.1014504356477225E+01
  -0.1932681949071659E-09
   0.1031892368870835E+01
  -0.3281575509773987E-09
   0.1028375142752712E+01
  -0.3964216411024374E-09
   0.1014845788576754E+01
  -0.2404311273344172E-09
   0.1029073307084029E+01
  -0.3376858022871769E-09
   0.1002080407487945E+01
  -0.7254826563282393E-10
   0.9621401817653310E+00
  -0.4715692572367450E-09
   0.1006807134313355E+01
  -0.1325533666888832E-09
   0.1001537961985528E+01
  -0.1137860827673368E-09
   0.1010605446161178E+01
  -0.1590380825802988E-09
   0.1012248905165910E+01
  -0.1515687811818241E-09
   0.1001047925377158E+01
  -0.1110803172753951E-09
   0.9972872453241777E+00
  -0.2239161298629789E-10
   0.9978249677162825E+00
  -0.7830779407245883E-10
   0.1001116545180367E+01
  -0.9800895126345413E-10
   0.9838204470594587E+00
  -0.1262274209514062E-09
   0.9808407242421650E+00
  -0.1091287315217951E-09
   0.9653613812500564E+00
  -0.3001528034364508E-09
   0.9688902731646212E+00
  -0.6818397854868793E-09
   0.9913867320667991E+00
  -0.1094669494113426E-09
   0.9913033738152854E+00
  -0.6939163365955753E-10
   0.9924499654348692E+00
  -0.3765585214468724E-10
   0.1001939551080493E+01
  -0.9430032541982552E-10
   0.9994944958013078E+00
  -0.3901876099855223E-10
   0.9940522237249589E+00
  -0.4093246222558321E-10
   0.1006988072657246E+01
  -0.1964672212895571E-10
   0.1022221194402590E+01
  -0.1169245895457219E-09
   0.1000742636804124E+01
  -0.1949137572645030E-09
   0.1008918713637496E+01
  -0.1535049905674558E-09
   0.1004949826044665E+01
  -0.1371026460514674E-09
   0.1009093555032719E+01
  -0.1646912524237952E-09
   0.9967232935967141E+00
  -0.7674123680202467E-10
   0.1004971621879494E+01
  -0.7936977746068695E-09
   0.1003543350914265E+01
  -0.1197592438095819E-09
   0.9949818723443814E+00
  -0.5180804169574294E-10
   0.9827942753740968E+00
  -0.1012189787330968E-09
   0.9939983480111074E+00
  -0.3583474407636510E-10
   0.9970549763110909E+00
  -0.3587771463908467E-10
   0.9919138356333282E+00
  -0.3111292729405511E-10
   0.1001240974747777E+01
  -0.9683247281642938E-10
   0.1003192427345809E+01
  -0.1139661301024652E-09
   0.1002174556152905E+01
  -0.9173657921996124E-10
   0.9936100681949365E+00
   0.6422764179324640E-11
   0.9937194722190997E+00
  -0.5538964198543093E-10
   0.1005130361514284E+01
  -0.1369091394068086E-09
   0.1019813425056610E+01
  -0.1620128212506811E-09
   0.1005421270509442E+01
  -0.1390371106508503E-09
   0.9816989787013112E+00
  -0.9611545647359496E-10
   0.1005148095043193E+01
  -0.1242590903807512E-09
   0.1012366735237739E+01
  -0.1520985989126048E-09
   0.9872336011565959E+00
  -0.5134174494997011E-09
   0.9550246544525807E+00
  -0.1593565181401742E-09
   0.9860586848367100E+00
  -0.9927167488567979E-10
   0.9866043131600817E+00
  -0.1193423438466781E-09
   0.9925193440929344E+00
  -0.6729394314753640E-09
   0.9931308550038237E+00
  -0.1617944009236570E-09
   0.9948952536291458E+00
  -0.5531984312281290E-09
   0.1037296046680760E+01
  -0.2670631517640941E-09
   0.1033015715191759E+01
  -0.5411364725259180E-09
   0.1001454862150513E+01
  -0.5860587522679017E-10
   0.1002005181991803E+01
  -0.1060643143319274E-09
   0.9897996521978060E+00
  -0.3277396755287537E-11
   0.9907251148394144E+00
  -0.4777733736251720E-10
   0.9646455768505141E+00
  -0.2677851863129377E-09
   0.9920848215134923E+00
  -0.2052905829338365E-10
   0.1005418868864877E+01
  -0.1826642709171303E-11
   0.1001496628923394E+01
  -0.1613689443218819E-10
   0.9910386850927009E+00
  -0.8131373842168463E-10
   0.9741297641649056E+00
  -0.3925312668215153E-09
   0.9424060726446557E+00
  -0.6783550306310921E-09
   0.9820102507641645E+00
  -0.3973251727871653E-09
   0.9791544204582479E+00
  -0.6870941118159245E-10
   0.9713816149384230E+00
  -0.2132032496246727E-09
   0.9720530691776260E+00
  -0.3852720014951983E-09
   0.9554278773095253E+00
  -0.2621409864076023E-09
   0.9502413896975695E+00
  -0.4418511931666895E-09
   0.9545737784627976E+00
  -0.8927529014846593E-09
   0.1002932458334220E+01
  -0.1188169268068480E-09
   0.1002562230715086E+01
  -0.1146256820289474E-09
   0.1000541323126074E+01
  -0.7133873163562050E-10
   0.1001108797918291E+01
  -0.3372846829082235E-11
   0.9616592909681008E+00
  -0.6030648836191336E-09
   0.9512265345198141E+00
  -0.8693950216023603E-09
   0.9602851469638004E+00
  -0.8243463705249374E-09
   0.1000865689607291E+01
  -0.9842499833786602E-10
   0.1000324352436861E+01
  -0.8258709114900545E-10
   0.1000906465853878E+01
  -0.2729029725446474E-10
   0.9809417604364299E+00
  -0.9990294917126406E-10
   0.9805261768489987E+00
  -0.1828495434867058E-09
   0.9640837780614876E+00
  -0.6319456184384857E-09
SCALARS u double 1
LOOKUP_TABLE default
   0.0000000000000000E+00
   0.0000000000000000E+00
   0.0000000000000000E+00
   0.0000000000000000E+00
   0.0000000000000000E+00
   0.0000000000000000E+00
   0.0000000000000000E+00
   0.0000000000000000E+00
   0.0000000000000000E+00
   0.0000000000000000E+00
   0.0000000000000000E+00
   0.0000000000000000E+00
   0.0000000000000000E+00
   0.0000000000000000E+00
   0.0000000000000000E+00
   0.0000000000000000E+00
   0.0000000000000000E+00
   0.0000000000000000E+00
   0.0000000000000000E+00
   0.0000000000000000E+00
   0.0000000000000000E+00
   0.0000000000000000E+00
   0.0000000000000000E+00
   0.0000000000000000E+00
   0.0000000000000000E+00
   0.0000000000000000E+00
   0.0000000000000000E+00
   0.0000000000000000E+00
   0.0000000000000000E+00
   0.0000000000000000E+00
   0.0000000000000000E+00
   0.0000000000000000E+00
   0.0000000000000000E+00
   0.0000000000000000E+00
   0.0000000000000000E+00
   0.0000000000000000E+00
   0.0000000000000000E+00
   0.0000000000000000E+00
   0.0000000000000000E+00
   0.0000000000000000E+00
   0.0000000000000000E+00
   0.0000000000000000E+00
   0.0000000000000000E+00
   0.0000000000000000E+00
   0.0000000000000000E+00
   0.0000000000000000E+00
   0.0000000000000000E+00
   0.0000000000000000E+00
   0.0000000000000000E+00
   0.0000000000000000E+00
   0.0000000000000000E+00
   0.0000000000000000E+00
   0.0000000000000000E+00
   0.0000000000000000E+00
   0.0000000000000000E+00
   0.0000000000000000E+00
   0.0000000000000000E+00
   0.0000000000000000E+00
   0.0000000000000000E+00
   0.0000000000000000E+00
   0.0000000000000000E+00
   0.0000000000000000E+00
   0.0000000000000000E+00
   0.0000000000000000E+00
   0.0000000000000000E+00
   0.0000000000000000E+00
   0.4956088279345608E+00
   0.5035459796229427E-09
   0.5336028971777894E+00
  -0.1253757862584444E-09
   0.5184450485809208E+00
  -0.1593376059018145E-09
   0.4933133805792274E+00
  -0.2948140327617418E-11
   0.4841981490234033E+00
   0.1197566957808167E-09
   0.4837170322521638E+00
   0.1923056267910897E-09
   0.4863897384613600E+00
   0.2011033239348513E-09
   0.4963079453288713E+00
   0.9011797964372326E-10
   0.4896567684916239E+00
   0.1561114318620654E-09
   0.4720672482611446E+00
   0.2815074943513741E-09
   0.4463580839360033E+00
   0.2644513372810530E-09
   0.4827649172437863E+00
  -0.3414045334932039E-09
   0.5089240083233899E+00
   0.1137635210326944E-10
   0.4407506702889692E+00
   0.4729579591856253E-09
   0.4944059175687555E+00
   0.1426596989893761E-09
   0.5229414833732318E+00
   0.3070081278060694E-10
   0.4962113328389093E+00
   0.1310184541532681E-09
   0.5227252773339236E+00
   0.5016559007438659E-10
   0.5032083731940475E+00
   0.1069944611364350E-09
   0.5640222653751147E+00
  -0.8804203966593879E-10
   0.5252398845331605E+00
   0.2343471245780152E-11
   0.4980203182372669E+00
   0.9772235396095947E-10
   0.5719626553424920E+00
   0.7867231531606677E-11
   0.5688065660677234E+00
   0.1065340674280416E-09
   0.3730025263929180E+00
  -0.1721268917843058E-09
   0.4007150974052886E+00
   0.1591521368659589E-09
   0.5587988180019303E+00
  -0.1500948138832295E-09
   0.5564435980850713E+00
  -0.5289283489200899E-10
   0.4946070205201304E+00
  -0.1463046678918456E-10
   0.4954020890703073E+00
  -0.2349005250986658E-10
   0.4937887069182087E+00
  -0.3223620768640171E-10
   0.4918952700369207E+00
  -0.5168104891086251E-11
   0.5164135097811426E+00
  -0.1325461710459440E-09
   0.5359192418660533E+00
  -0.1487378215290450E-09
   0.4957089560919711E+00
   0.3920113730180526E-09
   0.4530920750034141E+00
   0.6501675310749144E-09
   0.5123877367001842E+00
  -0.1132062959017041E-09
   0.5107432043210258E+00
  -0.1001836260092848E-09
   0.4790291047600009E+00
   0.6223967775721019E-09
   0.4944626123727721E+00
   0.6665553855347340E-09
   0.4614927590774926E+00
   0.8208138357068291E-09
   0.5257659112052150E+00
   0.2062327700882879E-09
   0.5298668677635979E+00
  -0.8293433104437301E-10
   0.5123506250375600E+00
  -0.1166644728451917E-09
   0.5330012243248009E+00
  -0.2159987126024642E-09
   0.5309373758990440E+00
  -0.1893176184957050E-09
   0.5300690753785399E+00
  -0.1997862893204946E-09
   0.5056169293034886E+00
  -0.8443088053491946E-10
   0.5285423540794484E+00
   0.1121266468166913E-09
   0.5403389548173201E+00
  -0.1735535933741991E-09
   0.5368093473138500E+00
   0.5234268013288050E-10
   0.5377911719219096E+00
  -0.1401808788031867E-09
   0.4974925002427542E+00
   0.7273266028740652E-10
   0.4981163008523726E+00
   0.7247326768912336E-10
   0.4967933544890826E+00
   0.8660734623778677E-10
   0.4957441690090548E+00
   0.9890263768510780E-10
   0.4878915027769662E+00
   0.1910698427080398E-09
   0.4876185036455837E+00
   0.1766489219128630E-09
   0.4855744435168505E+00
   0.1026383573058924E-09
   0.4864380783501673E+00
   0.9736444260758470E-10
   0.4916982559464616E+00
   0.1580810902451972E-09
   0.4891553760348585E+00
   0.1754048036442286E-09
   0.4852571563247507E+00
   0.7768061851207337E-10
   0.4886306924200981E+00
   0.7153173012957591E-10
   0.4891593043532306E+00
   0.6667056943518618E-10
   0.4864820345448241E+00
   0.1489202576609477E-09
   0.4864884601693413E+00
   0.1605579283718718E-09
   0.4945747634517705E+00
   0.1312766246602531E-09
   0.4872882733690069E+00
   0.1989408084638779E-09
   0.4875772047236120E+00
   0.1966180732985569E-09
   0.4930333112216174E+00
   0.1494916060953551E-09
   0.4847489963316647E+00
   0.1597131510671204E-09
   0.4867503333292462E+00
   0.1950291855349269E-09
   0.4860741812843653E+00
   0.1971778654342284E-09
   0.4863473319542568E+00
   0.1580687279932329E-09
   0.4453025377888655E+00
   0.2152154982827884E-09
   0.4698446885735177E+00
   0.2641578178515751E-09
   0.4891585189786363E+00
   0.1522450158339621E-09
   0.4880234324098426E+00
   0.1663588175855497E-09
   0.4508541986215312E+00
   0.7588801104466992E-09
   0.4675635714822942E+00
   0.2621134421070822E-09
   0.4875638097181308E+00
   0.1610418297103597E-09
   0.4867846703305048E+00
   0.1671314127813395E-09
   0.4910070759952701E+00
   0.1366510475918881E-09
   0.4794303207735966E+00
   0.2441318642740945E-09
   0.4668009664711901E+00
   0.2319269634302997E-09
   0.3794183367087291E+00
   0.1234967912321937E-08
   0.4896737061991775E+00
   0.9897307737881007E-10
   0.4493542209833691E+00
   0.3115545700846989E-09
   0.4441330454931373E+00
   0.9514825426151082E-09
   0.4845044462669972E+00
   0.2017555027191805E-09
   0.4634869325781648E+00
   0.2915346066056556E-09
   0.4670678931570892E+00
   0.2569431534365577E-09
   0.4748190089543865E+00
   0.2457788895030054E-09
   0.4893617551538736E+00
  -0.1912655988118832E-09
   0.5086596075075670E+00
  -0.1069510143604322E-10
   0.4339262708570599E+00
   0.6788951996743392E-09
   0.4926474815179469E+00
   0.1372936739117517E-09
   0.5329860892521739E+00
  -0.3711848998670187E-10
   0.4918407843206457E+00
   0.1279711844243518E-09
   0.5207224501429148E+00
   0.2220836167132526E-10
   0.5065004761765886E+00
   0.7354736046555303E-10
   0.5670296824556178E+00
  -0.6518162316737767E-10
   0.5283167985417162E+00
  -0.2638652527166286E-10
   0.5014208323962381E+00
   0.6681365944722013E-10
   0.5802774552252240E+00
   0.1305794646644300E-09
   0.5677865473019118E+00
   0.1884479278267373E-09
   0.3413713418181531E+00
   0.1215693012913487E-09
   0.3799191811973409E+00
   0.3336019558249614E-09
   0.5737491347504682E+00
  -0.7719132280277515E-10
   0.5664341420576714E+00
  -0.7594425246871165E-10
   0.5693347636062521E+00
  -0.4339675905842792E-10
   0.5290190586687373E+00
  -0.3953367081318208E-11
   0.5447941407676508E+00
  -0.7344885215689267E-11
   0.5714556247217003E+00
  -0.5136906264566721E-10
   0.5388201780475124E+00
   0.5257537870700984E-10
   0.5474922101351745E+00
   0.8010427595133384E-10
   0.5819849040554358E+00
  -0.8569256429368378E-10
   0.4927287444245748E+00
   0.1129370498358235E-09
   0.5038081360801706E+00
   0.1056472161418832E-09
   0.4963777804866377E+00
   0.1297381124874389E-09
   0.5560551743114660E+00
  -0.1165919151363775E-09
   0.4759488690766230E+00
  -0.5613633763148998E-09
   0.4944703448952334E+00
   0.1347465195359259E-09
   0.5492269732029592E+00
  -0.2075024142059693E-10
   0.5873511810397097E+00
   0.4445401054678183E-10
   0.5827117378132853E+00
  -0.6543131278376596E-10
   0.5459119783780852E+00
  -0.3233865433098197E-10
   0.5779713469400120E+00
  -0.4831001104176918E-10
   0.5101703931799489E+00
   0.6525893117869053E-10
   0.5024518105231126E+00
   0.1083809305917457E-09
   0.5028207581553161E+00
   0.6624687542842958E-10
   0.5662368375143179E+00
  -0.9139036670382085E-10
   0.5559265057093593E+00
  -0.3637955083040903E-10
   0.4944845323776055E+00
   0.1313871946976299E-09
   0.5501273442853759E+00
  -0.7040500156772893E-10
   0.5508114156181932E+00