# vtk DataFile Version 2.0
FUN3D:global_image_vtk
ASCII
DATASET UNSTRUCTURED_GRID
POINTS 213 double
   -0.5474685441687832E-02    0.6817623398321064E-06    0.2504941971167291E+01
    0.7326481440571838E-07    0.8038138598670530E-04    0.9085431469239731E-06
    0.1245419105183472E+01    0.6782202011552101E-06    0.2504941971167291E+01
    0.7326481440571838E-07    0.1039425058013133E-03    0.1509296739880989E-06
    0.2497696093128780E+01    0.6809111473773036E-06    0.2504941971167291E+01
    0.7326481440571838E-07    0.1101298164665754E-03    0.5314988311142763E-06
    0.3750590968915824E+01    0.9717844935938223E-06    0.2504941971167291E+01
    0.7326481440571838E-07    0.1356499004943612E-03    0.3182539569178560E-06
    0.5003221331742151E+01    0.4721910438108570E-06    0.2504941971167291E+01
    0.7326481440571838E-07    0.9668873038898296E-04    0.3210455693866717E-06
    0.5004676687979097E+01    0.8606551306789965E-06    0.1281291202167040E+01
    0.7805987964540928E-07    0.1638053019384356E-03    0.7823071961183421E-06
    0.5004772673778115E+01    0.3208768137238117E-06    0.2775079906482894E-01
    0.8667529083054310E-06    0.1903478008447590E-03    0.7488291091432377E-06
    0.5003581183341212E+01    0.6885921824186706E-06   -0.1225853508883529E+01
    0.3755580139946151E-06    0.1607765204486578E-03    0.6764411418454476E-06
    0.5001952533742191E+01    0.5360029776200710E-06   -0.2496589036641631E+01
    0.6646405580490336E-07    0.1082258890302557E-03    0.7991742438290312E-06
    0.3750348111606544E+01    0.3676133003437379E-06   -0.2496589036641631E+01
    0.6646405580490336E-07    0.1458753696815807E-03    0.4913997994779140E-06
    0.2498611462994928E+01    0.2273254277924977E-06   -0.2496589036641631E+01
    0.6646405580490336E-07    0.1008933264248224E-03    0.6596664808282572E-06
    0.1247175269333276E+01    0.7922337659595980E-06   -0.2496589036641631E+01
    0.6646405580490336E-07    0.1108587619169654E-03    0.3969846009616636E-06
   -0.3383959865719266E-02    0.1648797236017710E-06   -0.2496589036641631E+01
    0.6646405580490336E-07    0.8107259626494168E-04    0.3141975356818995E-06
   -0.4257768979765597E-02    0.6336215295105973E-07   -0.1225734811642590E+01
    0.2858312992200174E-06    0.3415458742295208E-04    0.6146189610653926E-06
   -0.5251592448509257E-02    0.7315306272051209E-06    0.2619486024420453E-01
    0.3308812414575174E-07    0.1038724387187884E-03    0.2670484160337618E-06
   -0.5676060312426845E-02    0.8427421654658591E-06    0.1278221569065707E+01
    0.5132581869018992E-06    0.8224601702150336E-04    0.3892798219996154E-06
    0.9003209617952581E+00    0.1141016342228983E-06    0.1608979112280158E+01
    0.1272096263022265E-06    0.8704140727672227E-04    0.6841862912816071E-06
    0.3983172210692289E+01    0.9868141221633389E-06   -0.1561211904840279E+01
    0.9186635500004518E-06    0.1757116720370600E-03    0.7531037165301647E-06
    0.4035602039224469E+01    0.6259981158751361E-06    0.1486760030415520E+01
    0.6185185039725958E-06    0.1713312862106631E-03    0.9289329516564364E-06
    0.1036613723302902E+01    0.5175646392831085E-06   -0.1455626429916848E+01
    0.8741121698667843E-06    0.1047189301532914E-03    0.4622013525476064E-06
    0.1094353480630802E+01    0.7735812288228406E-06   -0.2964622010671852E+00
    0.3597833438642706E-06    0.1260590236917269E-03    0.1775180174849300E-07
    0.7298400267480001E+00    0.8451673241082165E-06    0.6874684746719136E+00
    0.4824205927167616E-06    0.1044598640544958E-03    0.3231318729455918E-06
    0.1617018659308944E+01    0.7093149749257884E-06    0.8553208024939388E+00
    0.1449528550114011E-06    0.1529810904974394E-03    0.7757592063201351E-06
    0.2143199662875790E+01    0.7837341960424414E-06   -0.1627128509216730E+01
    0.3210720202787103E-06    0.1606170425226816E-03    0.4333363478376312E-06
    0.4088840445400889E+01    0.5008232513670521E-06   -0.4351047825936264E+00
    0.2789974677128508E-06    0.2719933294109134E-03    0.5566912208664495E-06
    0.2977916511248925E+01    0.9006798913509121E-06   -0.8334991483094500E+00
    0.3178444504720133E-06    0.2245596931861327E-03    0.3344033601297884E-06
    0.3044093241383418E+01    0.9871434594648108E-06   -0.1814361225108581E+01
    0.1230959720408302E-06    0.1617000112420497E-03    0.5601497395668890E-06
    0.3427866614805211E+01    0.8187156177129415E-06    0.3813904839972497E+00
    0.3911371068885881E-06    0.2936955483429093E-03    0.2134111151275199E-07
    0.4313225355351749E+01    0.6966437226288497E-07    0.5489133376342514E+00
    0.7111595635703594E-06    0.2313009573592373E-03    0.2507818769636392E-06
    0.1823032737597358E+01    0.3748903251430545E-06    0.1771265193544254E+01
    0.1148290145227573E-06    0.1836202887151583E-03    0.6572796906047965E-06
    0.2806311152168375E+01    0.1391711939656518E-06    0.1358629373600680E+01
    0.1220925557879456E-06    0.1943492163983818E-03    0.1840976710430362E-06
    0.1891860875936711E+01    0.4448020749172786E-06   -0.8481310365607546E+00
    0.7885227326215789E-06    0.1670645501816170E-03    0.7538814462048612E-06
    0.2268769200166909E+01    0.8470426334243681E-06    0.7723691819196567E-01
    0.3801520241642766E-06    0.2072307783085314E-03    0.5737433540547840E-06
    0.5000000000000000E+01    0.2940322311579874E-22    0.2504941971167291E+01
    0.7326481440571838E-07    0.1250000000000000E+01    0.2940322311579874E-22
    0.5000000000000000E+01    0.2940322311579874E-22    0.2504941971167291E+01
    0.7326481440571838E-07    0.2500000000000000E+01    0.2940322311579874E-22
    0.5000000000000000E+01    0.2940322311579874E-22    0.2504941971167291E+01
    0.7326481440571838E-07    0.3750000000000000E+01    0.2940322311579874E-22
    0.5000000000000000E+01    0.2940322311579874E-22    0.2504941971167291E+01
    0.7326481440571838E-07    0.5000000000000000E+01    0.2940322311579874E-22
    0.3750000000000000E+01    0.2940322311579874E-22    0.2504941971167291E+01
    0.7326481440571838E-07    0.5000000000000000E+01    0.2940322311579874E-22
    0.2500000000000000E+01    0.2940322311579874E-22    0.2504941971167291E+01
    0.7326481440571838E-07    0.5000000000000000E+01    0.2940322311579874E-22
    0.1250000000000000E+01    0.2940322311579874E-22    0.2504941971167291E+01
    0.7326481440571838E-07    0.5000000000000000E+01    0.2940322311579874E-22
   -0.6085424070073426E-19    0.2940322311579874E-22    0.2504941971167291E+01
    0.7326481440571838E-07    0.5000000000000000E+01    0.2940322311579874E-22
   -0.6085424070073426E-19    0.2940322311579874E-22    0.2504941971167291E+01
    0.7326481440571838E-07    0.3750000000000000E+01    0.2940322311579874E-22
   -0.6085424070073426E-19    0.2940322311579874E-22    0.2504941971167291E+01
    0.7326481440571838E-07    0.2500000000000000E+01    0.2940322311579874E-22
   -0.6085424070073426E-19    0.2940322311579874E-22    0.2504941971167291E+01
    0.7326481440571838E-07    0.1250000000000000E+01    0.2940322311579874E-22
    0.9588956434871092E+00    0.3876229314414341E-06    0.2504941971167291E+01
    0.7326481440571838E-07    0.9696525519543873E+00    0.5274271687059566E-06
    0.3981953078951402E+01    0.4938421189912977E-07    0.2504941971167291E+01
    0.7326481440571838E-07    0.4070563854751271E+01    0.9312261341440802E-07
    0.4036122187252336E+01    0.4154680829116520E-06    0.2504941971167291E+01
    0.7326481440571838E-07    0.1017567520094671E+01    0.4357691201986646E-06
    0.9637572773153895E+00    0.2426639609208826E-08    0.2504941971167291E+01
    0.7326481440571838E-07    0.3973598203142229E+01    0.7693051873229490E-07
    0.1546540136992396E+01    0.8080674647147316E-07    0.2504941971167291E+01
    0.7326481440571838E-07    0.2931570169315601E+01    0.2394307985018505E-06
    0.6973799521244315E+00    0.1894295692756730E-07    0.2504941971167291E+01
    0.7326481440571838E-07    0.3070319952453756E+01    0.1288413940940550E-06
    0.8903742148356881E+00    0.9309074779419655E-07    0.2504941971167291E+01
    0.7326481440571838E-07    0.2056562238187738E+01    0.2741489275623413E-06
    0.2183041995146014E+01    0.3575376146594563E-07    0.2504941971167291E+01
    0.7326481440571838E-07    0.3960694449828019E+01    0.1332329152183665E-06
    0.3855844872709870E+01    0.1196303603246779E-06    0.2504941971167291E+01
    0.7326481440571838E-07    0.2933250588118630E+01    0.2199116462886996E-06
    0.3152611367438030E+01    0.8093538319199480E-07    0.2504941971167291E+01
    0.7326481440571838E-07    0.3637668388416194E+01    0.1757999085543125E-06
    0.3103307385241870E+01    0.3783090206278902E-07    0.2504941971167291E+01
    0.7326481440571838E-07    0.4332607813099731E+01    0.9096731239850406E-07
    0.3266711045517939E+01    0.2610591905961185E-06    0.2504941971167291E+01
    0.7326481440571838E-07    0.1889656617463738E+01    0.3209825366924556E-06
    0.4232537554484796E+01    0.1842317860709700E-06    0.2504941971167291E+01
    0.7326481440571838E-07    0.1918626969802351E+01    0.2654612464148139E-06
    0.1905522374036519E+01    0.4191848405547047E-06    0.2504941971167291E+01
    0.7326481440571838E-07    0.7226290832134608E+00    0.4700684223142578E-06
    0.2879767723645805E+01    0.4783154907874475E-06    0.2504941971167291E+01
    0.7326481440571838E-07    0.9080945892181980E+00    0.2790600869616015E-06
    0.2012711365064515E+01    0.2784828297170905E-06    0.2504941971167291E+01
    0.7326481440571838E-07    0.1767082390977754E+01    0.3805905088996882E-06
    0.2669681472994637E+01    0.1467530038344085E-06    0.2504941971167291E+01
    0.7326481440571838E-07    0.2853394335010791E+01    0.2722699055264357E-06
    0.5000000000000000E+01    0.2940322311579874E-22    0.1250000000000000E+01
    0.2940322311579874E-22    0.5000000000000000E+01    0.2940322311579874E-22
    0.5000000000000000E+01    0.2940322311579874E-22   -0.6085424070073426E-19
[...]
POINT_DATA 213
SCALARS rho double 1
LOOKUP_TABLE default
   0.1346108316263187E+01
  -0.3562440797390080E-06
   0.9572039998601072E+00
  -0.1310509497991901E-06
   0.9461172176739845E+00
  -0.3382079441363332E-07
   0.9421724422233010E+00
   0.6294930186891194E-07
   0.8436076751989997E+00
  -0.1607281260164851E-06
   0.7742023688680127E+00
   0.5692265121106899E-07
   0.7627583542974434E+00
   0.2216262555112155E-06
   0.7661562012441042E+00
  -0.5029352979866827E-07
   0.8310489475274575E+00
   0.4855404439352365E-07
   0.9353548242975379E+00
   0.2524959089551795E-07
   0.9343897288269090E+00
   0.6206871596070011E-07
   0.9616167925151322E+00
   0.6211055891442273E-08
   0.1448475453679366E+01
  -0.3608027315901692E-06
   0.1495420693456335E+01
  -0.5033420759175416E-06
   0.1646729694953575E+01
  -0.6661587504064968E-06
   0.1426611750618393E+01
  -0.1254962673340053E-06
   0.1009807294814246E+01
   0.7151872378404142E-07
   0.9511451599258071E+00
   0.3349454475635117E-07
   0.9438202812352855E+00
   0.7191103368882895E-07
   0.9574649706907019E+00
   0.4587297010396524E-08
   0.9414971310205358E+00
  -0.1113565147270112E-07
   0.1037119050552549E+01
  -0.5496759067367248E-07
   0.9258166083496658E+00
   0.1222991164954565E-07
   0.9322402496788248E+00
   0.4301148470836161E-07
   0.9538058253072221E+00
   0.9701021734005113E-07
   0.9520452717008627E+00
   0.2002874861584872E-07
   0.9351035433474358E+00
   0.4533575336811687E-07
   0.9565496449254087E+00
   0.2473106334202870E-07
   0.9378638716756300E+00
   0.1539628173868367E-06
   0.9303460519868473E+00
  -0.1230464959697749E-07
   0.9446467733334198E+00
  -0.2359490355699347E-07
   0.8862352680534581E+00
   0.1327974048013769E-06
   0.9424046351261888E+00
  -0.4001123499885899E-07
   0.9637013741731763E+00
  -0.2823154550717030E-07
   0.1008356272044946E+01
   0.3329298337901594E-08
   0.1006712429709877E+01
   0.6548347389533122E-08
   0.1001958930205313E+01
   0.3496325937935460E-08
   0.1003217522115534E+01
   0.4653953601700568E-08
   0.1004120115973766E+01
   0.4942523057765322E-08
   0.1005208064902652E+01
   0.4438021199723286E-08
   0.1004249961603992E+01
   0.4935083032439938E-08
   0.1008268330106254E+01
   0.6029360623162018E-08
   0.1023869441005885E+01
   0.1109668130936626E-07
   0.1063755461250228E+01
   0.8537905128741535E-08
   0.1019394088224959E+01
  -0.1187828156749558E-07
   0.1001777911845260E+01
   0.6173725663551756E-08
   0.9645774231495112E+00
  -0.1076929750399697E-07
   0.1005263328272074E+01
   0.6193925309841470E-08
   0.1000745736275085E+01
   0.1154234246681290E-07
   0.1008696549289940E+01
   0.8241888128105977E-08
   0.1008037948454513E+01
   0.1635151716762443E-07
   0.1002353862047816E+01
   0.6876047775107256E-08
   0.9980195530495609E+00
   0.8933813039101523E-08
   0.1000592769357704E+01
   0.8181695358684761E-08
   0.1001620641860687E+01
   0.6419810279041021E-08
   0.9828039326494201E+00
   0.3838001258285367E-08
   0.9843899726746294E+00
   0.2117509496597612E-08
   0.9834136048390918E+00
  -0.8346323155027078E-08
   0.9790327232203947E+00
  -0.3990122957185825E-08
   0.9904757376069990E+00
   0.6768480394116877E-08
   0.9935193468940681E+00
   0.1087876242843628E-07
   0.1002008894346862E+01
   0.3484123000640861E-08
   0.1002132240744493E+01
   0.3456263742415139E-08
   0.1002273087521132E+01
   0.3665049380404940E-08
   0.1001793578297202E+01
   0.4124435495602483E-08
   0.1009816088027809E+01
   0.3936653328367456E-08
   0.1006507955582138E+01
   0.6583220104897453E-08
   0.9561125617151256E+00
  -0.4052921172321267E-08
   0.9252807406676199E+00
  -0.3924488815551001E-07
   0.1007053966729333E+01
   0.3652559472483529E-08
   0.1004490981234772E+01
   0.4664003573748910E-08
   0.9145128351552938E+00
  -0.1715326274053599E-07
   0.9091570307030333E+00
  -0.1402165472400067E-07
   0.8752463079641248E+00
  -0.2828737493254217E-08
   0.9767979597407882E+00
   0.5319299702928105E-08
   0.1000541360241150E+01
   0.1002817479034312E-07
   0.1005826549297303E+01
   0.3864294484953680E-08
   0.1012896701668312E+01
   0.6166576445385964E-08
   0.1011680292165989E+01
   0.5668422244380075E-08
   0.1010415973639726E+01
   0.4361253701392600E-08
   0.1005456587395486E+01
   0.3823011668756802E-08
   0.9909167515212863E+00
  -0.2142083660675386E-08
   0.1005149610920274E+01
   0.5350419564923268E-08
   0.9860895085449209E+00
   0.1318657045759080E-07
   0.1005593206447751E+01
   0.6861253575675066E-08
   0.1004239922232599E+01
   0.4368729529302184E-08
   0.1002885969213356E+01
   0.4583855610195522E-08
   0.1003350063078456E+01
   0.4401404206629279E-08
   0.1003997944127809E+01
   0.4419053177517563E-08
   0.1005115344746925E+01
   0.4989563068221161E-08
   0.1003223209693070E+01
   0.5997348479513512E-08
   0.1002669123761885E+01
   0.6005280780003141E-08
   0.1002589508054972E+01
   0.4579251092669441E-08
   0.1004069040374425E+01
   0.4961478902787025E-08
   0.1004304991187203E+01
   0.4557444107680190E-08
   0.1001643157085842E+01
   0.5962231739680307E-08
   0.1002279136440332E+01
   0.5289857695877069E-08
   0.1002546782020499E+01
   0.4750991894415695E-08
   0.1003472000595584E+01
   0.5906501264805985E-08
   0.1003380240374743E+01
   0.6054595029397057E-08
   0.1003233137295514E+01
   0.4848552590183019E-08
   0.1004429899220269E+01
   0.5660747618990786E-08
   0.1004324039413548E+01
   0.5688188423257180E-08
   0.1003653018135794E+01
   0.4735654440873378E-08
   0.1003718560687944E+01
   0.5317031051563697E-08
   0.1004319243041976E+01
   0.5362173685327581E-08
   0.1004462563047391E+01
   0.5302429755710822E-08
   0.1003629396212330E+01
   0.5825623595388087E-08
   0.1064485256925094E+01
   0.7220595950634838E-08
   0.1028442061791065E+01
   0.4155066745692616E-08
   0.1009605873439082E+01
   0.6009830051428401E-08
   0.1006626987278254E+01
   0.5521426485928801E-08
   0.1163967546375654E+01
  -0.4950379125085945E-07
   0.1086026686831194E+01
   0.4881373671834882E-08
   0.1007907087193439E+01
   0.5591620393286877E-08
   0.1007251825931666E+01
   0.5323027838088882E-08
   0.1006796456312476E+01
   0.4845281305186863E-08
   0.1013053883282694E+01
   0.8182596049299248E-08
   0.1019340792084213E+01
   0.5059073029614400E-08
   0.1235123173296739E+01
  -0.1388186722765612E-06
   0.1032535565187852E+01
   0.6134143751290936E-08
   0.1046565480922842E+01
   0.1754043549967135E-08
   0.1201701822065653E+01
  -0.5485433517266684E-07
   0.1014672138144494E+01
   0.9062436005066887E-08
   0.1032297498308530E+01
   0.1569967756985469E-07
   0.1028222183338714E+01
   0.1023553824150922E-07
   0.1014640520410220E+01
   0.6699019720945891E-08
   0.1028986926999327E+01
   0.5662501429608523E-08
   0.1002003667365965E+01
   0.6470465406186080E-08
   0.9608147831457539E+00
  -0.7774490053017173E-08
   0.1006858072237078E+01
   0.6378690297114404E-08
   0.1001324898680455E+01
   0.9139516730375449E-08
   0.1010798261832896E+01
   0.8101249623993204E-08
   0.1012231336352144E+01
   0.1056285831713953E-07
   0.1000939569587513E+01
   0.8058705461494455E-08
   0.9979357843525267E+00
   0.9998589132298885E-08
   0.9980690509294058E+00
   0.9027817608210996E-08
   0.1001192040826548E+01
   0.7128295887756656E-08
   0.9842100790524326E+00
   0.1554601242731482E-07
   0.9815228436094028E+00
   0.1044701726506027E-07
   0.9648740509475490E+00
   0.3549273435359658E-07
   0.9680944437803320E+00
   0.2311859980961056E-07
   0.9914084286456272E+00
   0.8642241962987018E-08
   0.9910913083038571E+00
   0.1124671475585130E-07
   0.9925587124656191E+00
   0.1062861462020413E-07
   0.1001727549514227E+01
   0.9167324135160625E-08
   0.9993245747401732E+00
   0.1033389877440567E-07
   0.9941434371395430E+00
   0.1315144956921631E-07
   0.1006982475141315E+01
   0.1101985784277636E-07
   0.1022613019618604E+01
   0.2563013458678966E-07
   0.1001120639139622E+01
   0.2797012839299581E-08
   0.1008783935583384E+01
   0.7788233114115018E-08
   0.1004774772921337E+01
   0.7533788055333577E-08
   0.1009030410930867E+01
   0.8868239761712265E-08
   0.9967211493815348E+00
   0.1174334245948708E-07
   0.1005570715442221E+01
   0.2594484794861535E-07
   0.1003324760114170E+01
   0.6682846573810080E-08
   0.9949845984908272E+00
   0.9153165103987802E-08
   0.9833501663083100E+00
   0.8973792962660778E-08
   0.9944494689142663E+00
   0.8233718984683503E-08
   0.9973474193053193E+00
   0.7862833022342589E-08
   0.9932503760541468E+00
   0.8484927673623003E-08
   0.1001311884906833E+01
   0.7555070711094537E-08
   0.1003000708376204E+01
   0.7284599298506492E-08
   0.1002188291593110E+01
   0.6251702452426040E-08
   0.9947120026401672E+00
   0.9460343818403940E-08
   0.9937832198057067E+00
   0.1025357009367822E-07
   0.1004861704668888E+01
   0.6939024903952168E-08
   0.1020101282070685E+01
   0.9070512082255671E-08
   0.1005337229999302E+01
   0.8491032842925905E-08
   0.9817045977666784E+00
   0.1234872187607464E-07
   0.1004974596061809E+01
   0.6133566519160309E-08
   0.1012374662656390E+01
   0.7437713467892007E-08
   0.9873720328709544E+00
  -0.2258407640765158E-07
   0.9551284413724823E+00
   0.3529182220751684E-07
   0.9865253756902155E+00
   0.1383751289205622E-07
   0.9865916534802153E+00
   0.5957342556231552E-08
   0.9920067167869525E+00
  -0.2445585383317782E-07
   0.9934435620808116E+00
   0.6764529201320689E-09
   0.9960682553857130E+00
   0.2213512795093258E-07
   0.1037400105928132E+01
   0.3677934141190649E-08
   0.1033161102224276E+01
   0.9639322735230613E-08
   0.1001442942589847E+01
   0.5877316523322703E-08
   0.1001928635177596E+01
   0.6704488067209195E-08
   0.9912313107685401E+00
   0.1431815232191083E-07
   0.9911145322898087E+00
   0.1255133436068793E-07
   0.9649433996998192E+00
   0.1193774287744792E-07
   0.9933790316917648E+00
   0.1104090013058926E-07
   0.1006090796374753E+01
   0.6593245084564392E-08
   0.1001963018637760E+01
   0.7529183844112533E-08
   0.9908628976459766E+00
   0.1083445032550912E-07
   0.9742169955168898E+00
  -0.1073501055628538E-08
   0.9420656172337523E+00
  -0.1777668361928744E-07
   0.9821543954947114E+00
  -0.3438258429454045E-08
   0.9794783302235243E+00
   0.1520928639131589E-07
   0.9704368616041439E+00
   0.1403703827787404E-07
   0.9720887189878914E+00
   0.1897603422519610E-07
   0.9557898414997551E+00
   0.9665801114985589E-08
   0.9498086706711318E+00
   0.3568645880638563E-08
   0.9529904616790422E+00
   0.2621851990302927E-07
   0.1002635788495218E+01
   0.8021271947144623E-08
   0.1002475631460713E+01
   0.7247155471326477E-08
   0.1000513073316604E+01
   0.6518351958834473E-08
   0.1001674838577962E+01
   0.6846243397003981E-08
   0.9610035232182598E+00
   0.1559240960609843E-07
   0.9492443247445941E+00
   0.2247074953488361E-07
   0.9586632960130880E+00
   0.9151536129205161E-08
   0.1001121360678564E+01
   0.7681235146635583E-08
   0.1000501199843904E+01
   0.7524279385970881E-08
   0.1001159801540511E+01
   0.7266086034563404E-08
   0.9807420384794839E+00
   0.1121125546418407E-07
   0.9805568735449567E+00
   0.1767154094227063E-07
   0.9629217552733613E+00
   0.2260223623491188E-08
SCALARS u double 1
LOOKUP_TABLE default
   0.0000000000000000E+00
   0.0000000000000000E+00
   0.0000000000000000E+00
   0.0000000000000000E+00
   0.0000000000000000E+00
   0.0000000000000000E+00
   0.0000000000000000E+00
   0.0000000000000000E+00
   0.0000000000000000E+00
   0.0000000000000000E+00
   0.0000000000000000E+00
   0.0000000000000000E+00
   0.0000000000000000E+00
   0.0000000000000000E+00
   0.0000000000000000E+00
   0.0000000000000000E+00
   0.0000000000000000E+00
   0.0000000000000000E+00
   0.0000000000000000E+00
   0.0000000000000000E+00
   0.0000000000000000E+00
   0.0000000000000000E+00
   0.0000000000000000E+00
   0.0000000000000000E+00
   0.0000000000000000E+00
   0.0000000000000000E+00
   0.0000000000000000E+00
   0.0000000000000000E+00
   0.0000000000000000E+00
   0.0000000000000000E+00
   0.0000000000000000E+00
   0.0000000000000000E+00
   0.0000000000000000E+00
   0.0000000000000000E+00
   0.0000000000000000E+00
   0.0000000000000000E+00
   0.0000000000000000E+00
   0.0000000000000000E+00
   0.0000000000000000E+00
   0.0000000000000000E+00
   0.0000000000000000E+00
   0.0000000000000000E+00
   0.0000000000000000E+00
   0.0000000000000000E+00
   0.0000000000000000E+00
   0.0000000000000000E+00
   0.0000000000000000E+00
   0.0000000000000000E+00
   0.0000000000000000E+00
   0.0000000000000000E+00
   0.0000000000000000E+00
   0.0000000000000000E+00
   0.0000000000000000E+00
   0.0000000000000000E+00
   0.0000000000000000E+00
   0.0000000000000000E+00
   0.0000000000000000E+00
   0.0000000000000000E+00
   0.0000000000000000E+00
   0.0000000000000000E+00
   0.0000000000000000E+00
   0.0000000000000000E+00
   0.0000000000000000E+00
   0.0000000000000000E+00
   0.0000000000000000E+00
   0.0000000000000000E+00
   0.4945973678192886E+00
  -0.1398870332606583E-07
   0.5336248050513216E+00
  -0.6671903539341161E-08
   0.5182740404555577E+00
   0.6866369004484840E-09
   0.4930714246731525E+00
   0.1744518693476839E-08
   0.4847754205069141E+00
  -0.3427076977036663E-08
   0.4868132653368434E+00
  -0.4485075084473267E-08
   0.4891430744281558E+00
  -0.3863573354314701E-08
   0.4958009013999689E+00
  -0.5265291718591293E-08
   0.4899007394802788E+00
  -0.4169793415636106E-08
   0.4718072596334958E+00
  -0.1026539498910788E-07
   0.4448872821972438E+00
   0.1228684484021807E-07
   0.4844369958684638E+00
  -0.2163738121508476E-07
   0.5097703333340531E+00
  -0.4556751705026539E-08
   0.4401859475311195E+00
   0.3144264364416619E-07
   0.4949587097188905E+00
  -0.6005803834717306E-08
   0.5223003573209659E+00
  -0.1469305454797687E-07
   0.4962747030736203E+00
  -0.9277796230079258E-08
   0.5223832221991188E+00
  -0.2208375992815564E-07
   0.5038168244758501E+00
  -0.8343621389884825E-08
   0.5644336963923353E+00
  -0.1112273738972819E-07
   0.5245894641994336E+00
  -0.8423618014174161E-08
   0.4990985097736278E+00
  -0.6668748206218830E-08
   0.5729201586902799E+00
  -0.2390008325646129E-07
   0.5693592828693844E+00
  -0.1580845150787189E-07
   0.3752192377624573E+00
  -0.7127988299673650E-08
   0.4003638955707872E+00
  -0.7136786439715389E-07
   0.5599389981226935E+00
  -0.1492024987264907E-07
   0.5562259014215799E+00
  -0.1227933123746007E-07
   0.4942640825316904E+00
   0.1353196955734834E-08
   0.4948651958955053E+00
   0.4736407813232687E-09
   0.4925619071368207E+00
  -0.1402299457593056E-09
   0.4913967782807036E+00
   0.3776002816816413E-09
   0.5162597182184124E+00
   0.9612135976047821E-09
   0.5363670730383631E+00
   0.1334082948116219E-08
   0.4951374106577126E+00
  -0.4921911506420789E-08
   0.4520512890331969E+00
  -0.2077624464175604E-07
   0.5129007652647510E+00
   0.8264777076964639E-09
   0.5117699763445767E+00
   0.1450486486805629E-08
   0.4786317418659968E+00
  -0.1264820060067675E-07
   0.4931122297850560E+00
  -0.1167200898066822E-07
   0.4600270411492073E+00
  -0.4374103535866644E-07
   0.5242595707294671E+00
  -0.1573035435611984E-07
   0.5299947205782715E+00
  -0.5787142354625463E-08
   0.5129700677652679E+00
  -0.4523056272670557E-09
   0.5328928660743224E+00
   0.9698858124957280E-09
   0.5309782654292655E+00
   0.1601152871187194E-08
   0.5309767611424626E+00
   0.7942966325183804E-09
   0.5063651340503653E+00
   0.8895188896488542E-09
   0.5279536185345562E+00
  -0.1054700319196866E-07
   0.5409238855073414E+00
  -0.3718211838435721E-08
   0.5363719066788135E+00
  -0.1560679799468890E-07
   0.5374201319951188E+00
  -0.7800431729323411E-08
   0.4965358979110482E+00
  -0.5379767646935328E-08
   0.4975364856908090E+00
  -0.5449627921015239E-08
   0.4963815197052282E+00
  -0.4582154026538488E-08
   0.4955155009819245E+00
  -0.5056537072776573E-08
   0.4904172548498139E+00
  -0.4799301551449287E-08
   0.4902500217795213E+00
  -0.5588075475209384E-08
   0.4861611309726970E+00
  -0.4847821874399325E-08
   0.4854067564177997E+00
  -0.3544417929854678E-08
   0.4931955989645653E+00
  -0.5287202515890588E-08
   0.4910329667939763E+00
  -0.4181842848664215E-08
   0.4831677513609205E+00
  -0.5680059270412007E-08
   0.4872468806484651E+00
  -0.5333167557449493E-08
   0.4880024273792137E+00
  -0.3650911635701718E-08
   0.4872312392880541E+00
  -0.6427728658058089E-08
   0.4882163845925044E+00
  -0.4945555683234847E-08
   0.4952576817170825E+00
  -0.5097029775397495E-08
   0.4900721164411495E+00
  -0.4864707926593086E-08
   0.4903599279046247E+00
  -0.5281978607167921E-08
   0.4944353026095886E+00
  -0.4800813525254231E-08
   0.4868191758702974E+00
  -0.5098781539780034E-08
   0.4892735512144825E+00
  -0.5300062671419246E-08
   0.4881467930726989E+00
  -0.5329420097304797E-08
   0.4878252396081332E+00
  -0.5983756022425378E-08
   0.4449106780028047E+00
   0.5794134125378439E-08
   0.4700132875185012E+00
  -0.4490151051314645E-08
   0.4891774917471640E+00
  -0.5736502088905106E-08
   0.4885974634682752E+00
  -0.2086453071793525E-08
   0.4510294628034610E+00
   0.1791611141226435E-07
   0.4681803399583856E+00
  -0.1332564849749772E-07
   0.4876666907156830E+00
  -0.3609522505040599E-08
   0.4868262750091013E+00
  -0.1529896191140422E-08
   0.4909268404137024E+00
  -0.2804915835128220E-08
   0.4793945543460301E+00
  -0.5084509280027284E-08
   0.4657906777213874E+00
  -0.3161210638854603E-08
   0.3794391075096504E+00
   0.3392478314618219E-07
   0.4903637343848548E+00
  -0.3301165858734982E-07
   0.4487969161867038E+00
  -0.4476949405679342E-08
   0.4432386725517029E+00
   0.9004973804824898E-08
   0.4845716407443506E+00
  -0.7952232176952502E-08
   0.4621867851108309E+00
  -0.1414753874763095E-07
   0.4663606659234962E+00
  -0.3216817060888667E-07
   0.4747787029548008E+00
  -0.5323107676890961E-08
   0.4893811124179738E+00
  -0.4647343656035886E-07
   0.5085638676813689E+00
  -0.9220195863260032E-08
   0.4305372591507503E+00
   0.1713929865523778E-07
   0.4927298036614693E+00
  -0.6527582505211673E-08
   0.5320327256123955E+00
  -0.2180010164784545E-07
   0.4913855406343082E+00
  -0.8568569669282970E-08
   0.5209473688354003E+00
  -0.1571436214456607E-07
   0.5061309364999832E+00
  -0.1249032420119768E-07
   0.5690650993918969E+00
  -0.1040239802222602E-07
   0.5274990552036563E+00
  -0.1665913588714774E-07
   0.5015024129571816E+00
  -0.1021811546316603E-07
   0.5821782454631159E+00
   0.5073078605179645E-08
   0.5691769250212061E+00
  -0.9012978185274121E-09
   0.3403300368286923E+00
   0.1296516379584833E-07
   0.3786151439693098E+00
   0.7309072917763404E-07
   0.5753346481750982E+00
  -0.1010286288919771E-07
   0.5668543263573874E+00
  -0.2143368657604609E-07
   0.5703059562536300E+00
  -0.1642072871327435E-07
   0.5291879205953285E+00
  -0.2252691460171731E-07
   0.5449837175767513E+00
  -0.2073162030222902E-07
   0.5719102639589946E+00
  -0.1064375962298918E-07
   0.5385667386742354E+00
  -0.2832118222258853E-07
   0.5475905556230232E+00
  -0.2451851366554016E-08
   0.5821515963414107E+00
   0.2863685741246921E-07
   0.4925318968536254E+00
  -0.1545383790206258E-07
   0.5041571115926095E+00
  -0.9825686536363764E-08
   0.4961293265019238E+00
  -0.1213135603721143E-07
   0.5562736233265544E+00
  -0.1408460723712347E-07
   0.4757837005646061E+00
  -0.2505782261912565E-07
   0.4950183184506495E+00
  -0.7866112031565369E-08
   0.5496188055878108E+00
  -0.1337856690641656E-07
   0.5889517159317524E+00
  -0.9821715845358134E-08
   0.5839552612739216E+00
  -0.1500004513283662E-07
   0.5468175663611090E+00
  -0.1183693577757994E-07
   0.5803880219192158E+00
  -0.1289060100270237E-07
   0.5106065646599290E+00
  -0.1330213971052240E-07
   0.5029552653040468E+00
  -0.1122369714202381E-07
   0.5033112976890796E+00
  -0.7476494734832853E-08
   0.5676222186353570E+00
  -0.8370383170408834E-08
   0.5564619505294794E+00
  -0.1828590047726751E-07
   0.4947144959330559E+00
  -0.9719885638058494E-08
   0.5506785365921411E+00
  -0.3390192539102159E-07
   0.5513581031285257E+00