title="tecplot geometry and solution file"
variables = x y z rho u v w p mach temperature
zone t="boundary 1 bc-1", solutiontime= 0.8000000E+02, strandid=1001, i=32, j=46, f=feblock
 -0.547403479148E-02  0.000000000000E+00 -0.567603753933E-02  0.000000000000E+00  0.000000000000E+00  0.000000000000E+00 -0.525075884234E-02
 -0.425736813022E-02  0.000000000000E+00  0.000000000000E+00  0.000000000000E+00  0.000000000000E+00  0.000000000000E+00  0.000000000000E+00
  0.000000000000E+00  0.000000000000E+00 -0.338374936954E-02  0.000000000000E+00  0.000000000000E+00  0.000000000000E+00  0.000000000000E+00
  0.000000000000E+00  0.000000000000E+00  0.000000000000E+00  0.000000000000E+00  0.000000000000E+00  0.000000000000E+00  0.000000000000E+00
  0.000000000000E+00  0.000000000000E+00  0.000000000000E+00  0.000000000000E+00
  0.250494207673E+01  0.250494207673E+01  0.127822194553E+01  0.146289271009E+01  0.157686156160E+01  0.308372018325E+00  0.261954449698E-01
 -0.122573381648E+01 -0.600232012419E+00  0.250494207673E+01  0.477386199275E+00  0.742988685424E+00 -0.739814786992E+00  0.177790177481E+01
  0.155830813274E+01  0.250494207673E+01 -0.249658897678E+01 -0.154800130438E+01 -0.487811078581E+00  0.250494207673E+01  0.627766083140E+00
 -0.345533899378E+00 -0.178862290564E+01 -0.158811787973E+01  0.125000000000E+01 -0.249658897678E+01 -0.144524380962E+01  0.000000000000E+00
 -0.125000000000E+01 -0.249658897678E+01 -0.249658897678E+01 -0.249658897678E+01
  0.815015939903E-04  0.125000000000E+01  0.825616560012E-04  0.103724302461E+01  0.219251206392E+01  0.922061490191E+00  0.104933472595E-03
  0.349514350672E-04  0.715990576545E+00  0.250000000000E+01  0.202479342020E+01  0.324151231464E+01  0.175434191980E+01  0.310152362409E+01
  0.404200324774E+01  0.375000000000E+01  0.813879907819E-04  0.930412228790E+00  0.299062775774E+01  0.500000000000E+01  0.429310310915E+01
  0.409252726285E+01  0.187029682677E+01  0.284428995242E+01  0.500000000000E+01  0.125000000000E+01  0.394624082883E+01  0.500000000000E+01
  0.500000000000E+01  0.250000000000E+01  0.375000000000E+01  0.500000000000E+01
  0.121959971282E+01  0.105831356381E+01  0.128671962467E+01  0.108337053537E+01  0.102354614707E+01  0.116941702859E+01  0.145633694352E+01
  0.134804046829E+01  0.119311467763E+01  0.101662522459E+01  0.101712194971E+01  0.100667542717E+01  0.102800076597E+01  0.100987438516E+01
  0.100346383260E+01  0.100488609622E+01  0.130024668098E+01  0.114206736844E+01  0.100787501018E+01  0.100194476488E+01  0.100378959997E+01
  0.100390910093E+01  0.103478537090E+01  0.101224062903E+01  0.100190260603E+01  0.106018059636E+01  0.100437851503E+01  0.100077796232E+01
  0.100130067701E+01  0.102043484928E+01  0.100593736384E+01  0.100184292224E+01
  0.000000000000E+00  0.451834063784E+00  0.000000000000E+00  0.472912031320E+00  0.470158336034E+00  0.459504985328E+00  0.000000000000E+00
  0.000000000000E+00  0.401768607408E+00  0.478881792760E+00  0.474223495187E+00  0.485492999365E+00  0.492581090804E+00  0.489510445884E+00
  0.492201648775E+00  0.493575543665E+00  0.000000000000E+00  0.464516488729E+00  0.481634330953E+00  0.498235962654E+00  0.494015374219E+00
  0.490674201108E+00  0.458608946746E+00  0.473144558270E+00  0.498753316123E+00  0.451330962783E+00  0.491521108120E+00  0.499569337914E+00
  0.498567815570E+00  0.477380966153E+00  0.492957762565E+00  0.497856403321E+00
  0.000000000000E+00  0.000000000000E+00  0.000000000000E+00  0.156898346311E-01 -0.426047067983E-02  0.288059778040E-01  0.000000000000E+00
  0.000000000000E+00 -0.370116738096E-02  0.000000000000E+00  0.249850267953E-02 -0.528108286460E-02 -0.303262959785E-02 -0.172450357157E-03
 -0.109130971885E-02  0.000000000000E+00  0.000000000000E+00 -0.850278844803E-02  0.955098283375E-03  0.000000000000E+00 -0.167361389281E-02
 -0.105339283744E-02  0.212715960540E-02 -0.123596254728E-02  0.695900269076E-04  0.000000000000E+00  0.214869632541E-03 -0.176723380946E-03
  0.608283571906E-03  0.000000000000E+00  0.000000000000E+00  0.000000000000E+00
  0.000000000000E+00  0.388446353211E-01  0.000000000000E+00  0.103917066741E+00  0.224193285288E-01  0.135341767342E+00  0.000000000000E+00
  0.000000000000E+00  0.126992318360E+00  0.342255542372E-02  0.213553587764E-01 -0.708603534467E-02  0.636034584409E-01  0.292766494292E-02
 -0.792041556864E-03  0.244077528796E-03  0.000000000000E+00  0.115618455863E+00 -0.829814976697E-02  0.114480698753E-02 -0.749344435986E-03
 -0.442111408461E-02  0.223714011165E-01 -0.264557095752E-02  0.180778975100E-02  0.687953606069E-01 -0.177101708041E-02  0.155938519904E-02
  0.142678726414E-02  0.233070424553E-02 -0.110520717114E-02  0.211864485383E-02
  0.908102104611E+00  0.774899694272E+00  0.958078939281E+00  0.800622223507E+00  0.737949074909E+00  0.857914812992E+00  0.108437434802E+01
  0.100373784405E+01  0.887195926561E+00  0.730580348736E+00  0.733315339157E+00  0.720299332328E+00  0.748106672521E+00  0.724222065737E+00
  0.717576385182E+00  0.719224736307E+00  0.968151054072E+00  0.840784325677E+00  0.722225747148E+00  0.716319887247E+00  0.717948116028E+00
  0.717912570714E+00  0.749167987116E+00  0.726422688893E+00  0.716249844593E+00  0.782033712312E+00  0.718602108375E+00  0.715132537464E+00
  0.715579063543E+00  0.734165580619E+00  0.720297839388E+00  0.716213116964E+00
  0.000000000000E+00  0.447917906438E+00  0.000000000000E+00  0.476275923175E+00  0.468523765085E+00  0.473519687927E+00  0.000000000000E+00
  0.000000000000E+00  0.412988882038E+00  0.477443347459E+00  0.472504665703E+00  0.485153448711E+00  0.492070523469E+00  0.488543840482E+00
  0.491923385701E+00  0.493078173574E+00  0.000000000000E+00  0.471586674343E+00  0.480934105392E+00  0.498012892840E+00  0.493689913733E+00
  0.490409926287E+00  0.456073466727E+00  0.472047046382E+00  0.498545864658E+00  0.449258006972E+00  0.491117578844E+00  0.499470102884E+00
  0.498443303453E+00  0.475665757448E+00  0.492352556404E+00  0.497648493581E+00
  0.104242640687E+01  0.102508331092E+01  0.104242640687E+01  0.103461472905E+01  0.100936211604E+01  0.102707649095E+01  0.104242640687E+01
  0.104242640687E+01  0.104103513307E+01  0.100608608118E+01  0.100935927606E+01  0.100173207575E+01  0.101882155753E+01  0.100399703858E+01
  0.100113916079E+01  0.100201867118E+01  0.104242640687E+01  0.103067304826E+01  0.100321571206E+01  0.100090132440E+01  0.100133271203E+01
  0.100116394807E+01  0.101357751226E+01  0.100469368180E+01  0.100084556762E+01  0.103269876943E+01  0.100165718071E+01  0.100040727328E+01
  0.100050934945E+01  0.100724883474E+01  0.100246497585E+01  0.100085386790E+01
        12        19        11        11
        11         5        12        12
        10        14         5         5
        19        13        11        11
        19        24        13        13
        30        23        24        24
        19        12        22        22
        28        22        21        21
        11        13         6         6
         7         6         9         9
        15        12        14        14
        18        13        23        23
        15        25        21        21
        27        19        22        22
        18         8         9         9
        27        31        24        24
         4        11         6         6
         5        14        12        12
         4         2         5         5
        21        12        15        15
        14        16        15        15
        24        19        27        27
        22        29        27        27
        23        26        18        18
        17         8        18        18
         5        11         4         4
         6         3         4         4
        26        23        30        30
         5         2        10        10
        16        14        10        10
         3         6         7         7
        21        25        28        28
        29        22        28        28
         6        13         9         9
         2         4         1         1
        31        27        32        32
        25        15        20        20
        24        23        13        13
         8         7         9         9
        13        18         9         9
        31        30        24        24
        12        21        22        22
        29        32        27        27
         3         1         4         4
        26        17        18        18
        16        20        15        15
zone t="boundary 2 bc-2", solutiontime= 0.8000000E+02, strandid=1002, i=33, j=48, f=feblock
  0.500195341135E+01  0.375034910129E+01  0.249861170242E+01  0.288036698845E+01  0.124717549663E+01  0.190856748382E+01  0.326577206104E+01
  0.201394882463E+01 -0.338374936954E-02  0.962374532454E+00  0.500000000000E+01  0.403430207908E+01  0.423029574132E+01  0.500000000000E+01
  0.385439196956E+01  0.500000000000E+01  0.398133436420E+01  0.315200086795E+01  0.266958039312E+01  0.154798037926E+01  0.218327863071E+01
  0.893688549420E+00  0.000000000000E+00  0.699009795070E+00  0.964460910475E+00  0.310303673914E+01  0.000000000000E+00  0.000000000000E+00
  0.125000000000E+01  0.500000000000E+01  0.375000000000E+01  0.250000000000E+01  0.000000000000E+00
 -0.249658897678E+01 -0.249658897678E+01 -0.249658897678E+01 -0.249658897678E+01 -0.249658897678E+01 -0.249658897678E+01 -0.249658897678E+01
 -0.249658897678E+01 -0.249658897678E+01 -0.249658897678E+01 -0.249658897678E+01 -0.249658897678E+01 -0.249658897678E+01 -0.249658897678E+01
 -0.249658897678E+01 -0.249658897678E+01 -0.249658897678E+01 -0.249658897678E+01 -0.249658897678E+01 -0.249658897678E+01 -0.249658897678E+01
 -0.249658897678E+01 -0.249658897678E+01 -0.249658897678E+01 -0.249658897678E+01 -0.249658897678E+01 -0.249658897678E+01 -0.249658897678E+01
 -0.249658897678E+01 -0.249658897678E+01 -0.249658897678E+01 -0.249658897678E+01 -0.249658897678E+01
  0.109048776423E-03  0.146000800505E-03  0.100982141136E-03  0.901663553469E+00  0.111272491260E-03  0.714928384187E+00  0.188140665818E+01
  0.175892180762E+01  0.813879907819E-04  0.957504577548E+00  0.125000000000E+01  0.100596727486E+01  0.191313533373E+01  0.250000000000E+01
  0.292898109395E+01  0.375000000000E+01  0.406883375261E+01  0.363389299802E+01  0.284756876624E+01  0.292582316470E+01  0.395754061536E+01
  0.205027268305E+01  0.125000000000E+01  0.306703276451E+01  0.397155769281E+01  0.433068627066E+01  0.250000000000E+01  0.375000000000E+01
  0.500000000000E+01  0.500000000000E+01  0.500000000000E+01  0.500000000000E+01  0.500000000000E+01
  0.768735743480E+00  0.889523380049E+00  0.898746487343E+00  0.950542456826E+00  0.924960135249E+00  0.947969336703E+00  0.981017553465E+00
  0.987799009947E+00  0.130024668098E+01  0.101390436003E+01  0.944836348700E+00  0.944236800604E+00  0.978087767771E+00  0.100717422457E+01
  0.997784687203E+00  0.100978229618E+01  0.100012042248E+01  0.996167626329E+00  0.989919915859E+00  0.998867626820E+00  0.997941843576E+00
  0.100913681390E+01  0.106018059636E+01  0.100643337522E+01  0.100351221258E+01  0.998477818308E+00  0.102043484928E+01  0.100593736384E+01
  0.100234892543E+01  0.999828414411E+00  0.100019291592E+01  0.100028687164E+01  0.100184292224E+01
  0.000000000000E+00  0.000000000000E+00  0.000000000000E+00  0.385195764793E+00  0.000000000000E+00  0.340885851469E+00  0.583453469788E+00
  0.571759462139E+00  0.000000000000E+00  0.480963160231E+00  0.505185167738E+00  0.443662029834E+00  0.572024021477E+00  0.532003765269E+00
  0.566400141726E+00  0.512620358571E+00  0.508195577949E+00  0.526914214955E+00  0.564509553562E+00  0.531478326949E+00  0.508129380445E+00
  0.521930180872E+00  0.451330962783E+00  0.494980685643E+00  0.496091696403E+00  0.503538717634E+00  0.477380966153E+00  0.492957762565E+00
  0.494536383408E+00  0.491695277302E+00  0.489493219340E+00  0.494635424879E+00  0.497856403321E+00
  0.000000000000E+00  0.000000000000E+00  0.000000000000E+00  0.000000000000E+00  0.000000000000E+00  0.000000000000E+00  0.000000000000E+00
  0.000000000000E+00  0.000000000000E+00  0.000000000000E+00  0.000000000000E+00  0.000000000000E+00  0.000000000000E+00  0.000000000000E+00
  0.000000000000E+00  0.000000000000E+00  0.000000000000E+00  0.000000000000E+00  0.000000000000E+00  0.000000000000E+00  0.000000000000E+00
  0.000000000000E+00  0.000000000000E+00  0.000000000000E+00  0.000000000000E+00  0.000000000000E+00  0.000000000000E+00  0.000000000000E+00
  0.000000000000E+00  0.000000000000E+00  0.000000000000E+00  0.000000000000E+00  0.000000000000E+00
  0.000000000000E+00  0.000000000000E+00  0.000000000000E+00 -0.142933790064E-02  0.000000000000E+00  0.168978020175E-01  0.875997484419E-02
  0.403963896038E-01  0.000000000000E+00  0.730722624075E-01 -0.112216768691E+00 -0.262898182478E-01 -0.368283730659E-01 -0.483402011036E-01
 -0.588591773073E-02 -0.170483625356E-03 -0.195986008736E-02 -0.317074080087E-02  0.106422552551E-01  0.235146851277E-01  0.228804462262E-02
  0.486674923967E-01  0.687953606069E-01  0.868228589652E-02  0.441101639264E-02 -0.351502248611E-02  0.233070424553E-02 -0.110520717114E-02
  0.135829412623E-02  0.546603270453E-02 -0.147515701297E-02 -0.124161935565E-02  0.211864485383E-02
  0.572393170649E+00  0.662330472066E+00  0.669197908206E+00  0.681370892822E+00  0.688716335919E+00  0.681181033353E+00  0.693024465661E+00
  0.700085134445E+00  0.968151054072E+00  0.722087333434E+00  0.666760584440E+00  0.671480436798E+00  0.691232282612E+00  0.720038377123E+00
  0.710710003985E+00  0.723770716920E+00  0.714752641400E+00  0.710894219627E+00  0.704007888514E+00  0.714159227209E+00  0.712429498300E+00
  0.725804158591E+00  0.782033712312E+00  0.720438335655E+00  0.717728354166E+00  0.712837431322E+00  0.734165580619E+00  0.720297839388E+00
  0.716518298676E+00  0.714353114555E+00  0.714323979517E+00  0.714486134031E+00  0.716213116964E+00
  0.000000000000E+00  0.000000000000E+00  0.000000000000E+00  0.384516027417E+00  0.000000000000E+00  0.340285741430E+00  0.586752919012E+00
  0.575425985408E+00  0.000000000000E+00  0.487199393766E+00  0.520641019336E+00  0.445423536264E+00  0.576269183876E+00  0.533962364944E+00
  0.567224507717E+00  0.511735125983E+00  0.508063922389E+00  0.527166107189E+00  0.565842688017E+00  0.531744051170E+00  0.508272206017E+00
  0.522388436466E+00  0.449258006972E+00  0.494521460883E+00  0.495788428354E+00  0.503678479409E+00  0.475665757448E+00  0.492352556404E+00
  0.494346757959E+00  0.491660274102E+00  0.489529543390E+00  0.494638536925E+00  0.497648493581E+00
  0.104242640687E+01  0.104242640687E+01  0.104242640687E+01  0.100355249058E+01  0.104242640687E+01  0.100599609056E+01  0.989008044247E+00
  0.992225319477E+00  0.104242640687E+01  0.997058802254E+00  0.987964550157E+00  0.995589889015E+00  0.989405273784E+00  0.100087323859E+01
  0.997203122418E+00  0.100346283305E+01  0.100053321127E+01  0.999080758270E+00  0.995647251994E+00  0.100095637425E+01  0.999458339222E+00
  0.100692572903E+01  0.103269876943E+01  0.100216635771E+01  0.100130290717E+01  0.999493815038E+00  0.100724883474E+01  0.100246497585E+01
  0.100077487260E+01  0.100026599161E+01  0.999860682281E+00  0.999993717805E+00  0.100085386790E+01
        15         7        19        19
         8        20        19        19
        18        19        21        21
         7         4         8         8
         3         6         4         4
        19         7         8         8
        19        18        15        15
        14        13        15        15
         8        22        20        20
        27        24        22        22
        19        20        21        21
        32        26        21        21
        17        18        26        26
        17        16        15        15
        25        29        21        21
        12         7        13        13
        10         8         6         6
        25        20        24        24
         4         6         8         8
        12         2         4         4
        10        23        22        22
        26        31        17        17
        30        16        17        17
         4         7        12        12
        13        11        12        12
        21        20        25        25
        24        28        25        25
        22         8        10        10
         6         5        10        10
        31        26        32        32
         4         2         3         3
         5         6         3         3
        11        13        14        14
        22        23        27        27
        28        24        27        27
        15        13         7         7
         2        12         1         1
        29        25        33        33
        23        10         9         9
        21        26        18        18
        16        14        15        15
        18        17        15        15
        29        32        21        21
        22        24        20        20
        28        33        25        25
        11         1        12        12
        31        30        17        17
         5         9        10        10
zone t="boundary 3 bc-3", solutiontime= 0.8000000E+02, strandid=1003, i=33, j=48, f=feblock
  0.375059129253E+01  0.249769657785E+01  0.500322230564E+01  0.403612260305E+01  0.287976809936E+01  0.124541967296E+01  0.190552274834E+01
  0.500000000000E+01  0.326671130751E+01  0.423253775190E+01  0.201271162023E+01 -0.547403479148E-02  0.958896010995E+00  0.500000000000E+01
  0.266968161398E+01  0.385584500913E+01  0.890374272111E+00  0.154654019987E+01  0.000000000000E+00  0.500000000000E+01  0.315261145343E+01
  0.218304202511E+01  0.398195313599E+01  0.000000000000E+00  0.697379950198E+00  0.963757268001E+00  0.125000000000E+01  0.000000000000E+00
  0.500000000000E+01  0.310330742607E+01  0.250000000000E+01  0.375000000000E+01  0.000000000000E+00
  0.250494207673E+01  0.250494207673E+01  0.250494207673E+01  0.250494207673E+01  0.250494207673E+01  0.250494207673E+01  0.250494207673E+01
  0.250494207673E+01  0.250494207673E+01  0.250494207673E+01  0.250494207673E+01  0.250494207673E+01  0.250494207673E+01  0.250494207673E+01
  0.250494207673E+01  0.250494207673E+01  0.250494207673E+01  0.250494207673E+01  0.250494207673E+01  0.250494207673E+01  0.250494207673E+01
  0.250494207673E+01  0.250494207673E+01  0.250494207673E+01  0.250494207673E+01  0.250494207673E+01  0.250494207673E+01  0.250494207673E+01
  0.250494207673E+01  0.250494207673E+01  0.250494207673E+01  0.250494207673E+01  0.250494207673E+01
  0.136199821606E-03  0.111001462289E-03  0.971034542287E-04  0.101756807774E+01  0.908095367282E+00  0.104727772947E-03  0.722629994500E+00
  0.125000000000E+01  0.188965717990E+01  0.191862731201E+01  0.176708306015E+01  0.815015939903E-04  0.969653435852E+00  0.250000000000E+01
  0.285339475342E+01  0.293325088171E+01  0.205656266805E+01  0.293157053464E+01  0.125000000000E+01  0.375000000000E+01  0.363766863445E+01
  0.396069464261E+01  0.407056397715E+01  0.250000000000E+01  0.307032015158E+01  0.397359831779E+01  0.500000000000E+01  0.375000000000E+01
  0.500000000000E+01  0.433260793845E+01  0.500000000000E+01  0.500000000000E+01  0.500000000000E+01
  0.896676647715E+00  0.910447762714E+00  0.781948673591E+00  0.945770010458E+00  0.960130118469E+00  0.922179283300E+00  0.963950510824E+00
  0.950682180066E+00  0.978092881367E+00  0.979670598022E+00  0.986799178209E+00  0.121959971282E+01  0.100543677986E+01  0.100849097578E+01
  0.992240053066E+00  0.997800264744E+00  0.100537161945E+01  0.998282948593E+00  0.105831356381E+01  0.100697675721E+01  0.998804016594E+00
  0.999311197480E+00  0.100000736891E+01  0.101662522459E+01  0.100449252127E+01  0.100204227079E+01  0.100246725623E+01  0.100488609622E+01
  0.100014590831E+01  0.998721196652E+00  0.100101036908E+01  0.100049286939E+01  0.100194476488E+01
  0.000000000000E+00  0.000000000000E+00  0.000000000000E+00  0.451193581537E+00  0.403035927933E+00  0.000000000000E+00  0.369780818113E+00
  0.504465693852E+00  0.572441533074E+00  0.570700493574E+00  0.555903904115E+00  0.000000000000E+00  0.475076213137E+00  0.529012494864E+00
  0.555007167064E+00  0.562172004652E+00  0.523997645665E+00  0.523269511284E+00  0.451834063784E+00  0.514483255629E+00  0.524697307288E+00
  0.506246209181E+00  0.509778396558E+00  0.478881792760E+00  0.499519883092E+00  0.498081336044E+00  0.493201216838E+00  0.493575543665E+00
  0.493226501237E+00  0.501441532671E+00  0.491213273087E+00  0.488103499089E+00  0.498235962654E+00
  0.000000000000E+00  0.000000000000E+00  0.000000000000E+00  0.000000000000E+00  0.000000000000E+00  0.000000000000E+00  0.000000000000E+00
  0.000000000000E+00  0.000000000000E+00  0.000000000000E+00  0.000000000000E+00  0.000000000000E+00  0.000000000000E+00  0.000000000000E+00
  0.000000000000E+00  0.000000000000E+00  0.000000000000E+00  0.000000000000E+00  0.000000000000E+00  0.000000000000E+00  0.000000000000E+00
  0.000000000000E+00  0.000000000000E+00  0.000000000000E+00  0.000000000000E+00  0.000000000000E+00  0.000000000000E+00  0.000000000000E+00
  0.000000000000E+00  0.000000000000E+00  0.000000000000E+00  0.000000000000E+00  0.000000000000E+00
  0.000000000000E+00  0.000000000000E+00  0.000000000000E+00 -0.279073742660E-01  0.124067925048E-01  0.000000000000E+00  0.162362030273E-01
 -0.114474117292E+00  0.481999121265E-03 -0.460951522425E-01  0.299463018056E-01  0.000000000000E+00  0.536074015633E-01 -0.502845414212E-01
  0.507334692010E-02 -0.105803092258E-01  0.439389134161E-01  0.105965538226E-01  0.388446353211E-01 -0.221863828514E-02 -0.367150197163E-02
 -0.404342818802E-03 -0.149356953976E-02  0.342255542372E-02  0.804275292552E-02  0.207982667820E-02  0.580599351868E-03  0.244077528796E-03
  0.506601358532E-02 -0.210226268884E-02 -0.607639776878E-03 -0.695779901365E-03  0.114480698753E-02
  0.667656725716E+00  0.677910564236E+00  0.582231390121E+00  0.670520813723E+00  0.688130583527E+00  0.686645740558E+00  0.690430273153E+00
  0.670645806987E+00  0.691903431369E+00  0.692624417861E+00  0.700947330389E+00  0.908102104611E+00  0.717683210288E+00  0.721491975696E+00
  0.706702650868E+00  0.711393847397E+00  0.721305341202E+00  0.713317610517E+00  0.774899694272E+00  0.721207794711E+00  0.713532245990E+00
  0.713575103784E+00  0.714554239549E+00  0.730580348736E+00  0.718615628762E+00  0.716241099552E+00  0.716741918518E+00  0.719224736307E+00
  0.714565182010E+00  0.713128385901E+00  0.715136919302E+00  0.714653006780E+00  0.716319887247E+00
  0.000000000000E+00  0.000000000000E+00  0.000000000000E+00  0.453747965004E+00  0.402545554949E+00  0.000000000000E+00  0.369629009274E+00
  0.520525439120E+00  0.575220796476E+00  0.575502707462E+00  0.558260160846E+00  0.000000000000E+00  0.478252986740E+00  0.530976527636E+00
  0.555830960827E+00  0.562793215576E+00  0.524675221136E+00  0.523282002554E+00  0.447917906438E+00  0.513796075076E+00  0.524673086563E+00
  0.506323910769E+00  0.509686667154E+00  0.477443347459E+00  0.499194823080E+00  0.497912969479E+00  0.492962766385E+00  0.493078173574E+00
  0.493192028562E+00  0.501531682022E+00  0.491169166985E+00  0.488098789551E+00  0.498012892840E+00
  0.104242640687E+01  0.104242640687E+01  0.104242640687E+01  0.992555408642E+00  0.100338776839E+01  0.104242640687E+01  0.100275104537E+01
  0.987610948715E+00  0.990360754454E+00  0.989796148790E+00  0.994453870874E+00  0.104242640687E+01  0.999323393102E+00  0.100158433762E+01
  0.997121319743E+00  0.998147045603E+00  0.100443205094E+01  0.100036232827E+01  0.102508331092E+01  0.100269535058E+01  0.100014129678E+01
  0.999693736862E+00  0.100036856374E+01  0.100608608118E+01  0.100156234015E+01  0.100069385155E+01  0.100096903883E+01  0.100201867118E+01
  0.100024531071E+01  0.999658106395E+00  0.100018113493E+01  0.100002132959E+01  0.100090132440E+01
        15         9        16        16
        15        18        11        11
        22        15        21        21
        11         5         9         9
         5         7         2         2
        11         9        15        15
        16        21        15        15
        16        10        14        14
        18        17        11        11
        17        25        24        24
        22        18        15        15
        22        30        31        31
        30        21        23        23
        16        20        23        23
        22        27        26        26
        10         9         4         4
         7        11        13        13
        25        18        26        26
        11         7         5         5
         5         1         4         4
        17        19        13        13
        23        32        30        30
        23        20        29        29
         4         9         5         5
         4         8        10        10
        26        18        22        22
        26        28        25        25
        13        11        17        17
        13         6         7         7
        31        30        32        32
         2         1         5         5
         2         7         6         6
        14        10         8         8
        24        19        17        17
        24        25        28        28
         9        10        16        16
         3         4         1         1
        33        26        27        27
        12        13        19        19
        21        30        22        22
        16        14        20        20
        16        23        21        21
        22        31        27        27
        18        25        17        17
        26        33        28        28
         4         3         8         8
        23        29        32        32
        13        12         6         6
zone t="boundary 4 bc-4", solutiontime= 0.8000000E+02, strandid=1004, i=32, j=46, f=feblock
  0.125000000000E+01  0.219251206392E+01  0.103724302461E+01  0.500000000000E+01  0.250000000000E+01  0.375000000000E+01  0.404200324774E+01
  0.500000000000E+01  0.000000000000E+00  0.310152362409E+01  0.202479342020E+01  0.324151231464E+01  0.922061490191E+00  0.000000000000E+00
  0.299062775774E+01  0.394624082883E+01  0.500000000000E+01  0.409252726285E+01  0.500000000000E+01  0.429310310915E+01  0.175434191980E+01
  0.284428995242E+01  0.000000000000E+00  0.000000000000E+00  0.715990576545E+00  0.930412228790E+00  0.125000000000E+01  0.187029682677E+01
  0.500000000000E+01  0.375000000000E+01  0.250000000000E+01  0.000000000000E+00
  0.250494207673E+01  0.157686156160E+01  0.146289271009E+01  0.250494207673E+01  0.250494207673E+01  0.250494207673E+01  0.155830813274E+01
  0.125000000000E+01  0.250494207673E+01  0.177790177481E+01  0.477386199275E+00  0.742988685424E+00  0.308372018325E+00  0.125000000000E+01
 -0.487811078581E+00 -0.144524380962E+01 -0.125000000000E+01 -0.345533899378E+00  0.000000000000E+00  0.627766083140E+00 -0.739814786992E+00
 -0.158811787973E+01  0.000000000000E+00 -0.125000000000E+01 -0.600232012419E+00 -0.154800130438E+01 -0.249658897678E+01 -0.178862290564E+01
 -0.249658897678E+01 -0.249658897678E+01 -0.249658897678E+01 -0.249658897678E+01
  0.500000000000E+01  0.500000000000E+01  0.500000000000E+01  0.500000000000E+01  0.500000000000E+01  0.500000000000E+01  0.500000000000E+01
  0.500000000000E+01  0.500000000000E+01  0.500000000000E+01  0.500000000000E+01  0.500000000000E+01  0.500000000000E+01  0.500000000000E+01
  0.500000000000E+01  0.500000000000E+01  0.500000000000E+01  0.500000000000E+01  0.500000000000E+01  0.500000000000E+01  0.500000000000E+01
  0.500000000000E+01  0.500000000000E+01  0.500000000000E+01  0.500000000000E+01  0.500000000000E+01  0.500000000000E+01  0.500000000000E+01
  0.500000000000E+01  0.500000000000E+01  0.500000000000E+01  0.500000000000E+01
  0.100246725623E+01  0.100134430485E+01  0.100190794348E+01  0.100014590831E+01  0.100101036908E+01  0.100049286939E+01  0.999775592814E+00
  0.100034297687E+01  0.100194476488E+01  0.100086117697E+01  0.100110853505E+01  0.100019876770E+01  0.100152581723E+01  0.100190260603E+01
  0.100054385457E+01  0.998652399368E+00  0.100067113348E+01  0.999536491673E+00  0.100054145076E+01  0.999923235389E+00  0.100145779195E+01
  0.100044294211E+01  0.100077796232E+01  0.100130067701E+01  0.100105884066E+01  0.100174639372E+01  0.100234892543E+01  0.100133132836E+01
  0.999828414411E+00  0.100019291592E+01  0.100028687164E+01  0.100184292224E+01
  0.493201216838E+00  0.493601216780E+00  0.494657951567E+00  0.493226501237E+00  0.491213273087E+00  0.488103499089E+00  0.488185416948E+00
  0.494186665365E+00  0.498235962654E+00  0.490793318589E+00  0.492762895823E+00  0.491176776195E+00  0.497637811561E+00  0.498753316123E+00
  0.492051496949E+00  0.486062293860E+00  0.492255088291E+00  0.489681611912E+00  0.494622556995E+00  0.490040124589E+00  0.494628967870E+00
  0.492616664352E+00  0.499569337914E+00  0.498567815570E+00  0.498183510464E+00  0.496570938692E+00  0.494536383408E+00  0.494839500496E+00
  0.491695277302E+00  0.489493219340E+00  0.494635424879E+00  0.497856403321E+00
  0.000000000000E+00 -0.121469729871E-03 -0.110879885028E-02  0.000000000000E+00  0.000000000000E+00  0.000000000000E+00  0.121295027679E-03
  0.633473341475E-03  0.000000000000E+00  0.102566187417E-03 -0.874325661734E-03 -0.898643653970E-03 -0.157079883870E-02  0.695900269076E-04
 -0.888524224736E-03 -0.918890256859E-03 -0.139167968452E-02 -0.210154216018E-02 -0.141209663259E-02 -0.122049451992E-02 -0.534198553284E-03
 -0.644839820659E-03 -0.176723380946E-03  0.608283571906E-03 -0.247273369726E-04  0.142363451754E-02  0.000000000000E+00  0.724012446345E-03
  0.000000000000E+00  0.000000000000E+00  0.000000000000E+00  0.000000000000E+00