# vtk DataFile Version 2.0
FUN3D:global_image_vtk
ASCII
DATASET UNSTRUCTURED_GRID
POINTS 213 double
   -0.5474034791479813E-02    0.2504942076728992E+01    0.8150159399027681E-04
    0.1245419672959591E+01    0.2504942076728992E+01    0.1047277729471704E-03
    0.2497696577848839E+01    0.2504942076728992E+01    0.1110014622885641E-03
    0.3750591292531816E+01    0.2504942076728992E+01    0.1361998216059221E-03
    0.5003222305639440E+01    0.2504942076728992E+01    0.9710345422873593E-04
    0.5004677133222702E+01    0.1281292234626102E+01    0.1639225351491613E-03
    0.5004773639246594E+01    0.2775173908448856E-01    0.1910821770931608E-03
    0.5003582089737773E+01   -0.1225853078888782E+01    0.1617189504222013E-03
    0.5001953411348048E+01   -0.2496588976783356E+01    0.1090487764229120E-03
    0.3750349101294953E+01   -0.2496588976783356E+01    0.1460008005054494E-03
    0.2498611702424044E+01   -0.2496588976783356E+01    0.1009821411355215E-03
    0.1247175496632721E+01   -0.2496588976783356E+01    0.1112724912602214E-03
   -0.3383749369537953E-02   -0.2496588976783356E+01    0.8138799078189275E-04
   -0.4257368130220665E-02   -0.1225733816484489E+01    0.3495143506717268E-04
   -0.5250758842340434E-02    0.2619544496978931E-01    0.1049334725945922E-03
   -0.5676037539326676E-02    0.1278221945526992E+01    0.8256165600122597E-04
    0.9003215589602365E+00    0.1608979751742938E+01    0.8772925883107237E-04
    0.3983172550220766E+01   -0.1561211228563867E+01    0.1764035284144422E-03
    0.4035602434919056E+01    0.1486760979478153E+01    0.1722531803772464E-03
    0.1036614150179919E+01   -0.1455625621879872E+01    0.1056282748720346E-03
    0.1094353548258011E+01   -0.2964613435486003E+00    0.1264352964523109E-03
    0.7298406890792656E+00    0.6874692508675623E+00    0.1049285511396338E-03
    0.1617019060610020E+01    0.8553219512469192E+00    0.1531967691650307E-03
    0.2143200455099061E+01   -0.1627127781400796E+01    0.1606680274588256E-03
    0.4088841364403756E+01   -0.4351044105779334E+00    0.2721382244297130E-03
    0.2977917458254878E+01   -0.8334986102062707E+00    0.2247618513699504E-03
    0.3044093457651864E+01   -0.1814360830151587E+01    0.1623026668864034E-03
    0.3427866976848817E+01    0.3813906796016652E+00    0.2942746620253757E-03
    0.4313226140670545E+01    0.5489141099514474E+00    0.2315169160803521E-03
    0.1823033630301312E+01    0.1771266266707696E+01    0.1839668676665383E-03
    0.2806311221746753E+01    0.1358629805466062E+01    0.1953827602410102E-03
    0.1891861776913194E+01   -0.8481301166731644E+00    0.1679010941653158E-03
    0.2268770140783121E+01    0.7723713258746442E-01    0.2074544044361200E-03
    0.5000000000000000E+01    0.2504942076728992E+01    0.1250000000000000E+01
    0.5000000000000000E+01    0.2504942076728992E+01    0.2500000000000000E+01
    0.5000000000000000E+01    0.2504942076728992E+01    0.3750000000000000E+01
    0.5000000000000000E+01    0.2504942076728992E+01    0.5000000000000000E+01
    0.3750000000000000E+01    0.2504942076728992E+01    0.5000000000000000E+01
    0.2500000000000000E+01    0.2504942076728992E+01    0.5000000000000000E+01
    0.1250000000000000E+01    0.2504942076728992E+01    0.5000000000000000E+01
    0.0000000000000000E+00    0.2504942076728992E+01    0.5000000000000000E+01
    0.0000000000000000E+00    0.2504942076728992E+01    0.3750000000000000E+01
    0.0000000000000000E+00    0.2504942076728992E+01    0.2500000000000000E+01
    0.0000000000000000E+00    0.2504942076728992E+01    0.1250000000000000E+01
    0.9588960109950324E+00    0.2504942076728992E+01    0.9696534358518428E+00
    0.3981953135987070E+01    0.2504942076728992E+01    0.4070563977153090E+01
    0.4036122603048257E+01    0.2504942076728992E+01    0.1017568077737450E+01
    0.9637572680007634E+00    0.2504942076728992E+01    0.3973598317790697E+01
    0.1546540199868994E+01    0.2504942076728992E+01    0.2931570534639772E+01
    0.6973799501976604E+00    0.2504942076728992E+01    0.3070320151581353E+01
    0.8903742721114463E+00    0.2504942076728992E+01    0.2056562668050395E+01
    0.2183042025106090E+01    0.2504942076728992E+01    0.3960694642612455E+01
    0.3855845009130144E+01    0.2504942076728992E+01    0.2933250881705245E+01
    0.3152611453431021E+01    0.2504942076728992E+01    0.3637668634452495E+01
    0.3103307426069629E+01    0.2504942076728992E+01    0.4332607938454372E+01
    0.3266711307513308E+01    0.2504942076728992E+01    0.1889657179902316E+01
    0.4232537751899896E+01    0.2504942076728992E+01    0.1918627312011273E+01
    0.1905522748341233E+01    0.2504942076728992E+01    0.7226299945004641E+00
    0.2879768099364311E+01    0.2504942076728992E+01    0.9080953672824156E+00
    0.2012711620229818E+01    0.2504942076728992E+01    0.1767083060146361E+01
    0.2669681613978136E+01    0.2504942076728992E+01    0.2853394753424857E+01
    0.5000000000000000E+01    0.1250000000000000E+01    0.5000000000000000E+01
    0.5000000000000000E+01    0.0000000000000000E+00    0.5000000000000000E+01
    0.5000000000000000E+01   -0.1250000000000000E+01    0.5000000000000000E+01
    0.5000000000000000E+01   -0.2496588976783356E+01    0.5000000000000000E+01
    0.5000000000000000E+01   -0.2496588976783356E+01    0.3750000000000000E+01
    0.5000000000000000E+01   -0.2496588976783356E+01    0.2500000000000000E+01
    0.5000000000000000E+01   -0.2496588976783356E+01    0.1250000000000000E+01
    0.5000000000000000E+01    0.1578994732800803E+01    0.9058375365086910E+00
    0.5000000000000000E+01   -0.1583989954232354E+01    0.3982050490726493E+01
    0.5000000000000000E+01    0.1453322699199022E+01    0.4033849428301197E+01
    0.5000000000000000E+01   -0.1479596339503735E+01    0.1040505887381675E+01
    0.5000000000000000E+01   -0.3227322616384110E+00    0.1099454400140349E+01
    0.5000000000000000E+01    0.6593508822075582E+00    0.7354504170366591E+00
    0.5000000000000000E+01    0.8256214013940779E+00    0.1622302608453282E+01
    0.5000000000000000E+01   -0.1650070333782557E+01    0.2145871574390382E+01
    0.5000000000000000E+01   -0.4612828702537229E+00    0.4086422318222992E+01
    0.5000000000000000E+01   -0.8579242121530853E+00    0.2979540174134984E+01
    0.5000000000000000E+01   -0.1836846154397680E+01    0.3045064261640043E+01
    0.5000000000000000E+01    0.3508002863614053E+00    0.3428197553792836E+01
    0.5000000000000000E+01    0.5185680230613409E+00    0.4309693860063405E+01
    0.5000000000000000E+01    0.1738996113203182E+01    0.1827272193562204E+01
    0.5000000000000000E+01    0.1325493893339706E+01    0.2808563282768077E+01
    0.5000000000000000E+01   -0.8731419609589618E+00    0.1895995683864404E+01
    0.5000000000000000E+01    0.4906150219227333E-01    0.2273179336307740E+01
    0.0000000000000000E+00    0.1250000000000000E+01    0.5000000000000000E+01
    0.0000000000000000E+00    0.0000000000000000E+00    0.5000000000000000E+01
    0.0000000000000000E+00   -0.1250000000000000E+01    0.5000000000000000E+01
    0.0000000000000000E+00   -0.2496588976783356E+01    0.5000000000000000E+01
    0.1250000000000000E+01   -0.2496588976783356E+01    0.5000000000000000E+01
    0.2500000000000000E+01   -0.2496588976783356E+01    0.5000000000000000E+01
    0.3750000000000000E+01   -0.2496588976783356E+01    0.5000000000000000E+01
    0.4042003247744892E+01    0.1558308132739014E+01    0.5000000000000000E+01
    0.9304122287900499E+00   -0.1548001304379777E+01    0.5000000000000000E+01
    0.1037243024609388E+01    0.1462892710085612E+01    0.5000000000000000E+01
    0.3946240828834967E+01   -0.1445243809615570E+01    0.5000000000000000E+01
    0.4092527262848217E+01   -0.3455338993778935E+00    0.5000000000000000E+01
    0.4293103109154542E+01    0.6277660831404320E+00    0.5000000000000000E+01
    0.3241512314643519E+01    0.7429886854239611E+00    0.5000000000000000E+01
    0.2844289952419609E+01   -0.1588117879734118E+01    0.5000000000000000E+01
    0.7159905765450471E+00   -0.6002320124191652E+00    0.5000000000000000E+01
    0.1754341919796891E+01   -0.7398147869923652E+00    0.5000000000000000E+01
    0.1870296826774691E+01   -0.1788622905643739E+01    0.5000000000000000E+01
    0.9220614901912976E+00    0.3083720183248586E+00    0.5000000000000000E+01
    0.3101523624086016E+01    0.1777901774806180E+01    0.5000000000000000E+01
    0.2192512063922564E+01    0.1576861561598471E+01    0.5000000000000000E+01
    0.2024793420196460E+01    0.4773861992750707E+00    0.5000000000000000E+01
    0.2990627757741975E+01   -0.4878110785814084E+00    0.5000000000000000E+01
    0.0000000000000000E+00   -0.2496588976783356E+01    0.1250000000000000E+01
    0.0000000000000000E+00   -0.2496588976783356E+01    0.2500000000000000E+01
    0.0000000000000000E+00   -0.2496588976783356E+01    0.3750000000000000E+01
    0.0000000000000000E+00    0.1558308132739014E+01    0.4042003247744892E+01
    0.0000000000000000E+00   -0.1548001304379777E+01    0.9304122287900499E+00
    0.0000000000000000E+00    0.1462892710085612E+01    0.1037243024609388E+01
    0.0000000000000000E+00   -0.1445243809615570E+01    0.3946240828834967E+01
    0.0000000000000000E+00   -0.3455338993778935E+00    0.4092527262848217E+01
    0.0000000000000000E+00    0.6277660831404320E+00    0.4293103109154542E+01
    0.0000000000000000E+00    0.7429886854239611E+00    0.3241512314643519E+01
    0.0000000000000000E+00   -0.1588117879734118E+01    0.2844289952419609E+01
    0.0000000000000000E+00   -0.6002320124191652E+00    0.7159905765450471E+00
    0.0000000000000000E+00   -0.7398147869923652E+00    0.1754341919796891E+01
    0.0000000000000000E+00   -0.1788622905643739E+01    0.1870296826774691E+01
    0.0000000000000000E+00    0.3083720183248586E+00    0.9220614901912976E+00
    0.0000000000000000E+00    0.1777901774806180E+01    0.3101523624086016E+01
    0.0000000000000000E+00    0.1576861561598471E+01    0.2192512063922564E+01
[...]
POINT_DATA 213
SCALARS rho double 1
LOOKUP_TABLE default
   0.1219599712775380E+01
   0.9221792832464329E+00
   0.9104477627588473E+00
   0.8966766488033339E+00
   0.7819486758779663E+00
   0.7116569430090708E+00
   0.6990712248609819E+00
   0.7029549210062287E+00
   0.7687357437052266E+00
   0.8895233801382099E+00
   0.8987464873059818E+00
   0.9249601353739091E+00
   0.1300246681241431E+01
   0.1348040468256306E+01
   0.1456336943604963E+01
   0.1286719624588455E+01
   0.9619641460635321E+00
   0.9047655534588486E+00
   0.8972299304715791E+00
   0.9249192642832891E+00
   0.9126331840748270E+00
   0.9866005973521019E+00
   0.8974309510163269E+00
   0.8999717637116643E+00
   0.9067476760077841E+00
   0.9112479028808250E+00
   0.8943867770425856E+00
   0.9125850776798735E+00
   0.8902528927107409E+00
   0.9018653544800934E+00
   0.9063597682430021E+00
   0.8623950835213232E+00
   0.9078065484687550E+00
   0.9506821890588121E+00
   0.1008490974859469E+01
   0.1006976756969430E+01
   0.1000145909706496E+01
   0.1000492870158971E+01
   0.1001010368734909E+01
   0.1002467256276898E+01
   0.1001944764759082E+01
   0.1004886096189191E+01
   0.1016625224520001E+01
   0.1058313563734959E+01
   0.1005436779897563E+01
   0.1000007368874936E+01
   0.9457700233053303E+00
   0.1002042270784143E+01
   0.9982829486121177E+00
   0.1004492521231998E+01
   0.1005371619479113E+01
   0.9993111975039364E+00
   0.9978002644795325E+00
   0.9988040167300068E+00
   0.9987211961468846E+00
   0.9780928806637741E+00
   0.9796705991806300E+00
   0.9639505103721918E+00
   0.9601301212664399E+00
   0.9867991778362021E+00
   0.9922400531544092E+00
   0.1000342976440749E+01
   0.1000541448102890E+01
   0.1000671130992937E+01
   0.9998284124136282E+00
   0.1009782297035207E+01
   0.1007174224232522E+01
   0.9448363496089591E+00
   0.9034576571278670E+00
   0.1007039898380744E+01
   0.1004193124068631E+01
   0.8965165748563253E+00
   0.8926680816520103E+00
   0.8470449867214710E+00
   0.9708429035945901E+00
   0.1000202434278351E+01
   0.1006091578185126E+01
   0.1015639762641780E+01
   0.1012987270899693E+01
   0.1012861697576499E+01
   0.1005118612453816E+01
   0.9863622553693422E+00
   0.1006593487728009E+01
   0.9849764801257335E+00
   0.1008140582374746E+01
   0.1001902606058426E+01
   0.1000777962321905E+01
   0.1001300676888175E+01
   0.1001842922395455E+01
   0.1002348925425452E+01
   0.1000286872001089E+01
   0.1000192914790749E+01
   0.9997755928013901E+00
   0.1001746393808800E+01
   0.1001907943378921E+01
   0.9986523979057959E+00
   0.9995364894635449E+00
   0.9999232322530633E+00
   0.1000198766836350E+01
   0.1000442942047962E+01
   0.1001058840721330E+01
   0.1001457791794599E+01
   0.1001331328543997E+01
   0.1001525817328943E+01
   0.1000861177218798E+01
   0.1001344304656180E+01
   0.1001108535116551E+01
   0.1000543854354179E+01
   0.1060180597198514E+01
   0.1020434849092059E+01
   0.1005937363826679E+01
   0.1003463832542542E+01
   0.1142067367835510E+01
   0.1083370535074865E+01
   0.1004378514979200E+01
   0.1003909100872542E+01
   0.1003789599948861E+01
   0.1006675427171889E+01
   0.1012240628874361E+01
   0.1193114677695345E+01
   0.1028000766172046E+01
   0.1034785370763980E+01
   0.1169417028832616E+01
   0.1009874385081444E+01
   0.1023546147067517E+01
   0.1017121949716820E+01
   0.1007875010097577E+01
   0.1013904360032089E+01
   0.1000120423194294E+01
   0.9442368017725149E+00
   0.1003512212524378E+01
   0.9988676268574743E+00
   0.1006433375078478E+01
   0.1009136813968355E+01
   0.9979418435576021E+00
   0.9977846870336156E+00
   0.9961676261578487E+00
   0.9984778181678898E+00
   0.9810175535944921E+00
   0.9780877680242794E+00
   0.9479693370918846E+00
   0.9505424570846354E+00
   0.9877990100506797E+00
   0.9899199159939391E+00
   0.9925444403288667E+00
   0.9998150175724400E+00
   0.9986044261831210E+00
   0.9946495981863789E+00
   0.1006783292456908E+01
   0.1021195775160305E+01
   0.9979991553131075E+00
   0.1004785935074646E+01
   0.1001443252667723E+01
   0.1004870014573171E+01
   0.9952898800226887E+00
   0.9853956885644997E+00
   0.1000226007748340E+01
   0.9938930134048423E+00
   0.9819631291778038E+00
   0.9943515149806944E+00
   0.9968775175868990E+00
   0.9937161348607374E+00
   0.9987031097942013E+00
   0.1000033243947124E+01
   0.9996686274034202E+00
   0.9958480479017968E+00
   0.9933618088463912E+00
   0.1001379812997427E+01
   0.1018342563199754E+01
   0.1002761163471478E+01
   0.9806466782991805E+00
   0.1001874256911232E+01
   0.1008205815469849E+01
   0.9702346436710653E+00
   0.9431324185170575E+00
   0.9846786475998048E+00
   0.9843645637624752E+00
   0.9754697006943502E+00
   0.9908380456494142E+00
   0.9779133613732834E+00
   0.1033958394434397E+01
   0.1021656811782810E+01
   0.1000033006270322E+01
   0.9991734279842319E+00
   0.9919055448598654E+00
   0.9907248629637946E+00
   0.9574014731896521E+00
   0.9930506970124253E+00
   0.1006289132619448E+01
   0.1002044039631882E+01
   0.9896477970481796E+00
   0.9652799642865966E+00
   0.9203406685239890E+00
   0.9724368564136809E+00
   0.9781837180258193E+00
   0.9559726929138639E+00
   0.9617646128876052E+00
   0.9490309975146018E+00
   0.9366912451410876E+00
   0.9303105052319154E+00
   0.9992919147621795E+00
   0.9994619487487915E+00
   0.9988025065203826E+00
   0.1002017075039609E+01
   0.9391477799386060E+00
   0.9239055047795418E+00
   0.9359217906855064E+00
   0.9984137911169894E+00
   0.9983444567162691E+00
   0.1000450520150252E+01
   0.9793848606793740E+00
   0.9713545788622987E+00
   0.9447096773355319E+00
SCALARS u double 1
LOOKUP_TABLE default
   0.0000000000000000E+00
   0.0000000000000000E+00
   0.0000000000000000E+00
   0.0000000000000000E+00
   0.0000000000000000E+00
   0.0000000000000000E+00
   0.0000000000000000E+00
   0.0000000000000000E+00
   0.0000000000000000E+00
   0.0000000000000000E+00
   0.0000000000000000E+00
   0.0000000000000000E+00
   0.0000000000000000E+00
   0.0000000000000000E+00
   0.0000000000000000E+00
   0.0000000000000000E+00
   0.0000000000000000E+00
   0.0000000000000000E+00
   0.0000000000000000E+00
   0.0000000000000000E+00
   0.0000000000000000E+00
   0.0000000000000000E+00
   0.0000000000000000E+00
   0.0000000000000000E+00
   0.0000000000000000E+00
   0.0000000000000000E+00
   0.0000000000000000E+00
   0.0000000000000000E+00
   0.0000000000000000E+00
   0.0000000000000000E+00
   0.0000000000000000E+00
   0.0000000000000000E+00
   0.0000000000000000E+00
   0.5044656842914322E+00
   0.5290124958168747E+00
   0.5144832548006352E+00
   0.4932265037822853E+00
   0.4881035047626108E+00
   0.4912132742993597E+00
   0.4932012171222170E+00
   0.4982359621806548E+00
   0.4935755439073661E+00
   0.4788817927966669E+00
   0.4518340638419203E+00
   0.4750762132134674E+00
   0.5097783954971105E+00
   0.4511935820756078E+00
   0.4980813359417110E+00
   0.5232695112084530E+00
   0.4995198831851941E+00
   0.5239976456338566E+00
   0.5062462090732434E+00
   0.5621720042242460E+00
   0.5246973070220037E+00
   0.5014415324037025E+00
   0.5724415330215336E+00
   0.5707004927128583E+00
   0.3697808184080230E+00
   0.4030359296280178E+00
   0.5559039042156259E+00
   0.5550071668729993E+00
   0.4941866676095911E+00
   0.4946225574571754E+00
   0.4922550884947798E+00
   0.4916952775138848E+00
   0.5126203594010244E+00
   0.5320037653699076E+00
   0.5051851666549524E+00
   0.4700273993757393E+00
   0.5096958260888350E+00
   0.5089633474053522E+00
   0.4955096632251394E+00
   0.5091188932720346E+00
   0.4859970990710415E+00
   0.5290197191807939E+00
   0.5276939173990504E+00
   0.5095384238934167E+00
   0.5265023513850726E+00
   0.5255836660474176E+00
   0.5249264200582380E+00
   0.5039105648025549E+00
   0.5284460106866655E+00
   0.5353830962875414E+00
   0.5371546736096859E+00
   0.5324039247905947E+00
   0.4987533162501431E+00
   0.4995693379677100E+00
   0.4985678155382716E+00
   0.4978564035413207E+00
   0.4945363830174966E+00
   0.4946354239294676E+00
   0.4894932168605310E+00
   0.4881854217233729E+00
   0.4965709386736631E+00
   0.4946579517606925E+00
   0.4860622912941925E+00
   0.4896816111276285E+00
   0.4900401244277781E+00
   0.4911767747249148E+00
   0.4926166619995701E+00
   0.4981835104082515E+00
   0.4946289671394545E+00
   0.4948394998070194E+00
   0.4976378116152981E+00
   0.4907933210960572E+00
   0.4936012173971543E+00
   0.4927628952760377E+00
   0.4920514954782356E+00
   0.4513309610480419E+00
   0.4773809664256917E+00
   0.4929577625749271E+00
   0.4922016486992209E+00
   0.4645164899499472E+00
   0.4729120317399528E+00
   0.4915211079534205E+00
   0.4906742011328761E+00
   0.4940153740650165E+00
   0.4854929993707150E+00
   0.4731445586785247E+00
   0.4017686073462035E+00
   0.4925810904392433E+00
   0.4586089468649232E+00
   0.4595049849285135E+00
   0.4895104459626174E+00
   0.4701583359339418E+00
   0.4742234952820085E+00
   0.4816343310886073E+00
   0.4809631602096699E+00
   0.5081955807476790E+00
   0.4436620303029724E+00
   0.4960916964893915E+00
   0.5314783271107496E+00
   0.4949806858475317E+00
   0.5219301806321817E+00
   0.5081293813381618E+00
   0.5664001416366283E+00
   0.5269142159955915E+00
   0.5035387184260951E+00
   0.5834534696135856E+00
   0.5720240210608227E+00
   0.3408858517824646E+00
   0.3851957650474749E+00
   0.5717594618881344E+00
   0.5645095534776976E+00
   0.5689243461675947E+00
   0.5291696229661493E+00
   0.5449155525589554E+00
   0.5701879784714707E+00
   0.5404097124993222E+00
   0.5487779069403960E+00
   0.5790107864632238E+00
   0.4955235677680647E+00
   0.5064965454559328E+00
   0.4994484961968324E+00
   0.5533092492267551E+00
   0.4597902247356256E+00
   0.4983751320307354E+00
   0.5489762749525789E+00
   0.5894376613836227E+00
   0.5821700614578025E+00
   0.5457059726243939E+00
   0.5785146347226635E+00
   0.5122043811004580E+00
   0.5055088150898291E+00
   0.5048980662290764E+00
   0.5645297345055131E+00
   0.5552265304008888E+00
   0.4977583751722068E+00
   0.5488208984509920E+00
   0.5486892182897388E+00
   0.5643387255076662E+00
   0.4955121583160013E+00
   0.4958798402836443E+00
   0.3908414486607064E+00
   0.3725909794037227E+00
   0.5584900317152545E+00
   0.5739392598552056E+00
   0.4177438665251683E+00
   0.5813083141081327E+00
   0.4186000227009041E+00
   0.5391903625176581E+00
   0.4993239569327145E+00
   0.5113858554900386E+00
   0.5070194974910385E+00
   0.5732639582271464E+00
   0.5857708786621119E+00
   0.5448205546758477E+00
   0.5657062666583679E+00
   0.5320308375223683E+00
   0.5310303225492043E+00
   0.5561915502277012E+00
   0.5552162347240193E+00
   0.4401002519736220E+00
   0.5282987916981408E+00
   0.5807279544038778E+00
   0.3397137592790615E+00
   0.4812260867380787E+00
   0.5510167754404159E+00
   0.4924432217409261E+00
   0.3108743809092381E+00
   0.5051822042547978E+00
   0.5043571351149378E+00
   0.5129608672961693E+00
   0.5385848652915187E+00
   0.3519686224908433E+00
   0.3560462332127906E+00
   0.3308149832798972E+00
   0.5084554555464518E+00
   0.5125571359538202E+00
   0.5314307657065076E+00
   0.5857978419879107E+00
   0.4640824798714340E+00
   0.3627235466718849E+00
SCALARS v double 1
LOOKUP_TABLE default
   0.0000000000000000E+00
   0.0000000000000000E+00
   0.0000000000000000E+00
   0.0000000000000000E+00
   0.0000000000000000E+00
   0.0000000000000000E+00
   0.0000000000000000E+00
   0.0000000000000000E+00
   0.0000000000000000E+00
   0.0000000000000000E+00
   0.0000000000000000E+00
   0.0000000000000000E+00
   0.0000000000000000E+00
   0.0000000000000000E+00
   0.0000000000000000E+00
   0.0000000000000000E+00
   0.0000000000000000E+00
   0.0000000000000000E+00
   0.0000000000000000E+00
   0.0000000000000000E+00
   0.0000000000000000E+00
   0.0000000000000000E+00
   0.0000000000000000E+00
   0.0000000000000000E+00
   0.0000000000000000E+00
   0.0000000000000000E+00
   0.0000000000000000E+00
   0.0000000000000000E+00
   0.0000000000000000E+00
   0.0000000000000000E+00
   0.0000000000000000E+00
   0.0000000000000000E+00
   0.0000000000000000E+00
   0.0000000000000000E+00
   0.0000000000000000E+00
   0.0000000000000000E+00
   0.0000000000000000E+00
   0.0000000000000000E+00
   0.0000000000000000E+00
   0.0000000000000000E+00
   0.0000000000000000E+00
   0.0000000000000000E+00
   0.0000000000000000E+00
   0.0000000000000000E+00
   0.0000000000000000E+00
   0.0000000000000000E+00
   0.0000000000000000E+00
   0.0000000000000000E+00
   0.0000000000000000E+00
   0.0000000000000000E+00
   0.0000000000000000E+00
   0.0000000000000000E+00
   0.0000000000000000E+00
   0.0000000000000000E+00
   0.0000000000000000E+00
   0.0000000000000000E+00
   0.0000000000000000E+00
   0.0000000000000000E+00
   0.0000000000000000E+00
   0.0000000000000000E+00
   0.0000000000000000E+00
   0.6334716185289558E-03
  -0.1412093308732266E-02
  -0.1391677299610169E-02
   0.0000000000000000E+00
   0.0000000000000000E+00
   0.0000000000000000E+00
   0.0000000000000000E+00
  -0.1867970879151058E-01
   0.2777593729892060E-03
   0.2206623137517748E-02
   0.1490282628208241E-01
  -0.5368506328476548E-02
  -0.6641909515069134E-02
  -0.1142203788202342E-01
   0.4788845473105307E-02
   0.5372029964055477E-03
   0.3195643251772404E-02
   0.1530305550026690E-02
   0.3473822918424512E-02
   0.1704919885196794E-02
  -0.6356059473203401E-02
   0.7681895214481959E-03
   0.4869172459684171E-02
   0.6122152045042920E-03
   0.6958996675876672E-04
  -0.1767234083408794E-03
   0.6082836228229247E-03
   0.0000000000000000E+00
   0.0000000000000000E+00
   0.0000000000000000E+00
   0.0000000000000000E+00
   0.1212946907656789E-03
   0.1423634787376134E-02
  -0.1108798574379521E-02
  -0.9188889960549619E-03
  -0.2101538149427530E-02
  -0.1220492674325469E-02
  -0.8986417284410908E-03
  -0.6448390639757797E-03
  -0.2472737112487536E-04
  -0.5341978865408358E-03
   0.7240126914454339E-03
  -0.1570798786976440E-02
   0.1025678669382214E-03
  -0.1214692240906804E-03
  -0.8743254296226803E-03
  -0.8885231864586001E-03
   0.0000000000000000E+00
   0.0000000000000000E+00
   0.0000000000000000E+00
  -0.1091309762297540E-02
  -0.8502788303334037E-02
   0.1568983469902222E-01
   0.2148696224818085E-03
  -0.1053392988137121E-02
  -0.1673614048810592E-02
  -0.5281082796867344E-02
  -0.1235962665198860E-02
  -0.3701167520895047E-02
  -0.3032629700354335E-02
   0.2127159625690316E-02
   0.2880597782148477E-01
  -0.1724503509223972E-03
  -0.4260470698276115E-02
   0.2498502734005752E-02
   0.9550983168186927E-03
   0.0000000000000000E+00
   0.0000000000000000E+00
   0.0000000000000000E+00
   0.0000000000000000E+00
   0.0000000000000000E+00
   0.0000000000000000E+00
   0.0000000000000000E+00
   0.0000000000000000E+00
   0.0000000000000000E+00
   0.0000000000000000E+00
   0.0000000000000000E+00
   0.0000000000000000E+00
   0.0000000000000000E+00
   0.0000000000000000E+00
   0.0000000000000000E+00
   0.0000000000000000E+00
   0.0000000000000000E+00
   0.4670198579340160E-02
   0.2763280359299158E-02
   0.6893735649432313E-02
   0.5630437159769400E-02
   0.8687042145478392E-02
   0.1244112631255198E-01
   0.4866757027693166E-03
   0.4364177757064922E-02
   0.2406601731088373E-02
   0.2332206569988881E-02
   0.3176364833041789E-02
  -0.1059582454167641E-01
  -0.4893812784011147E-03
   0.6038346175125701E-02
   0.2600391766225282E-02
   0.2269794305832544E-02
   0.3837923997047032E-02
  -0.2020247984746576E-02
   0.9170004048376252E-03
   0.2371044201454495E-02
   0.1154923436363723E-02
   0.2686139092924713E-02
   0.1739855668723896E-02
   0.1798801231848193E-02
   0.8007128164231063E-02
  -0.3375968881677399E-02
   0.5470403694412368E-02
   0.6506716801351576E-04
  -0.3120594563141894E-04
  -0.1328425292490787E-01
  -0.3290595627706288E-02
  -0.3547667818181683E-02
   0.3675145331120231E-02
  -0.3988158767440798E-02
   0.8943782500522609E-03
  -0.2587597981119069E-01
  -0.3070935045197847E-02
   0.4167740240362034E-02
   0.7177119099901149E-03
   0.1825203166612754E-02
   0.4437753887974190E-02
   0.2300338507522862E-02
   0.3389545465400876E-02
   0.5068279804805833E-02
   0.1856653000861045E-02
   0.5820237196377576E-03
  -0.3347034246039996E-03
  -0.4621566217289997E-02
  -0.5498319665831296E-02
   0.4519093112320879E-03
   0.9429376603761397E-03
  -0.7332972401640512E-03
  -0.3869847769233320E-02
  -0.1215941206517478E-02
  -0.3656395260863489E-02
  -0.6898469040072690E-02
  -0.1708645493021395E-02
   0.5357636884605897E-03
  -0.3546499780227277E-03
   0.1111770736875194E-02
  -0.1832540521970382E-02
   0.6956213824487001E-02
  -0.9774593480516541E-02
  -0.1544620683307376E-04
  -0.4080105744647316E-03
   0.2409198548541969E-02
   0.1123360581814675E-02
   0.1298599391101546E-02
  -0.3828977096544666E-02
SCALARS w double 1
LOOKUP_TABLE default
   0.0000000000000000E+00
   0.0000000000000000E+00
   0.0000000000000000E+00
   0.0000000000000000E+00
   0.0000000000000000E+00
   0.0000000000000000E+00
   0.0000000000000000E+00
   0.0000000000000000E+00
   0.0000000000000000E+00
   0.0000000000000000E+00
   0.0000000000000000E+00
   0.0000000000000000E+00
   0.0000000000000000E+00
   0.0000000000000000E+00
   0.0000000000000000E+00
   0.0000000000000000E+00
   0.0000000000000000E+00
   0.0000000000000000E+00
   0.0000000000000000E+00
   0.0000000000000000E+00
   0.0000000000000000E+00
   0.0000000000000000E+00
   0.0000000000000000E+00
   0.0000000000000000E+00
   0.0000000000000000E+00
   0.0000000000000000E+00
   0.0000000000000000E+00
   0.0000000000000000E+00
   0.0000000000000000E+00
   0.0000000000000000E+00
   0.0000000000000000E+00
   0.0000000000000000E+00
   0.0000000000000000E+00
  -0.1144741141073328E+00
  -0.5028453963611926E-01
  -0.2218638562379854E-02
   0.5066013312002954E-02
  -0.6957784648236067E-03
  -0.6076400189000638E-03
   0.5805990672759419E-03
   0.1144807155256395E-02
   0.2440774474381820E-03
   0.3422555393481989E-02
   0.3884463529622869E-01
   0.5360740156440452E-01
  -0.1493569175730563E-02
  -0.2790737509812652E-01
   0.2079826694663725E-02
   0.1059655381362462E-01
   0.8042752906613273E-02
   0.4393891341355158E-01
  -0.4043428817234283E-03
  -0.1058030884075368E-01
  -0.3671501805953749E-02
  -0.2102262348157493E-02
   0.4819989765484107E-03
  -0.4609515098379082E-01
   0.1623620298088863E-01
   0.1240679183739981E-01
   0.2994630151123066E-01
   0.5073346899984274E-02
   0.4321080534463685E-02
   0.4383200859555240E-02
   0.4018275401359872E-02
   0.5466033538715222E-02
  -0.1704826070257539E-03
  -0.4834020111781447E-01
  -0.1122167683901128E+00
  -0.1279823935186055E+00
   0.2784425032217667E-02
   0.1930922609108855E-02
  -0.1150880131383039E+00
  -0.1133078922324971E+00
  -0.1132666701300260E+00
  -0.1072902273801658E+00
  -0.7748703155078118E-01
   0.3027735328496638E-02
  -0.2451873516693966E-01
  -0.2041359713119032E-01
  -0.9927799571994711E-02
   0.5241308787051579E-02
  -0.9129647479111745E-01
  -0.3406072897114124E-01
  -0.9180577664559908E-01
  -0.6776876358948589E-01
   0.1807789664856591E-02
   0.1559385140788779E-02
   0.1426787470373418E-02
   0.2118644649859521E-02
   0.1358293910100101E-02
  -0.1241619150699162E-02
  -0.1475157989906242E-02
   0.1114706608730559E-02
   0.2218158131257327E-02
   0.1202566772599409E-02
  -0.7056115513325607E-04
   0.1919557934461995E-03
   0.8213731582897542E-03
  -0.1576104614234354E-02
  -0.1943015957225773E-02
   0.1965356357078980E-02
  -0.4390797411196569E-04
  -0.4390424423952403E-03
   0.2228746050344234E-02
  -0.1071758197807300E-02
  -0.2024436464727872E-03
  -0.4923297587902371E-03
  -0.1804014670580971E-02
   0.6879535989669522E-01
   0.2330704203242212E-02
  -0.1105207257248024E-02
  -0.7920413965371335E-03
   0.1156184558751924E+00
   0.1039170667831322E+00
  -0.1771016926783322E-02
  -0.4421114208477549E-02
  -0.7493444639141784E-03
  -0.7086035320222501E-02
  -0.2645570913319335E-02
   0.1269923183578208E+00
   0.6360345841144753E-01
   0.2237140116844500E-01
   0.1353417673932631E+00