# vtk DataFile Version 2.0
FUN3D:global_image_vtk
ASCII
DATASET UNSTRUCTURED_GRID
POINTS 213 double
   -0.5474547894569622E-02    0.2504942051092539E+01    0.8111779492247301E-04
    0.1245419838515235E+01    0.2504942051092539E+01    0.1041090383692244E-03
    0.2497696236677875E+01    0.2504942051092539E+01    0.1105497388997893E-03
    0.3750591598294108E+01    0.2504942051092539E+01    0.1365839649421340E-03
    0.5003222157533224E+01    0.2504942051092539E+01    0.9709660053677433E-04
    0.5004677104283252E+01    0.1281291554463587E+01    0.1643821865597694E-03
    0.5004773634302313E+01    0.2775169251086797E-01    0.1905342293861137E-03
    0.5003581708470984E+01   -0.1225852618779793E+01    0.1615543094276503E-03
    0.5001952978455432E+01   -0.2496588986442259E+01    0.1089518119557495E-03
    0.3750348798690704E+01   -0.2496588986442259E+01    0.1468415119082681E-03
    0.2498611608554525E+01   -0.2496588986442259E+01    0.1009399376806497E-03
    0.1247175433684251E+01   -0.2496588986442259E+01    0.1111888851508213E-03
   -0.3383068008610149E-02   -0.2496588986442259E+01    0.8150520461993191E-04
   -0.4256955851068867E-02   -0.1225733921940076E+01    0.3469021480935067E-04
   -0.5250811048115651E-02    0.2619538073149389E-01    0.1042835093026553E-03
   -0.5675964951546726E-02    0.1278221764905737E+01    0.8294295287214220E-04
    0.9003216169816050E+00    0.1608980057928585E+01    0.8723014083989018E-04
    0.3983172877234496E+01   -0.1561211350986338E+01    0.1760002127700827E-03
    0.4035602132520589E+01    0.1486760691219746E+01    0.1720286243631936E-03
    0.1036614197571059E+01   -0.1455625663561180E+01    0.1053351185766911E-03
    0.1094354118517697E+01   -0.2964612593014415E+00    0.1270024378743543E-03
    0.7298404519547405E+00    0.6874694715327181E+00    0.1051228423596988E-03
    0.1617018826115776E+01    0.8553210854460175E+00    0.1533030449187271E-03
    0.2143200501888038E+01   -0.1627128173870766E+01    0.1610504152783291E-03
    0.4088840817860322E+01   -0.4351038589522145E+00    0.2720164200689173E-03
    0.2977916803796307E+01   -0.8334982172549265E+00    0.2250176830131052E-03
    0.3044093701898847E+01   -0.1814360775861436E+01    0.1620229234402036E-03
    0.3427867342648891E+01    0.3813906283367566E+00    0.2939791736545557E-03
    0.4313226131547213E+01    0.5489134504401266E+00    0.2317707379503809E-03
    0.1823033136120683E+01    0.1771265626696227E+01    0.1837731895496518E-03
    0.2806312048597993E+01    0.1358629701935093E+01    0.1950949191722219E-03
    0.1891861460093988E+01   -0.8481309711553094E+00    0.1671919978819843E-03
    0.2268769423809795E+01    0.7723737869388025E-01    0.2072802753067463E-03
    0.5000000000000000E+01    0.2504942051092539E+01    0.1250000000000000E+01
    0.5000000000000000E+01    0.2504942051092539E+01    0.2500000000000000E+01
    0.5000000000000000E+01    0.2504942051092539E+01    0.3750000000000000E+01
    0.5000000000000000E+01    0.2504942051092539E+01    0.5000000000000000E+01
    0.3750000000000000E+01    0.2504942051092539E+01    0.5000000000000000E+01
    0.2500000000000000E+01    0.2504942051092539E+01    0.5000000000000000E+01
    0.1250000000000000E+01    0.2504942051092539E+01    0.5000000000000000E+01
    0.0000000000000000E+00    0.2504942051092539E+01    0.5000000000000000E+01
    0.0000000000000000E+00    0.2504942051092539E+01    0.3750000000000000E+01
    0.0000000000000000E+00    0.2504942051092539E+01    0.2500000000000000E+01
    0.0000000000000000E+00    0.2504942051092539E+01    0.1250000000000000E+01
    0.9588960571231865E+00    0.2504942051092539E+01    0.9696529778455177E+00
    0.3981953123960229E+01    0.2504942051092539E+01    0.4070563957054498E+01
    0.4036122654246864E+01    0.2504942051092539E+01    0.1017568184005398E+01
    0.9637572721596145E+00    0.2504942051092539E+01    0.3973598277573462E+01
    0.1546540204397300E+01    0.2504942051092539E+01    0.2931570394191802E+01
    0.6973799701054135E+00    0.2504942051092539E+01    0.3070320060098056E+01
    0.8903743084219861E+00    0.2504942051092539E+01    0.2056562452539602E+01
    0.2183042014959270E+01    0.2504942051092539E+01    0.3960694590946582E+01
    0.3855844981955202E+01    0.2504942051092539E+01    0.2933250842619056E+01
    0.3152611431327897E+01    0.2504942051092539E+01    0.3637668584319778E+01
    0.3103307414861234E+01    0.2504942051092539E+01    0.4332607912231963E+01
    0.3266711257945839E+01    0.2504942051092539E+01    0.1889657095637415E+01
    0.4232537722628977E+01    0.2504942051092539E+01    0.1918627288979130E+01
    0.1905522775357408E+01    0.2504942051092539E+01    0.7226294652692129E+00
    0.2879768116040530E+01    0.2504942051092539E+01    0.9080952827255693E+00
    0.2012711594383453E+01    0.2504942051092539E+01    0.1767082771793430E+01
    0.2669681577387164E+01    0.2504942051092539E+01    0.2853394652907191E+01
    0.5000000000000000E+01    0.1250000000000000E+01    0.5000000000000000E+01
    0.5000000000000000E+01    0.0000000000000000E+00    0.5000000000000000E+01
    0.5000000000000000E+01   -0.1250000000000000E+01    0.5000000000000000E+01
    0.5000000000000000E+01   -0.2496588986442259E+01    0.5000000000000000E+01
    0.5000000000000000E+01   -0.2496588986442259E+01    0.3750000000000000E+01
    0.5000000000000000E+01   -0.2496588986442259E+01    0.2500000000000000E+01
    0.5000000000000000E+01   -0.2496588986442259E+01    0.1250000000000000E+01
    0.5000000000000000E+01    0.1578994732800803E+01    0.9058375365086910E+00
    0.5000000000000000E+01   -0.1583989954232354E+01    0.3982050490726493E+01
    0.5000000000000000E+01    0.1453322699199022E+01    0.4033849428301197E+01
    0.5000000000000000E+01   -0.1479596339503735E+01    0.1040505887381675E+01
    0.5000000000000000E+01   -0.3227322616384110E+00    0.1099454400140349E+01
    0.5000000000000000E+01    0.6593508822075582E+00    0.7354504170366591E+00
    0.5000000000000000E+01    0.8256214013940779E+00    0.1622302608453282E+01
    0.5000000000000000E+01   -0.1650070333782557E+01    0.2145871574390382E+01
    0.5000000000000000E+01   -0.4612828702537229E+00    0.4086422318222992E+01
    0.5000000000000000E+01   -0.8579242121530853E+00    0.2979540174134984E+01
    0.5000000000000000E+01   -0.1836846154397680E+01    0.3045064261640043E+01
    0.5000000000000000E+01    0.3508002863614053E+00    0.3428197553792836E+01
    0.5000000000000000E+01    0.5185680230613409E+00    0.4309693860063405E+01
    0.5000000000000000E+01    0.1738996113203182E+01    0.1827272193562204E+01
    0.5000000000000000E+01    0.1325493893339706E+01    0.2808563282768077E+01
    0.5000000000000000E+01   -0.8731419609589618E+00    0.1895995683864404E+01
    0.5000000000000000E+01    0.4906150219227333E-01    0.2273179336307740E+01
    0.0000000000000000E+00    0.1250000000000000E+01    0.5000000000000000E+01
    0.0000000000000000E+00    0.0000000000000000E+00    0.5000000000000000E+01
    0.0000000000000000E+00   -0.1250000000000000E+01    0.5000000000000000E+01
    0.0000000000000000E+00   -0.2496588986442259E+01    0.5000000000000000E+01
    0.1250000000000000E+01   -0.2496588986442259E+01    0.5000000000000000E+01
    0.2500000000000000E+01   -0.2496588986442259E+01    0.5000000000000000E+01
    0.3750000000000000E+01   -0.2496588986442259E+01    0.5000000000000000E+01
    0.4042003247744892E+01    0.1558308132739014E+01    0.5000000000000000E+01
    0.9304122287900499E+00   -0.1548001304379777E+01    0.5000000000000000E+01
    0.1037243024609388E+01    0.1462892710085612E+01    0.5000000000000000E+01
    0.3946240828834967E+01   -0.1445243809615570E+01    0.5000000000000000E+01
    0.4092527262848217E+01   -0.3455338993778935E+00    0.5000000000000000E+01
    0.4293103109154542E+01    0.6277660831404320E+00    0.5000000000000000E+01
    0.3241512314643519E+01    0.7429886854239611E+00    0.5000000000000000E+01
    0.2844289952419609E+01   -0.1588117879734118E+01    0.5000000000000000E+01
    0.7159905765450471E+00   -0.6002320124191652E+00    0.5000000000000000E+01
    0.1754341919796891E+01   -0.7398147869923652E+00    0.5000000000000000E+01
    0.1870296826774691E+01   -0.1788622905643739E+01    0.5000000000000000E+01
    0.9220614901912976E+00    0.3083720183248586E+00    0.5000000000000000E+01
    0.3101523624086016E+01    0.1777901774806180E+01    0.5000000000000000E+01
    0.2192512063922564E+01    0.1576861561598471E+01    0.5000000000000000E+01
    0.2024793420196460E+01    0.4773861992750707E+00    0.5000000000000000E+01
    0.2990627757741975E+01   -0.4878110785814084E+00    0.5000000000000000E+01
    0.0000000000000000E+00   -0.2496588986442259E+01    0.1250000000000000E+01
    0.0000000000000000E+00   -0.2496588986442259E+01    0.2500000000000000E+01
    0.0000000000000000E+00   -0.2496588986442259E+01    0.3750000000000000E+01
    0.0000000000000000E+00    0.1558308132739014E+01    0.4042003247744892E+01
    0.0000000000000000E+00   -0.1548001304379777E+01    0.9304122287900499E+00
    0.0000000000000000E+00    0.1462892710085612E+01    0.1037243024609388E+01
    0.0000000000000000E+00   -0.1445243809615570E+01    0.3946240828834967E+01
    0.0000000000000000E+00   -0.3455338993778935E+00    0.4092527262848217E+01
    0.0000000000000000E+00    0.6277660831404320E+00    0.4293103109154542E+01
    0.0000000000000000E+00    0.7429886854239611E+00    0.3241512314643519E+01
    0.0000000000000000E+00   -0.1588117879734118E+01    0.2844289952419609E+01
    0.0000000000000000E+00   -0.6002320124191652E+00    0.7159905765450471E+00
    0.0000000000000000E+00   -0.7398147869923652E+00    0.1754341919796891E+01
    0.0000000000000000E+00   -0.1788622905643739E+01    0.1870296826774691E+01
    0.0000000000000000E+00    0.3083720183248586E+00    0.9220614901912976E+00
    0.0000000000000000E+00    0.1777901774806180E+01    0.3101523624086016E+01
    0.0000000000000000E+00    0.1576861561598471E+01    0.2192512063922564E+01
[...]
POINT_DATA 213
SCALARS rho double 1
LOOKUP_TABLE default
   0.1345796069831291E+01
   0.9579406129793820E+00
   0.9475822414223417E+00
   0.9441087483156625E+00
   0.8439753194848804E+00
   0.7737476718965998E+00
   0.7627930267625250E+00
   0.7653520925664885E+00
   0.8319806672791428E+00
   0.9370816115245668E+00
   0.9356544922005768E+00
   0.9614102258241151E+00
   0.1446900221506188E+01
   0.1493664423013335E+01
   0.1644906213178236E+01
   0.1426459531736073E+01
   0.1010194415684296E+01
   0.9525886491049081E+00
   0.9453352469382109E+00
   0.9570918326590750E+00
   0.9405035837246263E+00
   0.1036252876017889E+01
   0.9262769168425316E+00
   0.9335712824670864E+00
   0.9553315155165298E+00
   0.9539182562762688E+00
   0.9363521149751395E+00
   0.9580442340857994E+00
   0.9388812618832143E+00
   0.9315312998518848E+00
   0.9462274756742569E+00
   0.8866202831846932E+00
   0.9438701583071938E+00
   0.9642819766363845E+00
   0.1007360348520248E+01
   0.1006143492287496E+01
   0.1004563412625471E+01
   0.1005766401934367E+01
   0.1004613845299688E+01
   0.1005277031994501E+01
   0.1003007858533758E+01
   0.1008120562806678E+01
   0.1023734373623071E+01
   0.1063100449486217E+01
   0.1019331456971696E+01
   0.1001833244678405E+01
   0.9660892218694088E+00
   0.1005400997790493E+01
   0.1000803382613190E+01
   0.1008792579107949E+01
   0.1007887266420199E+01
   0.1002506559744658E+01
   0.9976233297708077E+00
   0.1000595481794219E+01
   0.1001869210854142E+01
   0.9829482840423921E+00
   0.9842199869685101E+00
   0.9842401901777295E+00
   0.9804107237407000E+00
   0.9907751737470097E+00
   0.9935612420945659E+00
   0.1004738741837203E+01
   0.1004753231279481E+01
   0.1004862587485985E+01
   0.1004644008155215E+01
   0.1009703733636710E+01
   0.1004822792541069E+01
   0.9562084177224752E+00
   0.9260272925008799E+00
   0.1007887757757643E+01
   0.1004444074593474E+01
   0.9153029377018344E+00
   0.9098198130191018E+00
   0.8763404266908441E+00
   0.9758129788990485E+00
   0.9988241155136595E+00
   0.1006007608070168E+01
   0.1010869700871255E+01
   0.1010284055708820E+01
   0.1008961394639041E+01
   0.1005854784741403E+01
   0.9901460264806425E+00
   0.1003820684556396E+01
   0.9846744581977626E+00
   0.1002807060521483E+01
   0.1003886847221776E+01
   0.1003222593985914E+01
   0.1003439395857979E+01
   0.1003752732748366E+01
   0.1005307958989259E+01
   0.1003281718628008E+01
   0.1004431171886739E+01
   0.1005174244124973E+01
   0.1004083058953254E+01
   0.1004543412187379E+01
   0.1003228508733939E+01
   0.1004823606034088E+01
   0.1005925426347036E+01
   0.1004662972863450E+01
   0.1003931063474211E+01
   0.1003152766055426E+01
   0.1004443719339789E+01
   0.1004241334062602E+01
   0.1003545641311744E+01
   0.1005319461723864E+01
   0.1004827945856789E+01
   0.1004768229244013E+01
   0.1004576521458539E+01
   0.1065020362673001E+01
   0.1028630322989456E+01
   0.1009571066439787E+01
   0.1006516425364329E+01
   0.1163424299408421E+01
   0.1086000558372293E+01
   0.1007846148269828E+01
   0.1007321617337332E+01
   0.1006722083108868E+01
   0.1013029938001536E+01
   0.1019233662914986E+01
   0.1234841069022818E+01
   0.1032998169142222E+01
   0.1046487661793542E+01
   0.1201217679053280E+01
   0.1014468366484819E+01
   0.1031904697085560E+01
   0.1028504501614253E+01
   0.1014872090668248E+01
   0.1028859464875764E+01
   0.1002322901681354E+01
   0.9623148917501703E+00
   0.1006831221493417E+01
   0.1001562980922311E+01
   0.1010600100597968E+01
   0.1012254759189875E+01
   0.1001078335260141E+01
   0.9974435996667421E+00
   0.9979280800845346E+00
   0.1001172481544536E+01
   0.9839319725478535E+00
   0.9809353604442731E+00
   0.9654087002317766E+00
   0.9689208101008733E+00
   0.9914000108884363E+00
   0.9913568224742213E+00
   0.9924637622494238E+00
   0.1001957566975185E+01
   0.9994921392324677E+00
   0.9940739434693967E+00
   0.1006945246446364E+01
   0.1022310800195748E+01
   0.1000795582732100E+01
   0.1008915591493760E+01
   0.1004961745865873E+01
   0.1009082867562409E+01
   0.9968099298590054E+00
   0.1005574875673307E+01
   0.1003563482853081E+01
   0.9950236688946033E+00
   0.9828740229698132E+00
   0.9940411207416427E+00
   0.9970457182545798E+00
   0.9919328693347489E+00
   0.1001254172895409E+01
   0.1003190715462494E+01
   0.1002144644384684E+01
   0.9935975621031033E+00
   0.9936971287205122E+00
   0.1005130778004069E+01
   0.1019848408116969E+01
   0.1005414683599140E+01
   0.9817212240400583E+00
   0.1005166100191585E+01
   0.1012378266307960E+01
   0.9874660543421306E+00
   0.9550246826957400E+00
   0.9860950518962969E+00
   0.9867483768806790E+00
   0.9926536695060011E+00
   0.9932329938556251E+00
   0.9955419544849253E+00
   0.1037373474507885E+01
   0.1032653434326719E+01
   0.1001303265332746E+01
   0.1001999061687095E+01
   0.9898551590475594E+00
   0.9908225791658400E+00
   0.9647795754712166E+00
   0.9922284405294594E+00
   0.1005684136541337E+01
   0.1001678083166225E+01
   0.9910851363846256E+00
   0.9742316032305055E+00
   0.9425595979884033E+00
   0.9822244720726272E+00
   0.9791867133608806E+00
   0.9714211527698020E+00
   0.9721146105956802E+00
   0.9554880946225066E+00
   0.9504058419137486E+00
   0.9547192589453869E+00
   0.1002935143686919E+01
   0.1002577865847243E+01
   0.1000384865633631E+01
   0.1001016491420173E+01
   0.9618573617042715E+00
   0.9513111728889684E+00
   0.9605334958903048E+00
   0.1000956914869092E+01
   0.1000529652254319E+01
   0.1000897141707102E+01
   0.9809782887116083E+00
   0.9804973583079347E+00
   0.9641751209487008E+00
SCALARS u double 1
LOOKUP_TABLE default
   0.0000000000000000E+00
   0.0000000000000000E+00
   0.0000000000000000E+00
   0.0000000000000000E+00
   0.0000000000000000E+00
   0.0000000000000000E+00
   0.0000000000000000E+00
   0.0000000000000000E+00
   0.0000000000000000E+00
   0.0000000000000000E+00
   0.0000000000000000E+00
   0.0000000000000000E+00
   0.0000000000000000E+00
   0.0000000000000000E+00
   0.0000000000000000E+00
   0.0000000000000000E+00
   0.0000000000000000E+00
   0.0000000000000000E+00
   0.0000000000000000E+00
   0.0000000000000000E+00
   0.0000000000000000E+00
   0.0000000000000000E+00
   0.0000000000000000E+00
   0.0000000000000000E+00
   0.0000000000000000E+00
   0.0000000000000000E+00
   0.0000000000000000E+00
   0.0000000000000000E+00
   0.0000000000000000E+00
   0.0000000000000000E+00
   0.0000000000000000E+00
   0.0000000000000000E+00
   0.0000000000000000E+00
   0.4952166094473850E+00
   0.5334120149389130E+00
   0.5184094579486568E+00
   0.4933250735752411E+00
   0.4841849663381347E+00
   0.4837349947869477E+00
   0.4864491245878046E+00
   0.4963270745085431E+00
   0.4897274550908226E+00
   0.4721228378302522E+00
   0.4457498853871934E+00
   0.4838077171891006E+00
   0.5088582079275739E+00
   0.4418326106866182E+00
   0.4944157117490814E+00
   0.5227028632157901E+00
   0.4962293702582342E+00
   0.5224859086414610E+00
   0.5031273776024633E+00
   0.5637899794292719E+00
   0.5250832383011330E+00
   0.4979646735678707E+00
   0.5718289383653259E+00
   0.5685713818653826E+00
   0.3743950067274442E+00
   0.4011465559738832E+00
   0.5588031561909319E+00
   0.5562225080454444E+00
   0.4946213193388319E+00
   0.4954710594924711E+00
   0.4938204696515716E+00
   0.4919413363836130E+00
   0.5164427623378157E+00
   0.5361042063379733E+00
   0.4961282254577383E+00
   0.4527682582354787E+00
   0.5124492606268313E+00
   0.5107351556873002E+00
   0.4793106262913158E+00
   0.4944001580548712E+00
   0.4612387474962271E+00
   0.5255628365234846E+00
   0.5301258155424791E+00
   0.5123394403376772E+00
   0.5330691504138397E+00
   0.5310183128724408E+00
   0.5300887504485423E+00
   0.5056214445907520E+00
   0.5282702007693522E+00
   0.5402398000022880E+00
   0.5370520939782050E+00
   0.5378029470611121E+00
   0.4974855944897879E+00
   0.4981113799763530E+00
   0.4967791932691466E+00
   0.4957217197549553E+00
   0.4878214010808555E+00
   0.4875638620386249E+00
   0.4856397332996504E+00
   0.4864348925773500E+00
   0.4916527514556849E+00
   0.4891972412341637E+00
   0.4852673914551072E+00
   0.4884794631381947E+00
   0.4891680346118443E+00
   0.4864606927699482E+00
   0.4864740135465637E+00
   0.4945548269096846E+00
   0.4872414430624619E+00
   0.4875243001192092E+00
   0.4930303120384109E+00
   0.4847382632833809E+00
   0.4867608429494579E+00
   0.4860643497499725E+00
   0.4863533545954110E+00
   0.4455051710597600E+00
   0.4698425082763421E+00
   0.4891213534760798E+00
   0.4880913863418989E+00
   0.4512222811316332E+00
   0.4670109694329240E+00
   0.4875157474481529E+00
   0.4867654094369206E+00
   0.4910252385755838E+00
   0.4794583402266446E+00
   0.4667732184836422E+00
   0.3795687746564956E+00
   0.4898600519997758E+00
   0.4494663923162451E+00
   0.4437390318216931E+00
   0.4845559109146829E+00
   0.4634694486311084E+00
   0.4668527006963671E+00
   0.4747719669815561E+00
   0.4892771404443502E+00
   0.5085848746532960E+00
   0.4329909328040531E+00
   0.4926201842598942E+00
   0.5331487316823680E+00
   0.4918699942843840E+00
   0.5209482739468766E+00
   0.5064844015224758E+00
   0.5670735935502158E+00
   0.5282726052689317E+00
   0.5013454023363829E+00
   0.5802137534286453E+00
   0.5679473668076479E+00
   0.3410566978891278E+00
   0.3795469870092755E+00
   0.5738453936313528E+00
   0.5665498218855386E+00
   0.5692131047035764E+00
   0.5290699709410162E+00
   0.5445795124451263E+00
   0.5714623754977515E+00
   0.5384718002299863E+00
   0.5475121228104273E+00
   0.5819359190464910E+00
   0.4926883567609220E+00
   0.5037396825710506E+00
   0.4963200878889414E+00
   0.5558034864816477E+00
   0.4758201633583695E+00
   0.4944304275684043E+00
   0.5489959500799686E+00
   0.5871724037835933E+00
   0.5824855104312413E+00
   0.5458107258334435E+00
   0.5778161164703794E+00
   0.5101211496021593E+00
   0.5023828121460977E+00
   0.5027638615064934E+00
   0.5661936037135855E+00
   0.5559508697748305E+00
   0.4944630160568086E+00
   0.5502633040046216E+00
   0.5510511345371293E+00
   0.5652348899055371E+00
   0.4913383651270075E+00
   0.4931359551393794E+00
   0.3887994734093610E+00
   0.3712649925452960E+00
   0.5569118092571673E+00
   0.5751808701101709E+00
   0.4190416685960476E+00
   0.5812983347684485E+00
   0.4284874051486470E+00
   0.5395051924571274E+00
   0.5022144150047660E+00
   0.5109698335879392E+00
   0.5041437483108010E+00
   0.5729511174694109E+00
   0.5855262644943467E+00
   0.5379224717484413E+00
   0.5659510570766436E+00
   0.5353075666599963E+00
   0.5338073763246449E+00
   0.5574267917924618E+00
   0.5503759801424022E+00
   0.4273781580854594E+00
   0.5263118323448407E+00
   0.5780884909753541E+00
   0.3348532834423906E+00
   0.4757120590610355E+00
   0.5450328398804646E+00
   0.4814965538664022E+00
   0.3029310168594198E+00
   0.5042510945136688E+00
   0.5010525382157105E+00
   0.5127760261981222E+00
   0.5401955471287657E+00
   0.3460279940622260E+00
   0.3438018763317026E+00
   0.3212262400448120E+00
   0.5064027272706703E+00
   0.5130715912888445E+00
   0.5327365617791082E+00
   0.5868433913917259E+00
   0.4641953207262178E+00
   0.3571075657655920E+00
SCALARS v double 1
LOOKUP_TABLE default
   0.0000000000000000E+00
   0.0000000000000000E+00
   0.0000000000000000E+00
   0.0000000000000000E+00
   0.0000000000000000E+00
   0.0000000000000000E+00
   0.0000000000000000E+00
   0.0000000000000000E+00
   0.0000000000000000E+00
   0.0000000000000000E+00
   0.0000000000000000E+00
   0.0000000000000000E+00
   0.0000000000000000E+00
   0.0000000000000000E+00
   0.0000000000000000E+00
   0.0000000000000000E+00
   0.0000000000000000E+00
   0.0000000000000000E+00
   0.0000000000000000E+00
   0.0000000000000000E+00
   0.0000000000000000E+00
   0.0000000000000000E+00
   0.0000000000000000E+00
   0.0000000000000000E+00
   0.0000000000000000E+00
   0.0000000000000000E+00
   0.0000000000000000E+00
   0.0000000000000000E+00
   0.0000000000000000E+00
   0.0000000000000000E+00
   0.0000000000000000E+00
   0.0000000000000000E+00
   0.0000000000000000E+00
   0.0000000000000000E+00
   0.0000000000000000E+00
   0.0000000000000000E+00
   0.0000000000000000E+00
   0.0000000000000000E+00
   0.0000000000000000E+00
   0.0000000000000000E+00
   0.0000000000000000E+00
   0.0000000000000000E+00
   0.0000000000000000E+00
   0.0000000000000000E+00
   0.0000000000000000E+00
   0.0000000000000000E+00
   0.0000000000000000E+00
   0.0000000000000000E+00
   0.0000000000000000E+00
   0.0000000000000000E+00
   0.0000000000000000E+00
   0.0000000000000000E+00
   0.0000000000000000E+00
   0.0000000000000000E+00
   0.0000000000000000E+00
   0.0000000000000000E+00
   0.0000000000000000E+00
   0.0000000000000000E+00
   0.0000000000000000E+00
   0.0000000000000000E+00
   0.0000000000000000E+00
   0.1162596887128687E-02
   0.2003043123608655E-03
  -0.1953688226433966E-03
   0.0000000000000000E+00
   0.0000000000000000E+00
   0.0000000000000000E+00
   0.0000000000000000E+00
  -0.1831487759604276E-01
   0.5854678669535837E-03
   0.1912193570945639E-02
   0.1413617719830213E-01
  -0.6686909693000267E-02
  -0.6663334945254061E-02
  -0.1269894395811318E-01
   0.4492452077990973E-02
   0.9925088475960986E-03
   0.3055245626486033E-02
   0.1758069367001063E-02
   0.2500013543610352E-02
   0.1886928470844295E-02
  -0.7175716373607564E-02
  -0.7572995080968886E-03
   0.4003272037246195E-02
  -0.9991762687989380E-03
  -0.4394374204448957E-03
  -0.4242637646891760E-03
   0.8232784148730544E-03
   0.0000000000000000E+00
   0.0000000000000000E+00
   0.0000000000000000E+00
   0.0000000000000000E+00
   0.8172980205895440E-03
   0.1464143972711110E-02
  -0.1397604288419368E-02
  -0.1732331696327932E-03
  -0.6800251664443376E-03
   0.1766207926006310E-03
   0.2497863646741792E-03
  -0.7368556995250050E-04
  -0.1803392018476950E-03
  -0.5268300628648813E-03
   0.8449492081246015E-03
  -0.1981973699434549E-02
   0.6946333666846718E-03
   0.3122078694673697E-03
  -0.3375758866437854E-03
  -0.3645582736378493E-03
   0.0000000000000000E+00
   0.0000000000000000E+00
   0.0000000000000000E+00
  -0.7945409598503108E-03
  -0.8000940821121214E-02
   0.1715952524846212E-01
  -0.2240577918124752E-03
  -0.1376651721484910E-02
  -0.2118334005805248E-02
  -0.5169485676535692E-02
  -0.1896513928695995E-02
  -0.6931437401382050E-02
  -0.4248045888105467E-02
   0.1594249029519489E-02
   0.3250955753618964E-01
   0.4871663230697060E-04
  -0.2139648948994173E-02
   0.4178504838047775E-02
   0.4375193717955763E-03
   0.0000000000000000E+00
   0.0000000000000000E+00
   0.0000000000000000E+00
   0.0000000000000000E+00
   0.0000000000000000E+00
   0.0000000000000000E+00
   0.0000000000000000E+00
   0.0000000000000000E+00
   0.0000000000000000E+00
   0.0000000000000000E+00
   0.0000000000000000E+00
   0.0000000000000000E+00
   0.0000000000000000E+00
   0.0000000000000000E+00
   0.0000000000000000E+00
   0.0000000000000000E+00
   0.0000000000000000E+00
   0.4598023482211855E-02
   0.3356349080959142E-02
   0.8095286801376590E-02
   0.5690441441441536E-02
   0.1127255272201708E-01
   0.1355681257574618E-01
  -0.1253120869402669E-02
   0.5526035040547855E-02
   0.3099584266620704E-02
   0.3708908383299832E-02
   0.3531937392322893E-02
  -0.1543015928464473E-01
  -0.5901824957300391E-03
   0.6594199728594550E-02
   0.1182147007498311E-02
   0.2047209353371794E-02
   0.4151809300648501E-02
  -0.2922399451867399E-02
   0.1630026299217265E-02
   0.3182719892030423E-02
   0.1885948729818753E-02
   0.2066861079190087E-02
   0.1953834404474466E-02
   0.2388570494248040E-02
   0.8731717253348351E-02
  -0.3693334889325140E-02
   0.6098943119456729E-02
   0.1189533306525432E-04
  -0.5517422730446495E-03
  -0.1692349349966010E-01
  -0.5343222174903153E-02
  -0.5480642715997835E-02
   0.3348287672729699E-02
  -0.6398582509127166E-02
  -0.3082039933781495E-03
  -0.3416523810933579E-01
  -0.2942065230847745E-02
   0.4678609702669236E-02
   0.1229591495518520E-02
   0.2436101366337646E-02
   0.3898795816888821E-02
   0.2528135816005291E-02
   0.2863889531862629E-02
   0.4710935858459587E-02
   0.1900905166914095E-02
   0.7150457235946872E-03
   0.1062572245940185E-03
  -0.4936081802561171E-02
  -0.6081749190831409E-02
  -0.7314003052740084E-03
   0.7647103686572902E-03
  -0.1640110611758635E-02
  -0.3318257731907711E-02
  -0.2621411417889999E-02
  -0.4584356435841440E-02
  -0.7794654553893711E-02
  -0.2003443843468018E-02
   0.8042963442621827E-03
   0.1304453591936526E-03
   0.8345961182673604E-03
  -0.3038770638480481E-02
   0.5390662173588531E-02
  -0.8739621055321349E-02
   0.1982344775096028E-03
  -0.2607177111724069E-03
   0.2407229465332700E-02
   0.1729041323895379E-02
   0.2228851561007369E-02
  -0.5447228168979307E-02
SCALARS w double 1
LOOKUP_TABLE default
   0.0000000000000000E+00
   0.0000000000000000E+00
   0.0000000000000000E+00
   0.0000000000000000E+00
   0.0000000000000000E+00
   0.0000000000000000E+00
   0.0000000000000000E+00
   0.0000000000000000E+00
   0.0000000000000000E+00
   0.0000000000000000E+00
   0.0000000000000000E+00
   0.0000000000000000E+00
   0.0000000000000000E+00
   0.0000000000000000E+00
   0.0000000000000000E+00
   0.0000000000000000E+00
   0.0000000000000000E+00
   0.0000000000000000E+00
   0.0000000000000000E+00
   0.0000000000000000E+00
   0.0000000000000000E+00
   0.0000000000000000E+00
   0.0000000000000000E+00
   0.0000000000000000E+00
   0.0000000000000000E+00
   0.0000000000000000E+00
   0.0000000000000000E+00
   0.0000000000000000E+00
   0.0000000000000000E+00
   0.0000000000000000E+00
   0.0000000000000000E+00
   0.0000000000000000E+00
   0.0000000000000000E+00
  -0.9788260614039093E-01
  -0.4149734344600502E-01
  -0.1878908892748099E-03
   0.4854608309943914E-02
   0.2388851898697518E-02
   0.2103599196625607E-02
   0.3718298948446948E-02
   0.4497020617733930E-02
   0.8887285985317230E-03
   0.3716607146200038E-02
   0.4566192566056432E-01
   0.6495358305582909E-01
   0.1484854379856951E-02
  -0.2250033097715511E-01
   0.4344347470952812E-02
   0.1292123659296954E-01
   0.1005258008166534E-01
   0.4807853080837671E-01
   0.2013827812932834E-02
  -0.5928502410039700E-02
  -0.3451631856414777E-03
   0.7175308217262390E-03
   0.3705752731101516E-02
  -0.3767202011373865E-01
   0.1792745484192077E-01
   0.1085022054849090E-01
   0.3301559014488978E-01
   0.8283238963072700E-02
   0.4439094446176297E-02
   0.4848262522220894E-02
   0.4652031716052771E-02
   0.5268611269626650E-02
   0.1446215003400542E-02
  -0.4055198933428512E-01
  -0.9670853256168022E-01
  -0.1095244259766250E+00
   0.3909495000454604E-02
   0.2989838441953404E-02
  -0.9719859033503399E-01
  -0.9617999549562845E-01
  -0.9576988457082038E-01
  -0.9204984417208643E-01
  -0.6622871847242862E-01
   0.4317359350767695E-02
  -0.1967398906642513E-01
  -0.1631151535669036E-01
  -0.7233432067331001E-02
   0.5590435985561387E-02
  -0.7786250901539345E-01
  -0.2801352955755452E-01
  -0.7850326037809829E-01
  -0.5785946387169966E-01
   0.4474184352012987E-02
   0.3189917422293429E-02
   0.3193435764434208E-02
   0.4465520216496576E-02
   0.3722869486239770E-02
   0.9363616325597208E-03
   0.8804286451072849E-03
   0.3623056407898371E-02
   0.5436657892453996E-02
   0.4224409795360454E-02
   0.1348360624453899E-02
   0.3138800263370755E-02
   0.4146016490674276E-02
   0.1498971269346159E-02
   0.4149092559701123E-03
   0.5484854791347486E-02
   0.2840093769669679E-02
   0.2574734552861317E-02
   0.5868981535975145E-02
   0.1833608450319949E-02
   0.2344225284462481E-02
   0.2061748359213737E-02
   0.1021575571169594E-02
   0.8451476742382204E-01
   0.2731391309753366E-02
  -0.8696223330537816E-03
   0.3165332986844032E-03
   0.1408440860450637E+00
   0.1225549543702543E+00
  -0.1109089957548844E-02
  -0.4224615786223994E-02
   0.2166516525799648E-03
  -0.6045325093588742E-02
  -0.1338100587009630E-02
   0.1564231166902353E+00
   0.7570490540109998E-01
   0.2597141625775706E-01
   0.1660359381020442E+00