# vtk DataFile Version 2.0
FUN3D:global_image_vtk
ASCII
DATASET UNSTRUCTURED_GRID
POINTS 213 double
   -0.5474547894569634E-02    0.2504942051092539E+01    0.8111779492247320E-04
    0.1245419838515235E+01    0.2504942051092539E+01    0.1041090383692247E-03
    0.2497696236677875E+01    0.2504942051092539E+01    0.1105497388997895E-03
    0.3750591598294108E+01    0.2504942051092539E+01    0.1365839649421343E-03
    0.5003222157533224E+01    0.2504942051092539E+01    0.9709660053677459E-04
    0.5004677104283252E+01    0.1281291554463587E+01    0.1643821865597698E-03
    0.5004773634302313E+01    0.2775169251086804E-01    0.1905342293861142E-03
    0.5003581708470984E+01   -0.1225852618779793E+01    0.1615543094276507E-03
    0.5001952978455432E+01   -0.2496588986442259E+01    0.1089518119557497E-03
    0.3750348798690704E+01   -0.2496588986442259E+01    0.1468415119082684E-03
    0.2498611608554525E+01   -0.2496588986442259E+01    0.1009399376806500E-03
    0.1247175433684251E+01   -0.2496588986442259E+01    0.1111888851508215E-03
   -0.3383068008610158E-02   -0.2496588986442259E+01    0.8150520461993216E-04
   -0.4256955851068877E-02   -0.1225733921940076E+01    0.3469021480935074E-04
   -0.5250811048115663E-02    0.2619538073149396E-01    0.1042835093026556E-03
   -0.5675964951546738E-02    0.1278221764905737E+01    0.8294295287214239E-04
    0.9003216169816050E+00    0.1608980057928585E+01    0.8723014083989041E-04
    0.3983172877234496E+01   -0.1561211350986338E+01    0.1760002127700831E-03
    0.4035602132520589E+01    0.1486760691219746E+01    0.1720286243631941E-03
    0.1036614197571059E+01   -0.1455625663561180E+01    0.1053351185766914E-03
    0.1094354118517697E+01   -0.2964612593014412E+00    0.1270024378743546E-03
    0.7298404519547405E+00    0.6874694715327181E+00    0.1051228423596991E-03
    0.1617018826115776E+01    0.8553210854460175E+00    0.1533030449187275E-03
    0.2143200501888038E+01   -0.1627128173870766E+01    0.1610504152783294E-03
    0.4088840817860322E+01   -0.4351038589522145E+00    0.2720164200689181E-03
    0.2977916803796307E+01   -0.8334982172549265E+00    0.2250176830131058E-03
    0.3044093701898847E+01   -0.1814360775861436E+01    0.1620229234402039E-03
    0.3427867342648891E+01    0.3813906283367565E+00    0.2939791736545564E-03
    0.4313226131547213E+01    0.5489134504401266E+00    0.2317707379503815E-03
    0.1823033136120683E+01    0.1771265626696227E+01    0.1837731895496522E-03
    0.2806312048597993E+01    0.1358629701935093E+01    0.1950949191722224E-03
    0.1891861460093988E+01   -0.8481309711553094E+00    0.1671919978819848E-03
    0.2268769423809795E+01    0.7723737869388031E-01    0.2072802753067468E-03
    0.5000000000000000E+01    0.2504942051092539E+01    0.1250000000000000E+01
    0.5000000000000000E+01    0.2504942051092539E+01    0.2500000000000000E+01
    0.5000000000000000E+01    0.2504942051092539E+01    0.3750000000000000E+01
    0.5000000000000000E+01    0.2504942051092539E+01    0.5000000000000000E+01
    0.3750000000000000E+01    0.2504942051092539E+01    0.5000000000000000E+01
    0.2500000000000000E+01    0.2504942051092539E+01    0.5000000000000000E+01
    0.1250000000000000E+01    0.2504942051092539E+01    0.5000000000000000E+01
    0.0000000000000000E+00    0.2504942051092539E+01    0.5000000000000000E+01
    0.0000000000000000E+00    0.2504942051092539E+01    0.3750000000000000E+01
    0.0000000000000000E+00    0.2504942051092539E+01    0.2500000000000000E+01
    0.0000000000000000E+00    0.2504942051092539E+01    0.1250000000000000E+01
    0.9588960571231866E+00    0.2504942051092539E+01    0.9696529778455178E+00
    0.3981953123960229E+01    0.2504942051092539E+01    0.4070563957054498E+01
    0.4036122654246864E+01    0.2504942051092539E+01    0.1017568184005398E+01
    0.9637572721596147E+00    0.2504942051092539E+01    0.3973598277573462E+01
    0.1546540204397300E+01    0.2504942051092539E+01    0.2931570394191802E+01
    0.6973799701054136E+00    0.2504942051092539E+01    0.3070320060098056E+01
    0.8903743084219859E+00    0.2504942051092539E+01    0.2056562452539602E+01
    0.2183042014959271E+01    0.2504942051092539E+01    0.3960694590946582E+01
    0.3855844981955203E+01    0.2504942051092539E+01    0.2933250842619056E+01
    0.3152611431327898E+01    0.2504942051092539E+01    0.3637668584319779E+01
    0.3103307414861235E+01    0.2504942051092539E+01    0.4332607912231964E+01
    0.3266711257945840E+01    0.2504942051092539E+01    0.1889657095637415E+01
    0.4232537722628977E+01    0.2504942051092539E+01    0.1918627288979130E+01
    0.1905522775357408E+01    0.2504942051092539E+01    0.7226294652692130E+00
    0.2879768116040530E+01    0.2504942051092539E+01    0.9080952827255694E+00
    0.2012711594383454E+01    0.2504942051092539E+01    0.1767082771793431E+01
    0.2669681577387165E+01    0.2504942051092539E+01    0.2853394652907192E+01
    0.5000000000000000E+01    0.1250000000000000E+01    0.5000000000000000E+01
    0.5000000000000000E+01    0.0000000000000000E+00    0.5000000000000000E+01
    0.5000000000000000E+01   -0.1250000000000000E+01    0.5000000000000000E+01
    0.5000000000000000E+01   -0.2496588986442259E+01    0.5000000000000000E+01
    0.5000000000000000E+01   -0.2496588986442259E+01    0.3750000000000000E+01
    0.5000000000000000E+01   -0.2496588986442259E+01    0.2500000000000000E+01
    0.5000000000000000E+01   -0.2496588986442259E+01    0.1250000000000000E+01
    0.5000000000000000E+01    0.1578994732800803E+01    0.9058375365086910E+00
    0.5000000000000000E+01   -0.1583989954232354E+01    0.3982050490726493E+01
    0.5000000000000000E+01    0.1453322699199022E+01    0.4033849428301197E+01
    0.5000000000000000E+01   -0.1479596339503735E+01    0.1040505887381675E+01
    0.5000000000000000E+01   -0.3227322616384110E+00    0.1099454400140349E+01
    0.5000000000000000E+01    0.6593508822075582E+00    0.7354504170366591E+00
    0.5000000000000000E+01    0.8256214013940779E+00    0.1622302608453282E+01
    0.5000000000000000E+01   -0.1650070333782557E+01    0.2145871574390382E+01
    0.5000000000000000E+01   -0.4612828702537229E+00    0.4086422318222992E+01
    0.5000000000000000E+01   -0.8579242121530853E+00    0.2979540174134984E+01
    0.5000000000000000E+01   -0.1836846154397680E+01    0.3045064261640043E+01
    0.5000000000000000E+01    0.3508002863614053E+00    0.3428197553792836E+01
    0.5000000000000000E+01    0.5185680230613409E+00    0.4309693860063405E+01
    0.5000000000000000E+01    0.1738996113203182E+01    0.1827272193562204E+01
    0.5000000000000000E+01    0.1325493893339706E+01    0.2808563282768077E+01
    0.5000000000000000E+01   -0.8731419609589618E+00    0.1895995683864404E+01
    0.5000000000000000E+01    0.4906150219227333E-01    0.2273179336307740E+01
    0.0000000000000000E+00    0.1250000000000000E+01    0.5000000000000000E+01
    0.0000000000000000E+00    0.0000000000000000E+00    0.5000000000000000E+01
    0.0000000000000000E+00   -0.1250000000000000E+01    0.5000000000000000E+01
    0.0000000000000000E+00   -0.2496588986442259E+01    0.5000000000000000E+01
    0.1250000000000000E+01   -0.2496588986442259E+01    0.5000000000000000E+01
    0.2500000000000000E+01   -0.2496588986442259E+01    0.5000000000000000E+01
    0.3750000000000000E+01   -0.2496588986442259E+01    0.5000000000000000E+01
    0.4042003247744892E+01    0.1558308132739014E+01    0.5000000000000000E+01
    0.9304122287900499E+00   -0.1548001304379777E+01    0.5000000000000000E+01
    0.1037243024609388E+01    0.1462892710085612E+01    0.5000000000000000E+01
    0.3946240828834967E+01   -0.1445243809615570E+01    0.5000000000000000E+01
    0.4092527262848217E+01   -0.3455338993778935E+00    0.5000000000000000E+01
    0.4293103109154542E+01    0.6277660831404320E+00    0.5000000000000000E+01
    0.3241512314643519E+01    0.7429886854239611E+00    0.5000000000000000E+01
    0.2844289952419609E+01   -0.1588117879734118E+01    0.5000000000000000E+01
    0.7159905765450471E+00   -0.6002320124191652E+00    0.5000000000000000E+01
    0.1754341919796891E+01   -0.7398147869923652E+00    0.5000000000000000E+01
    0.1870296826774691E+01   -0.1788622905643739E+01    0.5000000000000000E+01
    0.9220614901912976E+00    0.3083720183248586E+00    0.5000000000000000E+01
    0.3101523624086016E+01    0.1777901774806180E+01    0.5000000000000000E+01
    0.2192512063922564E+01    0.1576861561598471E+01    0.5000000000000000E+01
    0.2024793420196460E+01    0.4773861992750707E+00    0.5000000000000000E+01
    0.2990627757741975E+01   -0.4878110785814084E+00    0.5000000000000000E+01
    0.0000000000000000E+00   -0.2496588986442259E+01    0.1250000000000000E+01
    0.0000000000000000E+00   -0.2496588986442259E+01    0.2500000000000000E+01
    0.0000000000000000E+00   -0.2496588986442259E+01    0.3750000000000000E+01
    0.0000000000000000E+00    0.1558308132739014E+01    0.4042003247744892E+01
    0.0000000000000000E+00   -0.1548001304379777E+01    0.9304122287900499E+00
    0.0000000000000000E+00    0.1462892710085612E+01    0.1037243024609388E+01
    0.0000000000000000E+00   -0.1445243809615570E+01    0.3946240828834967E+01
    0.0000000000000000E+00   -0.3455338993778935E+00    0.4092527262848217E+01
    0.0000000000000000E+00    0.6277660831404320E+00    0.4293103109154542E+01
    0.0000000000000000E+00    0.7429886854239611E+00    0.3241512314643519E+01
    0.0000000000000000E+00   -0.1588117879734118E+01    0.2844289952419609E+01
    0.0000000000000000E+00   -0.6002320124191652E+00    0.7159905765450471E+00
    0.0000000000000000E+00   -0.7398147869923652E+00    0.1754341919796891E+01
    0.0000000000000000E+00   -0.1788622905643739E+01    0.1870296826774691E+01
    0.0000000000000000E+00    0.3083720183248586E+00    0.9220614901912976E+00
    0.0000000000000000E+00    0.1777901774806180E+01    0.3101523624086016E+01
    0.0000000000000000E+00    0.1576861561598471E+01    0.2192512063922564E+01
[...]
POINT_DATA 213
SCALARS rho double 1
LOOKUP_TABLE default
   0.1346107599631318E+01
   0.9572033491344664E+00
   0.9461168632125491E+00
   0.9421718594995824E+00
   0.8436073959624161E+00
   0.7742018581609854E+00
   0.7627577565216703E+00
   0.7661552692459508E+00
   0.8310486615228301E+00
   0.9353548060031663E+00
   0.9343892577268774E+00
   0.9616161141323707E+00
   0.1448474792941033E+01
   0.1495419973946703E+01
   0.1646729018793986E+01
   0.1426611106635821E+01
   0.1009806513861166E+01
   0.9511448151315671E+00
   0.9438199570388652E+00
   0.9574644293130644E+00
   0.9414966216405257E+00
   0.1037118566944134E+01
   0.9258160397922534E+00
   0.9322396153354280E+00
   0.9538055780163904E+00
   0.9520449925251346E+00
   0.9351032218626532E+00
   0.9565494927528361E+00
   0.9378635877846306E+00
   0.9303456630620051E+00
   0.9446464096842587E+00
   0.8862345247080227E+00
   0.9424042439991130E+00
   0.9637059112338419E+00
   0.1008354779578523E+01
   0.1006713666045568E+01
   0.1001956910567418E+01
   0.1003215470026220E+01
   0.1004119565266526E+01
   0.1005207463133521E+01
   0.1004249626485457E+01
   0.1008267947906658E+01
   0.1023868968760595E+01
   0.1063754887779011E+01
   0.1019393718739400E+01
   0.1001778965565515E+01
   0.9645833289858969E+00
   0.1005262829695637E+01
   0.1000745159066638E+01
   0.1008696077503170E+01
   0.1008037474116757E+01
   0.1002353124066732E+01
   0.9980185113698830E+00
   0.1000592004261005E+01
   0.1001620203244220E+01
   0.9828034235349974E+00
   0.9843904075328861E+00
   0.9834131344756504E+00
   0.9790348166105555E+00
   0.9904750253653579E+00
   0.9935188128608593E+00
   0.1002005695212082E+01
   0.1002129680815300E+01
   0.1002270624813277E+01
   0.1001791397474872E+01
   0.1009817838970652E+01
   0.1006507623901679E+01
   0.9561123830422783E+00
   0.9252822334349975E+00
   0.1007054435811627E+01
   0.1004492764566594E+01
   0.9145127936496006E+00
   0.9091576689969652E+00
   0.8752463937285219E+00
   0.9767970564647235E+00
   0.1000540460870939E+01
   0.1005827573853025E+01
   0.1012896754025747E+01
   0.1011680804645605E+01
   0.1010416982278165E+01
   0.1005458150309227E+01
   0.9909162040901716E+00
   0.1005148529595682E+01
   0.9860888751817629E+00
   0.1005592190772095E+01
   0.1004239573656656E+01
   0.1002885747033119E+01
   0.1003349863031470E+01
   0.1003998152680326E+01
   0.1005114862868781E+01
   0.1003222794073868E+01
   0.1002666928958994E+01
   0.1002585614147122E+01
   0.1004068640899452E+01
   0.1004304379978883E+01
   0.1001641022355032E+01
   0.1002275906689578E+01
   0.1002542969967813E+01
   0.1003470330998152E+01
   0.1003379333465882E+01
   0.1003232735412353E+01
   0.1004429382161433E+01
   0.1004323819825049E+01
   0.1003652731709862E+01
   0.1003717886884540E+01
   0.1004318200436130E+01
   0.1004461718283611E+01
   0.1003628260365932E+01
   0.1064485236684485E+01
   0.1028441570840581E+01
   0.1009605542725679E+01
   0.1006626618239510E+01
   0.1163967053447250E+01
   0.1086026345544810E+01
   0.1007906675505920E+01
   0.1007251386329417E+01
   0.1006796143311558E+01
   0.1013053413768839E+01
   0.1019340239643726E+01
   0.1235122847140961E+01
   0.1032535293940008E+01
   0.1046564884613169E+01
   0.1201701533339338E+01
   0.1014671687378367E+01
   0.1032296942118429E+01
   0.1028221611951881E+01
   0.1014639961392452E+01
   0.1028986451202482E+01
   0.1002004165761919E+01
   0.9608154352926314E+00
   0.1006857478824781E+01
   0.1001324416884006E+01
   0.1010797627038349E+01
   0.1012230910485288E+01
   0.1000939074351214E+01
   0.9979355176371743E+00
   0.9980684181300183E+00
   0.1001191295128053E+01
   0.9842095713143261E+00
   0.9815225260249052E+00
   0.9648737723395856E+00
   0.9680939931593148E+00
   0.9914081047643141E+00
   0.9910909898895491E+00
   0.9925582228960174E+00
   0.1001726954559257E+01
   0.9993240238173722E+00
   0.9941429880819883E+00
   0.1006981981855786E+01
   0.1022612590196582E+01
   0.1001120306426516E+01
   0.1008783386531964E+01
   0.1004774226817416E+01
   0.1009029913411324E+01
   0.9967207504674856E+00
   0.1005570285444861E+01
   0.1003324269238641E+01
   0.9949841352283859E+00
   0.9833498867411238E+00
   0.9944488323139546E+00
   0.9973469092886077E+00
   0.9932496604424796E+00
   0.1001311077769476E+01
   0.1003000073033055E+01
   0.1002187720213044E+01
   0.9947118394949782E+00
   0.9937827814507066E+00
   0.1004861184973540E+01
   0.1020100853173417E+01
   0.1005336849923050E+01
   0.9817042554700299E+00
   0.1004974059809674E+01
   0.1012374049812131E+01
   0.9873717069729044E+00
   0.9551279746804866E+00
   0.9865249301265151E+00
   0.9865912720647684E+00
   0.9920062381870842E+00
   0.9934431930426839E+00
   0.9960677839369630E+00
   0.1037399781615464E+01
   0.1033160646102394E+01
   0.1001443335809676E+01
   0.1001927956923146E+01
   0.9912307511160412E+00
   0.9911139766327917E+00
   0.9649427195860787E+00
   0.9933785516109991E+00
   0.1006090842976133E+01
   0.1001962953267741E+01
   0.9908623355726782E+00
   0.9742169282928670E+00
   0.9420657457515232E+00
   0.9821539068366766E+00
   0.9794778438769445E+00
   0.9704366127443953E+00
   0.9720881182742520E+00
   0.9557896395229014E+00
   0.9498087655623525E+00
   0.9529905563785264E+00
   0.1002635184306855E+01
   0.1002474932155718E+01
   0.1000512805034793E+01
   0.1001674927318755E+01
   0.9610028795072474E+00
   0.9492452151706903E+00
   0.9586634860942657E+00
   0.1001121129074780E+01
   0.1000500945079164E+01
   0.1001159352294004E+01
   0.9807417284397031E+00
   0.9805563274847823E+00
   0.9629219500467786E+00
SCALARS u double 1
LOOKUP_TABLE default
   0.0000000000000000E+00
   0.0000000000000000E+00
   0.0000000000000000E+00
   0.0000000000000000E+00
   0.0000000000000000E+00
   0.0000000000000000E+00
   0.0000000000000000E+00
   0.0000000000000000E+00
   0.0000000000000000E+00
   0.0000000000000000E+00
   0.0000000000000000E+00
   0.0000000000000000E+00
   0.0000000000000000E+00
   0.0000000000000000E+00
   0.0000000000000000E+00
   0.0000000000000000E+00
   0.0000000000000000E+00
   0.0000000000000000E+00
   0.0000000000000000E+00
   0.0000000000000000E+00
   0.0000000000000000E+00
   0.0000000000000000E+00
   0.0000000000000000E+00
   0.0000000000000000E+00
   0.0000000000000000E+00
   0.0000000000000000E+00
   0.0000000000000000E+00
   0.0000000000000000E+00
   0.0000000000000000E+00
   0.0000000000000000E+00
   0.0000000000000000E+00
   0.0000000000000000E+00
   0.0000000000000000E+00
   0.4945907129433222E+00
   0.5336251948624375E+00
   0.5182743263254949E+00
   0.4930733233408380E+00
   0.4847791570977595E+00
   0.4868175405903141E+00
   0.4891448774587581E+00
   0.4958012521813621E+00
   0.4899013914297330E+00
   0.4718076968843934E+00
   0.4448878832658896E+00
   0.4844372577665615E+00
   0.5097754344295983E+00
   0.4401836615777154E+00
   0.4949589924132610E+00
   0.5223009682274242E+00
   0.4962753191395542E+00
   0.5223837621079220E+00
   0.5038176509926696E+00
   0.5644337249697815E+00
   0.5245902510370213E+00
   0.4991022545015513E+00
   0.5729202612167523E+00
   0.5693574417105572E+00
   0.3752191710005733E+00
   0.4003630720131083E+00
   0.5599396713779692E+00
   0.5562263313317565E+00
   0.4942659545291183E+00
   0.4948662112801204E+00
   0.4925605764937293E+00
   0.4913957250575983E+00
   0.5162608330656349E+00
   0.5363671687479887E+00
   0.4951364768952365E+00
   0.4520488720020451E+00
   0.5129014844189094E+00
   0.5117702068331605E+00
   0.4786306559967591E+00
   0.4931111555337018E+00
   0.4600263545869788E+00
   0.5242595824585682E+00
   0.5299948640658090E+00
   0.5129698611212172E+00
   0.5328927305791358E+00
   0.5309787164424186E+00
   0.5309762371590790E+00
   0.5063651494921589E+00
   0.5279528055929865E+00
   0.5409240688082778E+00
   0.5363716508078054E+00
   0.5374202230674906E+00
   0.4965362418749570E+00
   0.4975367413032130E+00
   0.4963815906389202E+00
   0.4955155936985394E+00
   0.4904178797157568E+00
   0.4902513662491610E+00
   0.4861586486161068E+00
   0.4854090474272899E+00
   0.4931964018522553E+00
   0.4910341061251557E+00
   0.4831647451473181E+00
   0.4872471781358092E+00
   0.4880047122758477E+00
   0.4872343671077554E+00
   0.4882157217508633E+00
   0.4952581837511583E+00
   0.4900730237845466E+00
   0.4903608169450901E+00
   0.4944359969879807E+00
   0.4868236440306460E+00
   0.4892758978156544E+00
   0.4881480202096257E+00
   0.4878258673353779E+00
   0.4449104738506255E+00
   0.4700138076117396E+00
   0.4891778130669491E+00
   0.4885970981868595E+00
   0.4510304240898030E+00
   0.4681802397725270E+00
   0.4876667560940730E+00
   0.4868264710187343E+00
   0.4909267575298332E+00
   0.4793951242686525E+00
   0.4657914002534269E+00
   0.3794394585024507E+00
   0.4903638086648011E+00
   0.4487974888360704E+00
   0.4432391341601647E+00
   0.4845721161303368E+00
   0.4621874647970496E+00
   0.4663613983302201E+00
   0.4747794115537508E+00
   0.4893814568838195E+00
   0.5085691766124775E+00
   0.4305370915837839E+00
   0.4927305146783814E+00
   0.5320334222020497E+00
   0.4913862187682455E+00
   0.5209477046687850E+00
   0.5061333466871499E+00
   0.5690659830839051E+00
   0.5275016978764528E+00
   0.5015056963342409E+00
   0.5821779621045537E+00
   0.5691759904581634E+00
   0.3403301949197016E+00
   0.3786149018052199E+00
   0.5753349570561175E+00
   0.5668548237959765E+00
   0.5703058442587133E+00
   0.5291884763741159E+00
   0.5449841601175625E+00
   0.5719106477544970E+00
   0.5385672767421782E+00
   0.5475909374198884E+00
   0.5821520782274743E+00
   0.4925323653991491E+00
   0.5041574858552060E+00
   0.4961298326696484E+00
   0.5562740967627094E+00
   0.4757839198963463E+00
   0.4950197909412163E+00
   0.5496189489693414E+00
   0.5889515988361956E+00
   0.5839552307787187E+00
   0.5468178915073539E+00
   0.5803876714274648E+00
   0.5106079700650945E+00
   0.5029566026970295E+00
   0.5033151276764679E+00
   0.5676214169565220E+00
   0.5564625323377073E+00
   0.4947149931161703E+00
   0.5506790161390798E+00
   0.5513584277330976E+00
   0.5658252824804741E+00
   0.4919972187401936E+00
   0.4927869067748518E+00
   0.3865379518502265E+00
   0.3687911345614223E+00
   0.5574398271515894E+00
   0.5761718927719883E+00
   0.4194268242087175E+00
   0.5822963776827693E+00
   0.4268175039404759E+00
   0.5397383912169336E+00
   0.5016142312542964E+00
   0.5119275639118395E+00
   0.5048481857923345E+00
   0.5752729113893534E+00
   0.5878359678087404E+00
   0.5382532977386281E+00
   0.5679684572008399E+00
   0.5352001998343279E+00
   0.5338442164327601E+00
   0.5582272237725073E+00
   0.5511423402474704E+00
   0.4256676202254706E+00
   0.5272848956086943E+00
   0.5796785503497397E+00
   0.3318306824575150E+00
   0.4761644981031563E+00
   0.5446506939445787E+00
   0.4800723625478069E+00
   0.3006194963195721E+00
   0.5031635772541335E+00
   0.5017201057033426E+00
   0.5129150844126834E+00
   0.5414139603947016E+00
   0.3435101244061575E+00
   0.3397979124411754E+00
   0.3190371991961020E+00
   0.5066205474362434E+00
   0.5123858101330357E+00
   0.5329092057659370E+00
   0.5881346332099264E+00
   0.4645021649789898E+00
   0.3529501322275529E+00
SCALARS v double 1
LOOKUP_TABLE default
   0.0000000000000000E+00
   0.0000000000000000E+00
   0.0000000000000000E+00
   0.0000000000000000E+00
   0.0000000000000000E+00
   0.0000000000000000E+00
   0.0000000000000000E+00
   0.0000000000000000E+00
   0.0000000000000000E+00
   0.0000000000000000E+00
   0.0000000000000000E+00
   0.0000000000000000E+00
   0.0000000000000000E+00
   0.0000000000000000E+00
   0.0000000000000000E+00
   0.0000000000000000E+00
   0.0000000000000000E+00
   0.0000000000000000E+00
   0.0000000000000000E+00
   0.0000000000000000E+00
   0.0000000000000000E+00
   0.0000000000000000E+00
   0.0000000000000000E+00
   0.0000000000000000E+00
   0.0000000000000000E+00
   0.0000000000000000E+00
   0.0000000000000000E+00
   0.0000000000000000E+00
   0.0000000000000000E+00
   0.0000000000000000E+00
   0.0000000000000000E+00
   0.0000000000000000E+00
   0.0000000000000000E+00
   0.0000000000000000E+00
   0.0000000000000000E+00
   0.0000000000000000E+00
   0.0000000000000000E+00
   0.0000000000000000E+00
   0.0000000000000000E+00
   0.0000000000000000E+00
   0.0000000000000000E+00
   0.0000000000000000E+00
   0.0000000000000000E+00
   0.0000000000000000E+00
   0.0000000000000000E+00
   0.0000000000000000E+00
   0.0000000000000000E+00
   0.0000000000000000E+00
   0.0000000000000000E+00
   0.0000000000000000E+00
   0.0000000000000000E+00
   0.0000000000000000E+00
   0.0000000000000000E+00
   0.0000000000000000E+00
   0.0000000000000000E+00
   0.0000000000000000E+00
   0.0000000000000000E+00
   0.0000000000000000E+00
   0.0000000000000000E+00
   0.0000000000000000E+00
   0.0000000000000000E+00
   0.8516678262226028E-03
  -0.1262877479803174E-02
  -0.1293075317810918E-02
   0.0000000000000000E+00
   0.0000000000000000E+00
   0.0000000000000000E+00
   0.0000000000000000E+00
  -0.1933287013577420E-01
   0.5045784483587011E-03
   0.2213348884575314E-02
   0.1420811898174702E-01
  -0.6733558305379287E-02
  -0.8155801429454929E-02
  -0.1324543373652055E-01
   0.5002522025950796E-02
   0.7358153634391117E-03
   0.3481128580542004E-02
   0.1949575450708005E-02
   0.3168994184729874E-02
   0.1755387527858946E-02
  -0.7290317175069692E-02
  -0.6620477971036673E-04
   0.4565274158496150E-02
  -0.4086013000078920E-03
  -0.6618003884559481E-04
  -0.2024166819467515E-03
   0.8054769486909195E-03
   0.0000000000000000E+00
   0.0000000000000000E+00
   0.0000000000000000E+00
   0.0000000000000000E+00
   0.4734153908668966E-03
   0.1623694047973286E-02
  -0.1273198076588021E-02
  -0.9969456275918484E-03
  -0.2075935224708055E-02
  -0.9966047114404845E-03
  -0.7512340363654139E-03
  -0.7418045088035968E-03
   0.6010745124888266E-04
  -0.5969516671085963E-03
   0.8033870555223214E-03
  -0.1730326688591262E-02
   0.3131014789507700E-03
  -0.5823207959628817E-04
  -0.8898066921762244E-03
  -0.1051108517667146E-02
   0.0000000000000000E+00
   0.0000000000000000E+00
   0.0000000000000000E+00
  -0.1035375425268783E-02
  -0.7791861008900738E-02
   0.1821124890035044E-01
  -0.2909931602096727E-04
  -0.1377043509024817E-02
  -0.2028125170089622E-02
  -0.5613283350838777E-02
  -0.1620470863904029E-02
  -0.6358941612011271E-02
  -0.4327626196901404E-02
   0.1516496955732468E-02
   0.3300074314570035E-01
   0.4398560954078806E-04
  -0.2766708755174307E-02
   0.3629330411124987E-02
   0.3918142825846941E-03
   0.0000000000000000E+00
   0.0000000000000000E+00
   0.0000000000000000E+00
   0.0000000000000000E+00
   0.0000000000000000E+00
   0.0000000000000000E+00
   0.0000000000000000E+00
   0.0000000000000000E+00
   0.0000000000000000E+00
   0.0000000000000000E+00
   0.0000000000000000E+00
   0.0000000000000000E+00
   0.0000000000000000E+00
   0.0000000000000000E+00
   0.0000000000000000E+00
   0.0000000000000000E+00
   0.0000000000000000E+00
   0.4996892483053331E-02
   0.3209995240064647E-02
   0.8121751745348625E-02
   0.6089633831009844E-02
   0.1117050906815197E-01
   0.1403197535502017E-01
  -0.3288275377321934E-03
   0.5160291930085933E-02
   0.2928857155474010E-02
   0.3376704593505758E-02
   0.3724202063540542E-02
  -0.1469871218615779E-01
  -0.6149933526222324E-03
   0.6637026110080916E-02
   0.1453438335124710E-02
   0.1957610805543100E-02
   0.4261361297274223E-02
  -0.2811532855621831E-02
   0.1265403224103332E-02
   0.2850320964461878E-02
   0.1533342098283484E-02
   0.2562402948345360E-02
   0.2009048299756921E-02
   0.2152871535305473E-02
   0.8578504036775765E-02
  -0.3835624937961039E-02
   0.6146404947266835E-02
   0.4608073949817833E-04
  -0.4248333600725227E-03
  -0.1674703605300075E-01
  -0.5004966834382647E-02
  -0.4835325676193639E-02
   0.3396893314672264E-02
  -0.6079554906291758E-02
   0.2530749721226781E-04
  -0.3285405058889370E-01
  -0.3188777049764347E-02
   0.4573364156326816E-02
   0.9670914796023360E-03
   0.2132550030914213E-02
   0.4531681504798725E-02
   0.2690973021053700E-02
   0.3250674333307020E-02
   0.5226503727042373E-02
   0.1957944273083533E-02
   0.7476769285931963E-03
  -0.6182023685469959E-04
  -0.5322397214542287E-02
  -0.6966849702185939E-02
  -0.9691213029134413E-03
   0.1057857850654251E-02
  -0.2117173316368916E-02
  -0.3223677835851694E-02
  -0.2538103828248032E-02
  -0.4117500959906750E-02
  -0.7559048754992018E-02
  -0.2014517252974911E-02
   0.6493179146836817E-03
  -0.1926705316931946E-03
   0.1227232615166504E-02
  -0.3504145809178454E-02
   0.4855233817453752E-02
  -0.8635026148698101E-02
   0.3146784089362143E-04
  -0.3340828461170636E-03
   0.2557893025467368E-02
   0.1609334332289938E-02
   0.2028439045858575E-02
  -0.5642829787170092E-02
SCALARS w double 1
LOOKUP_TABLE default
   0.0000000000000000E+00
   0.0000000000000000E+00
   0.0000000000000000E+00
   0.0000000000000000E+00
   0.0000000000000000E+00
   0.0000000000000000E+00
   0.0000000000000000E+00
   0.0000000000000000E+00
   0.0000000000000000E+00
   0.0000000000000000E+00
   0.0000000000000000E+00
   0.0000000000000000E+00
   0.0000000000000000E+00
   0.0000000000000000E+00
   0.0000000000000000E+00
   0.0000000000000000E+00
   0.0000000000000000E+00
   0.0000000000000000E+00
   0.0000000000000000E+00
   0.0000000000000000E+00
   0.0000000000000000E+00
   0.0000000000000000E+00
   0.0000000000000000E+00
   0.0000000000000000E+00
   0.0000000000000000E+00
   0.0000000000000000E+00
   0.0000000000000000E+00
   0.0000000000000000E+00
   0.0000000000000000E+00
   0.0000000000000000E+00
   0.0000000000000000E+00
   0.0000000000000000E+00
   0.0000000000000000E+00
  -0.1007310674854902E+00
  -0.4246329608277143E-01
   0.7127034370354166E-03
   0.5708940890588273E-02
   0.5680831298233060E-03
   0.1604195636396685E-02
   0.3371460681632263E-02
   0.2364160922502612E-02
   0.4710830235018472E-03
   0.3527001903555017E-02
   0.4532864526245511E-01
   0.6564271605286869E-01
   0.8382259283858762E-03
  -0.2265956717338981E-01
   0.4272500605546191E-02
   0.1342667864825206E-01
   0.1030038590810840E-01
   0.4871546934328316E-01
   0.2384266601901316E-02
  -0.6534541818481969E-02
  -0.7345984767128586E-03
   0.3061542795918170E-03
   0.3853447291308856E-02
  -0.3894026668896488E-01
   0.1818960829926497E-01
   0.1121952462960017E-01
   0.3396121472349955E-01
   0.8384692363281796E-02
   0.4929881801601995E-02
   0.4977621991702172E-02
   0.4903359631300593E-02
   0.6059037483842592E-02
   0.2701326775310355E-02
  -0.4126420402539346E-01
  -0.9925850771005333E-01
  -0.1120356571876310E+00
   0.5148411831698346E-02
   0.4216978895240989E-02
  -0.1002558173395902E+00
  -0.9892747184068559E-01
  -0.9835884962459250E-01
  -0.9444491497471429E-01
  -0.6789715068577819E-01
   0.5199207165006841E-02
  -0.1926969213596439E-01
  -0.1562759830056233E-01
  -0.5964801371674755E-02
   0.6825412019649688E-02
  -0.8000600556837692E-01
  -0.2776912107377031E-01
  -0.8085813421283657E-01
  -0.5863276645365792E-01
   0.3073883341672019E-02
   0.2684653036392076E-02
   0.2643994301920751E-02
   0.3455891627676734E-02
   0.3996702357151987E-02
   0.1198249130446822E-02
  -0.1349039869204650E-03
   0.2032061627837852E-02
   0.4892722980102259E-02
   0.3863621964441791E-02
   0.1127233783107363E-02
   0.1190612841095190E-02
   0.1463680339932955E-02
  -0.2288823312538305E-04
   0.9021519505728447E-04
   0.4386048558704158E-02
   0.2711282389448627E-02
   0.2315357900434524E-02
   0.5005861430568449E-02
   0.1067357490836535E-02
   0.2705947469911254E-02
   0.2009685397985352E-02
   0.3331682250498744E-04
   0.8386111041052209E-01
   0.2833979523457191E-02
  -0.8468072783321940E-03
  -0.1276293403499404E-03
   0.1410968646797845E+00
   0.1236583580425636E+00
  -0.1228593849881111E-02
  -0.4382971856197427E-02
  -0.2801601735546264E-03
  -0.6478083409867962E-02
  -0.1893617823158888E-02
   0.1559599518419878E+00
   0.7528201546896912E-01
   0.2567710336343545E-01
   0.1661257821118251E+00