# vtk DataFile Version 2.0
FUN3D:global_image_vtk
ASCII
DATASET UNSTRUCTURED_GRID
POINTS 213 double
   -0.5474034791479813E-02    0.2504942076728992E+01    0.8150159399027681E-04
    0.1245419672959591E+01    0.2504942076728992E+01    0.1047277729471704E-03
    0.2497696577848839E+01    0.2504942076728992E+01    0.1110014622885641E-03
    0.3750591292531816E+01    0.2504942076728992E+01    0.1361998216059221E-03
    0.5003222305639440E+01    0.2504942076728992E+01    0.9710345422873593E-04
    0.5004677133222702E+01    0.1281292234626102E+01    0.1639225351491613E-03
    0.5004773639246594E+01    0.2775173908448856E-01    0.1910821770931608E-03
    0.5003582089737773E+01   -0.1225853078888782E+01    0.1617189504222013E-03
    0.5001953411348048E+01   -0.2496588976783356E+01    0.1090487764229120E-03
    0.3750349101294953E+01   -0.2496588976783356E+01    0.1460008005054494E-03
    0.2498611702424044E+01   -0.2496588976783356E+01    0.1009821411355215E-03
    0.1247175496632721E+01   -0.2496588976783356E+01    0.1112724912602214E-03
   -0.3383749369537953E-02   -0.2496588976783356E+01    0.8138799078189275E-04
   -0.4257368130220665E-02   -0.1225733816484489E+01    0.3495143506717268E-04
   -0.5250758842340434E-02    0.2619544496978931E-01    0.1049334725945922E-03
   -0.5676037539326676E-02    0.1278221945526992E+01    0.8256165600122597E-04
    0.9003215589602365E+00    0.1608979751742938E+01    0.8772925883107237E-04
    0.3983172550220766E+01   -0.1561211228563867E+01    0.1764035284144422E-03
    0.4035602434919056E+01    0.1486760979478153E+01    0.1722531803772464E-03
    0.1036614150179919E+01   -0.1455625621879872E+01    0.1056282748720346E-03
    0.1094353548258011E+01   -0.2964613435486003E+00    0.1264352964523109E-03
    0.7298406890792656E+00    0.6874692508675623E+00    0.1049285511396338E-03
    0.1617019060610020E+01    0.8553219512469192E+00    0.1531967691650307E-03
    0.2143200455099061E+01   -0.1627127781400796E+01    0.1606680274588256E-03
    0.4088841364403756E+01   -0.4351044105779334E+00    0.2721382244297130E-03
    0.2977917458254878E+01   -0.8334986102062707E+00    0.2247618513699504E-03
    0.3044093457651864E+01   -0.1814360830151587E+01    0.1623026668864034E-03
    0.3427866976848817E+01    0.3813906796016652E+00    0.2942746620253757E-03
    0.4313226140670545E+01    0.5489141099514474E+00    0.2315169160803521E-03
    0.1823033630301312E+01    0.1771266266707696E+01    0.1839668676665383E-03
    0.2806311221746753E+01    0.1358629805466062E+01    0.1953827602410102E-03
    0.1891861776913194E+01   -0.8481301166731644E+00    0.1679010941653158E-03
    0.2268770140783121E+01    0.7723713258746442E-01    0.2074544044361200E-03
    0.5000000000000000E+01    0.2504942076728992E+01    0.1250000000000000E+01
    0.5000000000000000E+01    0.2504942076728992E+01    0.2500000000000000E+01
    0.5000000000000000E+01    0.2504942076728992E+01    0.3750000000000000E+01
    0.5000000000000000E+01    0.2504942076728992E+01    0.5000000000000000E+01
    0.3750000000000000E+01    0.2504942076728992E+01    0.5000000000000000E+01
    0.2500000000000000E+01    0.2504942076728992E+01    0.5000000000000000E+01
    0.1250000000000000E+01    0.2504942076728992E+01    0.5000000000000000E+01
    0.0000000000000000E+00    0.2504942076728992E+01    0.5000000000000000E+01
    0.0000000000000000E+00    0.2504942076728992E+01    0.3750000000000000E+01
    0.0000000000000000E+00    0.2504942076728992E+01    0.2500000000000000E+01
    0.0000000000000000E+00    0.2504942076728992E+01    0.1250000000000000E+01
    0.9588960109950324E+00    0.2504942076728992E+01    0.9696534358518428E+00
    0.3981953135987070E+01    0.2504942076728992E+01    0.4070563977153090E+01
    0.4036122603048257E+01    0.2504942076728992E+01    0.1017568077737450E+01
    0.9637572680007634E+00    0.2504942076728992E+01    0.3973598317790697E+01
    0.1546540199868994E+01    0.2504942076728992E+01    0.2931570534639772E+01
    0.6973799501976604E+00    0.2504942076728992E+01    0.3070320151581353E+01
    0.8903742721114463E+00    0.2504942076728992E+01    0.2056562668050395E+01
    0.2183042025106090E+01    0.2504942076728992E+01    0.3960694642612455E+01
    0.3855845009130144E+01    0.2504942076728992E+01    0.2933250881705245E+01
    0.3152611453431021E+01    0.2504942076728992E+01    0.3637668634452495E+01
    0.3103307426069629E+01    0.2504942076728992E+01    0.4332607938454372E+01
    0.3266711307513308E+01    0.2504942076728992E+01    0.1889657179902316E+01
    0.4232537751899896E+01    0.2504942076728992E+01    0.1918627312011273E+01
    0.1905522748341233E+01    0.2504942076728992E+01    0.7226299945004641E+00
    0.2879768099364311E+01    0.2504942076728992E+01    0.9080953672824156E+00
    0.2012711620229818E+01    0.2504942076728992E+01    0.1767083060146361E+01
    0.2669681613978136E+01    0.2504942076728992E+01    0.2853394753424857E+01
    0.5000000000000000E+01    0.1250000000000000E+01    0.5000000000000000E+01
    0.5000000000000000E+01    0.0000000000000000E+00    0.5000000000000000E+01
    0.5000000000000000E+01   -0.1250000000000000E+01    0.5000000000000000E+01
    0.5000000000000000E+01   -0.2496588976783356E+01    0.5000000000000000E+01
    0.5000000000000000E+01   -0.2496588976783356E+01    0.3750000000000000E+01
    0.5000000000000000E+01   -0.2496588976783356E+01    0.2500000000000000E+01
    0.5000000000000000E+01   -0.2496588976783356E+01    0.1250000000000000E+01
    0.5000000000000000E+01    0.1578994732800803E+01    0.9058375365086910E+00
    0.5000000000000000E+01   -0.1583989954232354E+01    0.3982050490726493E+01
    0.5000000000000000E+01    0.1453322699199022E+01    0.4033849428301197E+01
    0.5000000000000000E+01   -0.1479596339503735E+01    0.1040505887381675E+01
    0.5000000000000000E+01   -0.3227322616384110E+00    0.1099454400140349E+01
    0.5000000000000000E+01    0.6593508822075582E+00    0.7354504170366591E+00
    0.5000000000000000E+01    0.8256214013940779E+00    0.1622302608453282E+01
    0.5000000000000000E+01   -0.1650070333782557E+01    0.2145871574390382E+01
    0.5000000000000000E+01   -0.4612828702537229E+00    0.4086422318222992E+01
    0.5000000000000000E+01   -0.8579242121530853E+00    0.2979540174134984E+01
    0.5000000000000000E+01   -0.1836846154397680E+01    0.3045064261640043E+01
    0.5000000000000000E+01    0.3508002863614053E+00    0.3428197553792836E+01
    0.5000000000000000E+01    0.5185680230613409E+00    0.4309693860063405E+01
    0.5000000000000000E+01    0.1738996113203182E+01    0.1827272193562204E+01
    0.5000000000000000E+01    0.1325493893339706E+01    0.2808563282768077E+01
    0.5000000000000000E+01   -0.8731419609589618E+00    0.1895995683864404E+01
    0.5000000000000000E+01    0.4906150219227333E-01    0.2273179336307740E+01
    0.0000000000000000E+00    0.1250000000000000E+01    0.5000000000000000E+01
    0.0000000000000000E+00    0.0000000000000000E+00    0.5000000000000000E+01
    0.0000000000000000E+00   -0.1250000000000000E+01    0.5000000000000000E+01
    0.0000000000000000E+00   -0.2496588976783356E+01    0.5000000000000000E+01
    0.1250000000000000E+01   -0.2496588976783356E+01    0.5000000000000000E+01
    0.2500000000000000E+01   -0.2496588976783356E+01    0.5000000000000000E+01
    0.3750000000000000E+01   -0.2496588976783356E+01    0.5000000000000000E+01
    0.4042003247744892E+01    0.1558308132739014E+01    0.5000000000000000E+01
    0.9304122287900499E+00   -0.1548001304379777E+01    0.5000000000000000E+01
    0.1037243024609388E+01    0.1462892710085612E+01    0.5000000000000000E+01
    0.3946240828834967E+01   -0.1445243809615570E+01    0.5000000000000000E+01
    0.4092527262848217E+01   -0.3455338993778935E+00    0.5000000000000000E+01
    0.4293103109154542E+01    0.6277660831404320E+00    0.5000000000000000E+01
    0.3241512314643519E+01    0.7429886854239611E+00    0.5000000000000000E+01
    0.2844289952419609E+01   -0.1588117879734118E+01    0.5000000000000000E+01
    0.7159905765450471E+00   -0.6002320124191652E+00    0.5000000000000000E+01
    0.1754341919796891E+01   -0.7398147869923652E+00    0.5000000000000000E+01
    0.1870296826774691E+01   -0.1788622905643739E+01    0.5000000000000000E+01
    0.9220614901912976E+00    0.3083720183248586E+00    0.5000000000000000E+01
    0.3101523624086016E+01    0.1777901774806180E+01    0.5000000000000000E+01
    0.2192512063922564E+01    0.1576861561598471E+01    0.5000000000000000E+01
    0.2024793420196460E+01    0.4773861992750707E+00    0.5000000000000000E+01
    0.2990627757741975E+01   -0.4878110785814084E+00    0.5000000000000000E+01
    0.0000000000000000E+00   -0.2496588976783356E+01    0.1250000000000000E+01
    0.0000000000000000E+00   -0.2496588976783356E+01    0.2500000000000000E+01
    0.0000000000000000E+00   -0.2496588976783356E+01    0.3750000000000000E+01
    0.0000000000000000E+00    0.1558308132739014E+01    0.4042003247744892E+01
    0.0000000000000000E+00   -0.1548001304379777E+01    0.9304122287900499E+00
    0.0000000000000000E+00    0.1462892710085612E+01    0.1037243024609388E+01
    0.0000000000000000E+00   -0.1445243809615570E+01    0.3946240828834967E+01
    0.0000000000000000E+00   -0.3455338993778935E+00    0.4092527262848217E+01
    0.0000000000000000E+00    0.6277660831404320E+00    0.4293103109154542E+01
    0.0000000000000000E+00    0.7429886854239611E+00    0.3241512314643519E+01
    0.0000000000000000E+00   -0.1588117879734118E+01    0.2844289952419609E+01
    0.0000000000000000E+00   -0.6002320124191652E+00    0.7159905765450471E+00
    0.0000000000000000E+00   -0.7398147869923652E+00    0.1754341919796891E+01
    0.0000000000000000E+00   -0.1788622905643739E+01    0.1870296826774691E+01
    0.0000000000000000E+00    0.3083720183248586E+00    0.9220614901912976E+00
    0.0000000000000000E+00    0.1777901774806180E+01    0.3101523624086016E+01
    0.0000000000000000E+00    0.1576861561598471E+01    0.2192512063922564E+01
[...]
POINT_DATA 213
SCALARS rho double 1
LOOKUP_TABLE default
   0.1219599712818525E+01
   0.9221792832995516E+00
   0.9104477627143831E+00
   0.8966766477169226E+00
   0.7819486735944984E+00
   0.7116569428451220E+00
   0.6990712249866426E+00
   0.7029549212388190E+00
   0.7687357434802103E+00
   0.8895233800492166E+00
   0.8987464873429957E+00
   0.9249601352493485E+00
   0.1300246680980498E+01
   0.1348040468289626E+01
   0.1456336943522652E+01
   0.1286719624667394E+01
   0.9619641461120534E+00
   0.9047655535079765E+00
   0.8972299294590400E+00
   0.9249192640638247E+00
   0.9126331841334464E+00
   0.9866005974507441E+00
   0.8974309509944175E+00
   0.8999717636855430E+00
   0.9067476761848392E+00
   0.9112479028610226E+00
   0.8943867770586227E+00
   0.9125850774869180E+00
   0.8902528929480571E+00
   0.9018653544511532E+00
   0.9063597679047816E+00
   0.8623950835082129E+00
   0.9078065484610640E+00
   0.9506821800755171E+00
   0.1008490975777850E+01
   0.1006976757206741E+01
   0.1000145908310113E+01
   0.1000492869385669E+01
   0.1001010369079624E+01
   0.1002467256228077E+01
   0.1001944764884572E+01
   0.1004886096223448E+01
   0.1016625224586804E+01
   0.1058313563805637E+01
   0.1005436779864218E+01
   0.1000007368910164E+01
   0.9457700104719943E+00
   0.1002042270794869E+01
   0.9982829485934941E+00
   0.1004492521273241E+01
   0.1005371619450072E+01
   0.9993111974798617E+00
   0.9978002647438612E+00
   0.9988040165946025E+00
   0.9987211966516738E+00
   0.9780928813659224E+00
   0.9796705980230396E+00
   0.9639505108234464E+00
   0.9601301184700992E+00
   0.9867991782090045E+00
   0.9922400530659247E+00
   0.1000342976868243E+01
   0.1000541450764467E+01
   0.1000671133476174E+01
   0.9998284144102286E+00
   0.1009782296183917E+01
   0.1007174224570902E+01
   0.9448363487020748E+00
   0.9034576543099824E+00
   0.1007039898253642E+01
   0.1004193123681398E+01
   0.8965165749176266E+00
   0.8926680817041609E+00
   0.8470449879430583E+00
   0.9708429045034880E+00
   0.1000202434717451E+01
   0.1006091577658215E+01
   0.1015639762607131E+01
   0.1012987270994183E+01
   0.1012861697210465E+01
   0.1005118612084228E+01
   0.9863622567350098E+00
   0.1006593488128312E+01
   0.9849764804569078E+00
   0.1008140582362496E+01
   0.1001902606030071E+01
   0.1000777962322225E+01
   0.1001300677008285E+01
   0.1001842922238311E+01
   0.1002348925427160E+01
   0.1000286871639885E+01
   0.1000192915919053E+01
   0.9997755928146890E+00
   0.1001746393721562E+01
   0.1001907943482353E+01
   0.9986523993665831E+00
   0.9995364916724161E+00
   0.9999232353882643E+00
   0.1000198767697988E+01
   0.1000442942113097E+01
   0.1001058840659938E+01
   0.1001457791950211E+01
   0.1001331328361959E+01
   0.1001525817231521E+01
   0.1000861176969284E+01
   0.1001344304852648E+01
   0.1001108535047583E+01
   0.1000543854573353E+01
   0.1060180596364845E+01
   0.1020434849279887E+01
   0.1005937363837021E+01
   0.1003463832602714E+01
   0.1142067368440304E+01
   0.1083370535365401E+01
   0.1004378515025574E+01
   0.1003909100934292E+01
   0.1003789599966658E+01
   0.1006675427165740E+01
   0.1012240629033787E+01
   0.1193114677625578E+01
   0.1028000765973786E+01
   0.1034785370897717E+01
   0.1169417028593619E+01
   0.1009874385156861E+01
   0.1023546147067333E+01
   0.1017121949709493E+01
   0.1007875010183166E+01
   0.1013904360025929E+01
   0.1000120422478299E+01
   0.9442368006056943E+00
   0.1003512212576096E+01
   0.9988676268203168E+00
   0.1006433375215214E+01
   0.1009136813903341E+01
   0.9979418435757632E+00
   0.9977846872030017E+00
   0.9961676263288463E+00
   0.9984778183076543E+00
   0.9810175534654798E+00
   0.9780877677711446E+00
   0.9479693367039798E+00
   0.9505424568269790E+00
   0.9877990099467174E+00
   0.9899199158593319E+00
   0.9925444403636436E+00
   0.9998150176119526E+00
   0.9986044262414124E+00
   0.9946495981665406E+00
   0.1006783292526417E+01
   0.1021195775125558E+01
   0.9979991552433273E+00
   0.1004785935120716E+01
   0.1001443252703518E+01
   0.1004870014603243E+01
   0.9952898799869139E+00
   0.9853956885502807E+00
   0.1000226007683839E+01
   0.9938930133782407E+00
   0.9819631288275568E+00
   0.9943515146611677E+00
   0.9968775175742082E+00
   0.9937161351547091E+00
   0.9987031097977848E+00
   0.1000033243926456E+01
   0.9996686276847995E+00
   0.9958480479372074E+00
   0.9933618088763385E+00
   0.1001379812973373E+01
   0.1018342563188519E+01
   0.1002761163440609E+01
   0.9806466783113956E+00
   0.1001874256941364E+01
   0.1008205815566401E+01
   0.9702346434235338E+00
   0.9431324184792367E+00
   0.9846786476090847E+00
   0.9843645636074349E+00
   0.9754697010228969E+00
   0.9908380455669918E+00
   0.9779133613798271E+00
   0.1033958394535665E+01
   0.1021656811883390E+01
   0.1000033005886560E+01
   0.9991734281002399E+00
   0.9919055450426457E+00
   0.9907248631555854E+00
   0.9574014733881795E+00
   0.9930506973746316E+00
   0.1006289132645700E+01
   0.1002044039418139E+01
   0.9896477971657354E+00
   0.9652799653761734E+00
   0.9203406678615278E+00
   0.9724368565346866E+00
   0.9781837182522504E+00
   0.9559726931572354E+00
   0.9617646129699828E+00
   0.9490309972131064E+00
   0.9366912452852569E+00
   0.9303105054442389E+00
   0.9992919149150519E+00
   0.9994619488060573E+00
   0.9988025062925453E+00
   0.1002017074940509E+01
   0.9391477801946436E+00
   0.9239055049214291E+00
   0.9359217905618556E+00
   0.9984137908289333E+00
   0.9983444566186553E+00
   0.1000450520220681E+01
   0.9793848606848712E+00
   0.9713545790019535E+00
   0.9447096770826856E+00
SCALARS u double 1
LOOKUP_TABLE default
   0.0000000000000000E+00
   0.0000000000000000E+00
   0.0000000000000000E+00
   0.0000000000000000E+00
   0.0000000000000000E+00
   0.0000000000000000E+00
   0.0000000000000000E+00
   0.0000000000000000E+00
   0.0000000000000000E+00
   0.0000000000000000E+00
   0.0000000000000000E+00
   0.0000000000000000E+00
   0.0000000000000000E+00
   0.0000000000000000E+00
   0.0000000000000000E+00
   0.0000000000000000E+00
   0.0000000000000000E+00
   0.0000000000000000E+00
   0.0000000000000000E+00
   0.0000000000000000E+00
   0.0000000000000000E+00
   0.0000000000000000E+00
   0.0000000000000000E+00
   0.0000000000000000E+00
   0.0000000000000000E+00
   0.0000000000000000E+00
   0.0000000000000000E+00
   0.0000000000000000E+00
   0.0000000000000000E+00
   0.0000000000000000E+00
   0.0000000000000000E+00
   0.0000000000000000E+00
   0.0000000000000000E+00
   0.5044656938437528E+00
   0.5290124948644406E+00
   0.5144832556289989E+00
   0.4932265012379234E+00
   0.4881034990906981E+00
   0.4912132730866602E+00
   0.4932012168381049E+00
   0.4982359626543840E+00
   0.4935755436649150E+00
   0.4788817927601371E+00
   0.4518340637836405E+00
   0.4750762131368609E+00
   0.5097783965564909E+00
   0.4511935815414592E+00
   0.4980813360440548E+00
   0.5232695112839755E+00
   0.4995198830923158E+00
   0.5239976456647860E+00
   0.5062462091806017E+00
   0.5621720046515374E+00
   0.5246973072875171E+00
   0.5014415326702787E+00
   0.5724415330737654E+00
   0.5707004935736411E+00
   0.3697808181140026E+00
   0.4030359279377750E+00
   0.5559039041153963E+00
   0.5550071670638724E+00
   0.4941866653650080E+00
   0.4946225569949242E+00
   0.4922550882914111E+00
   0.4916952773019383E+00
   0.5126203585718555E+00
   0.5320037652688848E+00
   0.5051851677359362E+00
   0.4700274019343742E+00
   0.5096958254035934E+00
   0.5089633484857932E+00
   0.4955096633399364E+00
   0.5091188933661320E+00
   0.4859970980802179E+00
   0.5290197187281614E+00
   0.5276939172445274E+00
   0.5095384239385697E+00
   0.5265023509448370E+00
   0.5255836653714773E+00
   0.5249264200969570E+00
   0.5039105651745638E+00
   0.5284460091171449E+00
   0.5353830958936722E+00
   0.5371546735544731E+00
   0.5324039249181594E+00
   0.4987533161228795E+00
   0.4995693379137637E+00
   0.4985678155695431E+00
   0.4978564033214045E+00
   0.4945363834078920E+00
   0.4946354248784330E+00
   0.4894932193388896E+00
   0.4881854169492587E+00
   0.4965709386922166E+00
   0.4946579515667789E+00
   0.4860622938587689E+00
   0.4896816119118461E+00
   0.4900401245890529E+00
   0.4911767761943793E+00
   0.4926166643507336E+00
   0.4981835104640993E+00
   0.4946289678695555E+00
   0.4948395004951331E+00
   0.4976378115609980E+00
   0.4907933185893008E+00
   0.4936012167800369E+00
   0.4927628958228313E+00
   0.4920514969488721E+00
   0.4513309627801990E+00
   0.4773809661533351E+00
   0.4929577625650312E+00
   0.4922016487753300E+00
   0.4645164887312616E+00
   0.4729120313208900E+00
   0.4915211081192989E+00
   0.4906742011078764E+00
   0.4940153742188924E+00
   0.4854929993653783E+00
   0.4731445582701747E+00
   0.4017686074074406E+00
   0.4925810908035875E+00
   0.4586089467462277E+00
   0.4595049853269513E+00
   0.4895104458843191E+00
   0.4701583360340064E+00
   0.4742234951875785E+00
   0.4816343309530709E+00
   0.4809631602307629E+00
   0.5081955779508698E+00
   0.4436620298346652E+00
   0.4960916964028230E+00
   0.5314783269488629E+00
   0.4949806856429079E+00
   0.5219301808718981E+00
   0.5081293804456982E+00
   0.5664001417263649E+00
   0.5269142149555270E+00
   0.5035387176342732E+00
   0.5834534697881304E+00
   0.5720240214771584E+00
   0.3408858514692414E+00
   0.3851957647937879E+00
   0.5717594621389968E+00
   0.5645095535620392E+00
   0.5689243461912097E+00
   0.5291696228971823E+00
   0.5449155525493468E+00
   0.5701879785954173E+00
   0.5404097124352982E+00
   0.5487779070387212E+00
   0.5790107864847527E+00
   0.4955235677525259E+00
   0.5064965455311580E+00
   0.4994484962064406E+00
   0.5533092491555184E+00
   0.4597902246813561E+00
   0.4983751317507935E+00
   0.5489762751089707E+00
   0.5894376617956250E+00
   0.5821700617234984E+00
   0.5457059726149249E+00
   0.5785146348270245E+00
   0.5122043810814184E+00
   0.5055088151166676E+00
   0.5048980661466193E+00
   0.5645297342996826E+00
   0.5552265301454764E+00
   0.4977583751844930E+00
   0.5488208984771767E+00
   0.5486892184110589E+00
   0.5643387255684177E+00
   0.4955121581776328E+00
   0.4958798402361226E+00
   0.3908414490566735E+00
   0.3725909795085759E+00
   0.5584900318815086E+00
   0.5739392599661792E+00
   0.4177438664163445E+00
   0.5813083142180362E+00
   0.4186000228110919E+00
   0.5391903623793577E+00
   0.4993239567464123E+00
   0.5113858551099087E+00
   0.5070194975308440E+00
   0.5732639583218642E+00
   0.5857708790265327E+00
   0.5448205549210449E+00
   0.5657062668956473E+00
   0.5320308366547442E+00
   0.5310303216410781E+00
   0.5561915504959785E+00
   0.5552162348083988E+00
   0.4401002532412623E+00
   0.5282987917847228E+00
   0.5807279545461529E+00
   0.3397137593001580E+00
   0.4812260866903746E+00
   0.5510167758532463E+00
   0.4924432220177860E+00
   0.3108743810017561E+00
   0.5051822039546185E+00
   0.5043571346126348E+00
   0.5129608661844434E+00
   0.5385848654049045E+00
   0.3519686234712481E+00
   0.3560462333120315E+00
   0.3308149830791556E+00
   0.5084554545668171E+00
   0.5125571345812657E+00
   0.5314307662336046E+00
   0.5857978421729880E+00
   0.4640824797037339E+00
   0.3627235470253704E+00
SCALARS v double 1
LOOKUP_TABLE default
   0.0000000000000000E+00
   0.0000000000000000E+00
   0.0000000000000000E+00
   0.0000000000000000E+00
   0.0000000000000000E+00
   0.0000000000000000E+00
   0.0000000000000000E+00
   0.0000000000000000E+00
   0.0000000000000000E+00
   0.0000000000000000E+00
   0.0000000000000000E+00
   0.0000000000000000E+00
   0.0000000000000000E+00
   0.0000000000000000E+00
   0.0000000000000000E+00
   0.0000000000000000E+00
   0.0000000000000000E+00
   0.0000000000000000E+00
   0.0000000000000000E+00
   0.0000000000000000E+00
   0.0000000000000000E+00
   0.0000000000000000E+00
   0.0000000000000000E+00
   0.0000000000000000E+00
   0.0000000000000000E+00
   0.0000000000000000E+00
   0.0000000000000000E+00
   0.0000000000000000E+00
   0.0000000000000000E+00
   0.0000000000000000E+00
   0.0000000000000000E+00
   0.0000000000000000E+00
   0.0000000000000000E+00
   0.0000000000000000E+00
   0.0000000000000000E+00
   0.0000000000000000E+00
   0.0000000000000000E+00
   0.0000000000000000E+00
   0.0000000000000000E+00
   0.0000000000000000E+00
   0.0000000000000000E+00
   0.0000000000000000E+00
   0.0000000000000000E+00
   0.0000000000000000E+00
   0.0000000000000000E+00
   0.0000000000000000E+00
   0.0000000000000000E+00
   0.0000000000000000E+00
   0.0000000000000000E+00
   0.0000000000000000E+00
   0.0000000000000000E+00
   0.0000000000000000E+00
   0.0000000000000000E+00
   0.0000000000000000E+00
   0.0000000000000000E+00
   0.0000000000000000E+00
   0.0000000000000000E+00
   0.0000000000000000E+00
   0.0000000000000000E+00
   0.0000000000000000E+00
   0.0000000000000000E+00
   0.6334733416911816E-03
  -0.1412096630681521E-02
  -0.1391679683300169E-02
   0.0000000000000000E+00
   0.0000000000000000E+00
   0.0000000000000000E+00
   0.0000000000000000E+00
  -0.1867970489850523E-01
   0.2777590393497477E-03
   0.2206623495132101E-02
   0.1490282580939807E-01
  -0.5368506159175479E-02
  -0.6641907121391883E-02
  -0.1142203658667733E-01
   0.4788845527662062E-02
   0.5372030127127641E-03
   0.3195643765565724E-02
   0.1530305711656520E-02
   0.3473823195368657E-02
   0.1704919969024380E-02
  -0.6356057666174895E-02
   0.7681896072447102E-03
   0.4869172570120137E-02
   0.6122153439452890E-03
   0.6959002676993988E-04
  -0.1767233809010117E-03
   0.6082835719905874E-03
   0.0000000000000000E+00
   0.0000000000000000E+00
   0.0000000000000000E+00
   0.0000000000000000E+00
   0.1212950287577210E-03
   0.1423634517653821E-02
  -0.1108798850109690E-02
  -0.9188902557789208E-03
  -0.2101542158102835E-02
  -0.1220494518184352E-02
  -0.8986436528323302E-03
  -0.6448398199764847E-03
  -0.2472733698168577E-04
  -0.5341985528048493E-03
   0.7240124463600772E-03
  -0.1570798838698667E-02
   0.1025661883849285E-03
  -0.1214697296457539E-03
  -0.8743256616887575E-03
  -0.8885242239088507E-03
   0.0000000000000000E+00
   0.0000000000000000E+00
   0.0000000000000000E+00
  -0.1091309718922290E-02
  -0.8502788447769419E-02
   0.1568983463116863E-01
   0.2148696326340825E-03
  -0.1053392837474918E-02
  -0.1673613892913820E-02
  -0.5281082864599131E-02
  -0.1235962547480569E-02
  -0.3701167381171087E-02
  -0.3032629598035258E-02
   0.2127159605424920E-02
   0.2880597780404285E-01
  -0.1724503571420484E-03
  -0.4260470679885675E-02
   0.2498502679548840E-02
   0.9550982834099844E-03
   0.0000000000000000E+00
   0.0000000000000000E+00
   0.0000000000000000E+00
   0.0000000000000000E+00
   0.0000000000000000E+00
   0.0000000000000000E+00
   0.0000000000000000E+00
   0.0000000000000000E+00
   0.0000000000000000E+00
   0.0000000000000000E+00
   0.0000000000000000E+00
   0.0000000000000000E+00
   0.0000000000000000E+00
   0.0000000000000000E+00
   0.0000000000000000E+00
   0.0000000000000000E+00
   0.0000000000000000E+00
   0.4670198740702869E-02
   0.2763280451772892E-02
   0.6893735669432944E-02
   0.5630437147415332E-02
   0.8687042094542749E-02
   0.1244112627245348E-01
   0.4866756812228229E-03
   0.4364177807632922E-02
   0.2406601862583297E-02
   0.2332206573588544E-02
   0.3176364772562146E-02
  -0.1059582458185462E-01
  -0.4893813273166162E-03
   0.6038346306645893E-02
   0.2600391484697278E-02
   0.2269794358121974E-02
   0.3837924265311946E-02
  -0.2020248216075401E-02
   0.9170006963997874E-03
   0.2371044342788845E-02
   0.1154923142598770E-02
   0.2686139316894904E-02
   0.1739855847628205E-02
   0.1798801385128373E-02
   0.8007128198098526E-02
  -0.3375968822305391E-02
   0.5470403675370480E-02
   0.6506725438514806E-04
  -0.3120584000013408E-04
  -0.1328425313458271E-01
  -0.3290595684026902E-02
  -0.3547667858271627E-02
   0.3675145244569281E-02
  -0.3988159020698935E-02
   0.8943781100554460E-03
  -0.2587597982311671E-01
  -0.3070935013024183E-02
   0.4167740202985928E-02
   0.7177119214449977E-03
   0.1825203241647318E-02
   0.4437754089241411E-02
   0.2300338676540443E-02
   0.3389545381318405E-02
   0.5068279996035621E-02
   0.1856653019425153E-02
   0.5820240732086975E-03
  -0.3347033097891668E-03
  -0.4621565949956510E-02
  -0.5498318043899392E-02
   0.4519086357372951E-03
   0.9429376788808255E-03
  -0.7332972506386241E-03
  -0.3869847705377202E-02
  -0.1215941319585123E-02
  -0.3656395394764747E-02
  -0.6898469069634602E-02
  -0.1708645351994840E-02
   0.5357639482557215E-03
  -0.3546497895327371E-03
   0.1111770971610864E-02
  -0.1832540212554589E-02
   0.6956214263136580E-02
  -0.9774593479844884E-02
  -0.1544600638837127E-04
  -0.4080103473704875E-03
   0.2409198728725884E-02
   0.1123360623319096E-02
   0.1298599435146831E-02
  -0.3828976926027060E-02
SCALARS w double 1
LOOKUP_TABLE default
   0.0000000000000000E+00
   0.0000000000000000E+00
   0.0000000000000000E+00
   0.0000000000000000E+00
   0.0000000000000000E+00
   0.0000000000000000E+00
   0.0000000000000000E+00
   0.0000000000000000E+00
   0.0000000000000000E+00
   0.0000000000000000E+00
   0.0000000000000000E+00
   0.0000000000000000E+00
   0.0000000000000000E+00
   0.0000000000000000E+00
   0.0000000000000000E+00
   0.0000000000000000E+00
   0.0000000000000000E+00
   0.0000000000000000E+00
   0.0000000000000000E+00
   0.0000000000000000E+00
   0.0000000000000000E+00
   0.0000000000000000E+00
   0.0000000000000000E+00
   0.0000000000000000E+00
   0.0000000000000000E+00
   0.0000000000000000E+00
   0.0000000000000000E+00
   0.0000000000000000E+00
   0.0000000000000000E+00
   0.0000000000000000E+00
   0.0000000000000000E+00
   0.0000000000000000E+00
   0.0000000000000000E+00
  -0.1144741172882678E+00
  -0.5028454141930208E-01
  -0.2218638285296045E-02
   0.5066013584579808E-02
  -0.6957799006491375E-03
  -0.6076397771839162E-03
   0.5805993520790607E-03
   0.1144806987446674E-02
   0.2440775287426243E-03
   0.3422555423691578E-02
   0.3884463532096608E-01
   0.5360740156321890E-01
  -0.1493569539637973E-02
  -0.2790737426711072E-01
   0.2079826678231947E-02
   0.1059655382257683E-01
   0.8042752925519276E-02
   0.4393891341614729E-01
  -0.4043428187480525E-03
  -0.1058030922560655E-01
  -0.3671501971683978E-02
  -0.2102262688926617E-02
   0.4819991205579754E-03
  -0.4609515224145976E-01
   0.1623620302722782E-01
   0.1240679250345673E-01
   0.2994630180478649E-01
   0.5073346919941647E-02
   0.4321078621970968E-02
   0.4383198536367284E-02
   0.4018274490098601E-02
   0.5466032705251847E-02
  -0.1704836245414983E-03
  -0.4834020110346721E-01
  -0.1122167686907771E+00
  -0.1279823939356127E+00
   0.2784423775157540E-02
   0.1930922445851835E-02
  -0.1150880133585440E+00
  -0.1133078925251749E+00
  -0.1132666702113304E+00
  -0.1072902282299966E+00
  -0.7748703173135882E-01
   0.3027733769472036E-02
  -0.2451873524741841E-01
  -0.2041359715764501E-01
  -0.9927799586119250E-02
   0.5241307057038506E-02
  -0.9129647714182211E-01
  -0.3406072901470367E-01
  -0.9180577690720798E-01
  -0.6776876376425513E-01
   0.1807789751107449E-02
   0.1559385199117685E-02
   0.1426787264299284E-02
   0.2118644853770418E-02
   0.1358294126116631E-02
  -0.1241619355353520E-02
  -0.1475157013536636E-02
   0.1114706563203966E-02
   0.2218158316079946E-02
   0.1202566833674393E-02
  -0.7055971207186870E-04
   0.1919581338828752E-03
   0.8213703986302573E-03
  -0.1576102801875004E-02
  -0.1943015408776516E-02
   0.1965356395438305E-02
  -0.4390829705403749E-04
  -0.4390423228903191E-03
   0.2228746214596302E-02
  -0.1071759010417484E-02
  -0.2024437296115683E-03
  -0.4923298294480493E-03
  -0.1804014596085770E-02
   0.6879536060575399E-01
   0.2330704245499552E-02
  -0.1105207171161547E-02
  -0.7920415567894916E-03
   0.1156184558627882E+00
   0.1039170667413026E+00
  -0.1771017080334176E-02
  -0.4421114084619678E-02
  -0.7493444358973567E-03
  -0.7086035344675684E-02
  -0.2645570957405044E-02
   0.1269923183597506E+00
   0.6360345844089493E-01
   0.2237140111657977E-01
   0.1353417673424446E+00