# vtk DataFile Version 2.0
FUN3D:global_image_vtk
ASCII
DATASET UNSTRUCTURED_GRID
POINTS 213 double
   -0.5474034791479813E-02    0.2504942076728992E+01    0.8150159399027681E-04
    0.1245419672959591E+01    0.2504942076728992E+01    0.1047277729471704E-03
    0.2497696577848839E+01    0.2504942076728992E+01    0.1110014622885641E-03
    0.3750591292531816E+01    0.2504942076728992E+01    0.1361998216059221E-03
    0.5003222305639440E+01    0.2504942076728992E+01    0.9710345422873593E-04
    0.5004677133222702E+01    0.1281292234626102E+01    0.1639225351491613E-03
    0.5004773639246594E+01    0.2775173908448856E-01    0.1910821770931608E-03
    0.5003582089737773E+01   -0.1225853078888782E+01    0.1617189504222013E-03
    0.5001953411348048E+01   -0.2496588976783356E+01    0.1090487764229120E-03
    0.3750349101294953E+01   -0.2496588976783356E+01    0.1460008005054494E-03
    0.2498611702424044E+01   -0.2496588976783356E+01    0.1009821411355215E-03
    0.1247175496632721E+01   -0.2496588976783356E+01    0.1112724912602214E-03
   -0.3383749369537953E-02   -0.2496588976783356E+01    0.8138799078189275E-04
   -0.4257368130220665E-02   -0.1225733816484489E+01    0.3495143506717268E-04
   -0.5250758842340434E-02    0.2619544496978931E-01    0.1049334725945922E-03
   -0.5676037539326676E-02    0.1278221945526992E+01    0.8256165600122597E-04
    0.9003215589602365E+00    0.1608979751742938E+01    0.8772925883107237E-04
    0.3983172550220766E+01   -0.1561211228563867E+01    0.1764035284144422E-03
    0.4035602434919056E+01    0.1486760979478153E+01    0.1722531803772464E-03
    0.1036614150179919E+01   -0.1455625621879872E+01    0.1056282748720346E-03
    0.1094353548258011E+01   -0.2964613435486003E+00    0.1264352964523109E-03
    0.7298406890792656E+00    0.6874692508675623E+00    0.1049285511396338E-03
    0.1617019060610020E+01    0.8553219512469192E+00    0.1531967691650307E-03
    0.2143200455099061E+01   -0.1627127781400796E+01    0.1606680274588256E-03
    0.4088841364403756E+01   -0.4351044105779334E+00    0.2721382244297130E-03
    0.2977917458254878E+01   -0.8334986102062707E+00    0.2247618513699504E-03
    0.3044093457651864E+01   -0.1814360830151587E+01    0.1623026668864034E-03
    0.3427866976848817E+01    0.3813906796016652E+00    0.2942746620253757E-03
    0.4313226140670545E+01    0.5489141099514474E+00    0.2315169160803521E-03
    0.1823033630301312E+01    0.1771266266707696E+01    0.1839668676665383E-03
    0.2806311221746753E+01    0.1358629805466062E+01    0.1953827602410102E-03
    0.1891861776913194E+01   -0.8481301166731644E+00    0.1679010941653158E-03
    0.2268770140783121E+01    0.7723713258746442E-01    0.2074544044361200E-03
    0.5000000000000000E+01    0.2504942076728992E+01    0.1250000000000000E+01
    0.5000000000000000E+01    0.2504942076728992E+01    0.2500000000000000E+01
    0.5000000000000000E+01    0.2504942076728992E+01    0.3750000000000000E+01
    0.5000000000000000E+01    0.2504942076728992E+01    0.5000000000000000E+01
    0.3750000000000000E+01    0.2504942076728992E+01    0.5000000000000000E+01
    0.2500000000000000E+01    0.2504942076728992E+01    0.5000000000000000E+01
    0.1250000000000000E+01    0.2504942076728992E+01    0.5000000000000000E+01
    0.0000000000000000E+00    0.2504942076728992E+01    0.5000000000000000E+01
    0.0000000000000000E+00    0.2504942076728992E+01    0.3750000000000000E+01
    0.0000000000000000E+00    0.2504942076728992E+01    0.2500000000000000E+01
    0.0000000000000000E+00    0.2504942076728992E+01    0.1250000000000000E+01
    0.9588960109950324E+00    0.2504942076728992E+01    0.9696534358518428E+00
    0.3981953135987070E+01    0.2504942076728992E+01    0.4070563977153090E+01
    0.4036122603048257E+01    0.2504942076728992E+01    0.1017568077737450E+01
    0.9637572680007634E+00    0.2504942076728992E+01    0.3973598317790697E+01
    0.1546540199868994E+01    0.2504942076728992E+01    0.2931570534639772E+01
    0.6973799501976604E+00    0.2504942076728992E+01    0.3070320151581353E+01
    0.8903742721114463E+00    0.2504942076728992E+01    0.2056562668050395E+01
    0.2183042025106090E+01    0.2504942076728992E+01    0.3960694642612455E+01
    0.3855845009130144E+01    0.2504942076728992E+01    0.2933250881705245E+01
    0.3152611453431021E+01    0.2504942076728992E+01    0.3637668634452495E+01
    0.3103307426069629E+01    0.2504942076728992E+01    0.4332607938454372E+01
    0.3266711307513308E+01    0.2504942076728992E+01    0.1889657179902316E+01
    0.4232537751899896E+01    0.2504942076728992E+01    0.1918627312011273E+01
    0.1905522748341233E+01    0.2504942076728992E+01    0.7226299945004641E+00
    0.2879768099364311E+01    0.2504942076728992E+01    0.9080953672824156E+00
    0.2012711620229818E+01    0.2504942076728992E+01    0.1767083060146361E+01
    0.2669681613978136E+01    0.2504942076728992E+01    0.2853394753424857E+01
    0.5000000000000000E+01    0.1250000000000000E+01    0.5000000000000000E+01
    0.5000000000000000E+01    0.0000000000000000E+00    0.5000000000000000E+01
    0.5000000000000000E+01   -0.1250000000000000E+01    0.5000000000000000E+01
    0.5000000000000000E+01   -0.2496588976783356E+01    0.5000000000000000E+01
    0.5000000000000000E+01   -0.2496588976783356E+01    0.3750000000000000E+01
    0.5000000000000000E+01   -0.2496588976783356E+01    0.2500000000000000E+01
    0.5000000000000000E+01   -0.2496588976783356E+01    0.1250000000000000E+01
    0.5000000000000000E+01    0.1578994732800803E+01    0.9058375365086910E+00
    0.5000000000000000E+01   -0.1583989954232354E+01    0.3982050490726493E+01
    0.5000000000000000E+01    0.1453322699199022E+01    0.4033849428301197E+01
    0.5000000000000000E+01   -0.1479596339503735E+01    0.1040505887381675E+01
    0.5000000000000000E+01   -0.3227322616384110E+00    0.1099454400140349E+01
    0.5000000000000000E+01    0.6593508822075582E+00    0.7354504170366591E+00
    0.5000000000000000E+01    0.8256214013940779E+00    0.1622302608453282E+01
    0.5000000000000000E+01   -0.1650070333782557E+01    0.2145871574390382E+01
    0.5000000000000000E+01   -0.4612828702537229E+00    0.4086422318222992E+01
    0.5000000000000000E+01   -0.8579242121530853E+00    0.2979540174134984E+01
    0.5000000000000000E+01   -0.1836846154397680E+01    0.3045064261640043E+01
    0.5000000000000000E+01    0.3508002863614053E+00    0.3428197553792836E+01
    0.5000000000000000E+01    0.5185680230613409E+00    0.4309693860063405E+01
    0.5000000000000000E+01    0.1738996113203182E+01    0.1827272193562204E+01
    0.5000000000000000E+01    0.1325493893339706E+01    0.2808563282768077E+01
    0.5000000000000000E+01   -0.8731419609589618E+00    0.1895995683864404E+01
    0.5000000000000000E+01    0.4906150219227333E-01    0.2273179336307740E+01
    0.0000000000000000E+00    0.1250000000000000E+01    0.5000000000000000E+01
    0.0000000000000000E+00    0.0000000000000000E+00    0.5000000000000000E+01
    0.0000000000000000E+00   -0.1250000000000000E+01    0.5000000000000000E+01
    0.0000000000000000E+00   -0.2496588976783356E+01    0.5000000000000000E+01
    0.1250000000000000E+01   -0.2496588976783356E+01    0.5000000000000000E+01
    0.2500000000000000E+01   -0.2496588976783356E+01    0.5000000000000000E+01
    0.3750000000000000E+01   -0.2496588976783356E+01    0.5000000000000000E+01
    0.4042003247744892E+01    0.1558308132739014E+01    0.5000000000000000E+01
    0.9304122287900499E+00   -0.1548001304379777E+01    0.5000000000000000E+01
    0.1037243024609388E+01    0.1462892710085612E+01    0.5000000000000000E+01
    0.3946240828834967E+01   -0.1445243809615570E+01    0.5000000000000000E+01
    0.4092527262848217E+01   -0.3455338993778935E+00    0.5000000000000000E+01
    0.4293103109154542E+01    0.6277660831404320E+00    0.5000000000000000E+01
    0.3241512314643519E+01    0.7429886854239611E+00    0.5000000000000000E+01
    0.2844289952419609E+01   -0.1588117879734118E+01    0.5000000000000000E+01
    0.7159905765450471E+00   -0.6002320124191652E+00    0.5000000000000000E+01
    0.1754341919796891E+01   -0.7398147869923652E+00    0.5000000000000000E+01
    0.1870296826774691E+01   -0.1788622905643739E+01    0.5000000000000000E+01
    0.9220614901912976E+00    0.3083720183248586E+00    0.5000000000000000E+01
    0.3101523624086016E+01    0.1777901774806180E+01    0.5000000000000000E+01
    0.2192512063922564E+01    0.1576861561598471E+01    0.5000000000000000E+01
    0.2024793420196460E+01    0.4773861992750707E+00    0.5000000000000000E+01
    0.2990627757741975E+01   -0.4878110785814084E+00    0.5000000000000000E+01
    0.0000000000000000E+00   -0.2496588976783356E+01    0.1250000000000000E+01
    0.0000000000000000E+00   -0.2496588976783356E+01    0.2500000000000000E+01
    0.0000000000000000E+00   -0.2496588976783356E+01    0.3750000000000000E+01
    0.0000000000000000E+00    0.1558308132739014E+01    0.4042003247744892E+01
    0.0000000000000000E+00   -0.1548001304379777E+01    0.9304122287900499E+00
    0.0000000000000000E+00    0.1462892710085612E+01    0.1037243024609388E+01
    0.0000000000000000E+00   -0.1445243809615570E+01    0.3946240828834967E+01
    0.0000000000000000E+00   -0.3455338993778935E+00    0.4092527262848217E+01
    0.0000000000000000E+00    0.6277660831404320E+00    0.4293103109154542E+01
    0.0000000000000000E+00    0.7429886854239611E+00    0.3241512314643519E+01
    0.0000000000000000E+00   -0.1588117879734118E+01    0.2844289952419609E+01
    0.0000000000000000E+00   -0.6002320124191652E+00    0.7159905765450471E+00
    0.0000000000000000E+00   -0.7398147869923652E+00    0.1754341919796891E+01
    0.0000000000000000E+00   -0.1788622905643739E+01    0.1870296826774691E+01
    0.0000000000000000E+00    0.3083720183248586E+00    0.9220614901912976E+00
    0.0000000000000000E+00    0.1777901774806180E+01    0.3101523624086016E+01
    0.0000000000000000E+00    0.1576861561598471E+01    0.2192512063922564E+01
[...]
POINT_DATA 213
SCALARS rho double 1
LOOKUP_TABLE default
   0.1219599712818757E+01
   0.9221792832996863E+00
   0.9104477627139834E+00
   0.8966766477144719E+00
   0.7819486735911001E+00
   0.7116569428449636E+00
   0.6990712249867975E+00
   0.7029549212389029E+00
   0.7687357434799131E+00
   0.8895233800490757E+00
   0.8987464873429974E+00
   0.9249601352491117E+00
   0.1300246680980022E+01
   0.1348040468289642E+01
   0.1456336943522474E+01
   0.1286719624667595E+01
   0.9619641461121545E+00
   0.9047655535080168E+00
   0.8972299294571674E+00
   0.9249192640634645E+00
   0.9126331841335427E+00
   0.9866005974509187E+00
   0.8974309509943741E+00
   0.8999717636855034E+00
   0.9067476761850519E+00
   0.9112479028609987E+00
   0.8943867770585850E+00
   0.9125850774866749E+00
   0.8902528929483972E+00
   0.9018653544510868E+00
   0.9063597679039567E+00
   0.8623950835081904E+00
   0.9078065484611088E+00
   0.9506821800661609E+00
   0.1008490975778399E+01
   0.1006976757207097E+01
   0.1000145908309552E+01
   0.1000492869385522E+01
   0.1001010369079842E+01
   0.1002467256228146E+01
   0.1001944764884608E+01
   0.1004886096223567E+01
   0.1016625224586824E+01
   0.1058313563805652E+01
   0.1005436779864278E+01
   0.1000007368910550E+01
   0.9457700104580412E+00
   0.1002042270794862E+01
   0.9982829485934096E+00
   0.1004492521273324E+01
   0.1005371619450072E+01
   0.9993111974796988E+00
   0.9978002647438214E+00
   0.9988040165944667E+00
   0.9987211966516683E+00
   0.9780928813665932E+00
   0.9796705980219446E+00
   0.9639505108238980E+00
   0.9601301184690216E+00
   0.9867991782091792E+00
   0.9922400530657026E+00
   0.1000342976867677E+01
   0.1000541450764895E+01
   0.1000671133477614E+01
   0.9998284144115277E+00
   0.1009782296183189E+01
   0.1007174224570902E+01
   0.9448363487002629E+00
   0.9034576543072219E+00
   0.1007039898253511E+01
   0.1004193123681552E+01
   0.8965165749180088E+00
   0.8926680817045326E+00
   0.8470449879444594E+00
   0.9708429045041579E+00
   0.1000202434717687E+01
   0.1006091577658061E+01
   0.1015639762607210E+01
   0.1012987270994201E+01
   0.1012861697210325E+01
   0.1005118612084307E+01
   0.9863622567370013E+00
   0.1006593488128162E+01
   0.9849764804574119E+00
   0.1008140582362095E+01
   0.1001902606030210E+01
   0.1000777962322261E+01
   0.1001300677008350E+01
   0.1001842922238272E+01
   0.1002348925427169E+01
   0.1000286871639603E+01
   0.1000192915919790E+01
   0.9997755928141199E+00
   0.1001746393721460E+01
   0.1001907943482464E+01
   0.9986523993675993E+00
   0.9995364916729381E+00
   0.9999232353887054E+00
   0.1000198767698106E+01
   0.1000442942113162E+01
   0.1001058840659886E+01
   0.1001457791950294E+01
   0.1001331328361867E+01
   0.1001525817231455E+01
   0.1000861176969540E+01
   0.1001344304852686E+01
   0.1001108535047434E+01
   0.1000543854573575E+01
   0.1060180596363467E+01
   0.1020434849280182E+01
   0.1005937363837007E+01
   0.1003463832602610E+01
   0.1142067368441263E+01
   0.1083370535365625E+01
   0.1004378515025563E+01
   0.1003909100934306E+01
   0.1003789599966610E+01
   0.1006675427165715E+01
   0.1012240629034014E+01
   0.1193114677625424E+01
   0.1028000765973466E+01
   0.1034785370897864E+01
   0.1169417028593240E+01
   0.1009874385156900E+01
   0.1023546147067277E+01
   0.1017121949709549E+01
   0.1007875010183256E+01
   0.1013904360025859E+01
   0.1000120422477691E+01
   0.9442368006037651E+00
   0.1003512212576104E+01
   0.9988676268201494E+00
   0.1006433375215348E+01
   0.1009136813903192E+01
   0.9979418435758026E+00
   0.9977846872030095E+00
   0.9961676263289981E+00
   0.9984778183077903E+00
   0.9810175534652249E+00
   0.9780877677705342E+00
   0.9479693367033017E+00
   0.9505424568262933E+00
   0.9877990099465799E+00
   0.9899199158592026E+00
   0.9925444403636396E+00
   0.9998150176119612E+00
   0.9986044262414312E+00
   0.9946495981664401E+00
   0.1006783292526471E+01
   0.1021195775125465E+01
   0.9979991552432737E+00
   0.1004785935120732E+01
   0.1001443252703496E+01
   0.1004870014603243E+01
   0.9952898799869110E+00
   0.9853956885503478E+00
   0.1000226007683763E+01
   0.9938930133782151E+00
   0.9819631288269032E+00
   0.9943515146605384E+00
   0.9968775175741955E+00
   0.9937161351546872E+00
   0.9987031097977332E+00
   0.1000033243926361E+01
   0.9996686276848571E+00
   0.9958480479371915E+00
   0.9933618088763314E+00
   0.1001379812973366E+01
   0.1018342563188472E+01
   0.1002761163440535E+01
   0.9806466783114481E+00
   0.1001874256941348E+01
   0.1008205815566455E+01
   0.9702346434232657E+00
   0.9431324184792103E+00
   0.9846786476089803E+00
   0.9843645636071948E+00
   0.9754697010231473E+00
   0.9908380455668477E+00
   0.9779133613798627E+00
   0.1033958394535814E+01
   0.1021656811883540E+01
   0.1000033005886553E+01
   0.9991734281001238E+00
   0.9919055450427529E+00
   0.9907248631557085E+00
   0.9574014733883071E+00
   0.9930506973748390E+00
   0.1006289132645702E+01
   0.1002044039417999E+01
   0.9896477971658058E+00
   0.9652799653779172E+00
   0.9203406678606855E+00
   0.9724368565341188E+00
   0.9781837182524067E+00
   0.9559726931576666E+00
   0.9617646129700177E+00
   0.9490309972126481E+00
   0.9366912452857500E+00
   0.9303105054448956E+00
   0.9992919149152785E+00
   0.9994619488061173E+00
   0.9988025062925067E+00
   0.1002017074940331E+01
   0.9391477801944368E+00
   0.9239055049218453E+00
   0.9359217905620150E+00
   0.9984137908287231E+00
   0.9983444566185904E+00
   0.1000450520220459E+01
   0.9793848606848730E+00
   0.9713545790022011E+00
   0.9447096770827320E+00
SCALARS u double 1
LOOKUP_TABLE default
   0.0000000000000000E+00
   0.0000000000000000E+00
   0.0000000000000000E+00
   0.0000000000000000E+00
   0.0000000000000000E+00
   0.0000000000000000E+00
   0.0000000000000000E+00
   0.0000000000000000E+00
   0.0000000000000000E+00
   0.0000000000000000E+00
   0.0000000000000000E+00
   0.0000000000000000E+00
   0.0000000000000000E+00
   0.0000000000000000E+00
   0.0000000000000000E+00
   0.0000000000000000E+00
   0.0000000000000000E+00
   0.0000000000000000E+00
   0.0000000000000000E+00
   0.0000000000000000E+00
   0.0000000000000000E+00
   0.0000000000000000E+00
   0.0000000000000000E+00
   0.0000000000000000E+00
   0.0000000000000000E+00
   0.0000000000000000E+00
   0.0000000000000000E+00
   0.0000000000000000E+00
   0.0000000000000000E+00
   0.0000000000000000E+00
   0.0000000000000000E+00
   0.0000000000000000E+00
   0.0000000000000000E+00
   0.5044656938520695E+00
   0.5290124948637036E+00
   0.5144832556294919E+00
   0.4932265012370785E+00
   0.4881034990892493E+00
   0.4912132730866183E+00
   0.4932012168381943E+00
   0.4982359626542891E+00
   0.4935755436646960E+00
   0.4788817927601285E+00
   0.4518340637836683E+00
   0.4750762131367370E+00
   0.5097783965581338E+00
   0.4511935815368866E+00
   0.4980813360440519E+00
   0.5232695112840615E+00
   0.4995198830922494E+00
   0.5239976456648010E+00
   0.5062462091808719E+00
   0.5621720046523145E+00
   0.5246973072879683E+00
   0.5014415326710031E+00
   0.5724415330738853E+00
   0.5707004935738826E+00
   0.3697808181132687E+00
   0.4030359279330955E+00
   0.5559039041153614E+00
   0.5550071670643981E+00
   0.4941866653644909E+00
   0.4946225569947147E+00
   0.4922550882911874E+00
   0.4916952773017305E+00
   0.5126203585714448E+00
   0.5320037652689514E+00
   0.5051851677377998E+00
   0.4700274019362207E+00
   0.5096958254032505E+00
   0.5089633484862719E+00
   0.4955096633394856E+00
   0.5091188933659430E+00
   0.4859970980790922E+00
   0.5290197187280897E+00
   0.5276939172444067E+00
   0.5095384239385753E+00
   0.5265023509445095E+00
   0.5255836653710593E+00
   0.5249264200970809E+00
   0.5039105651745809E+00
   0.5284460091142157E+00
   0.5353830958939132E+00
   0.5371546735541812E+00
   0.5324039249188813E+00
   0.4987533161226900E+00
   0.4995693379137915E+00
   0.4985678155695663E+00
   0.4978564033212944E+00
   0.4945363834082590E+00
   0.4946354248787742E+00
   0.4894932193403508E+00
   0.4881854169477043E+00
   0.4965709386922458E+00
   0.4946579515667143E+00
   0.4860622938603063E+00
   0.4896816119116423E+00
   0.4900401245891140E+00
   0.4911767761948281E+00
   0.4926166643523910E+00
   0.4981835104641300E+00
   0.4946289678701132E+00
   0.4948395004956127E+00
   0.4976378115610113E+00
   0.4907933185890005E+00
   0.4936012167799684E+00
   0.4927628958228915E+00
   0.4920514969494680E+00
   0.4513309627830219E+00
   0.4773809661529300E+00
   0.4929577625650649E+00
   0.4922016487754259E+00
   0.4645164887293333E+00
   0.4729120313203616E+00
   0.4915211081195101E+00
   0.4906742011078393E+00
   0.4940153742189703E+00
   0.4854929993654447E+00
   0.4731445582696398E+00
   0.4017686074075704E+00
   0.4925810908041461E+00
   0.4586089467461273E+00
   0.4595049853276302E+00
   0.4895104458842562E+00
   0.4701583360341964E+00
   0.4742234951874479E+00
   0.4816343309529708E+00
   0.4809631602308444E+00
   0.5081955779490387E+00
   0.4436620298341587E+00
   0.4960916964027990E+00
   0.5314783269486777E+00
   0.4949806856426565E+00
   0.5219301808723082E+00
   0.5081293804450377E+00
   0.5664001417263634E+00
   0.5269142149547804E+00
   0.5035387176336558E+00
   0.5834534697883140E+00
   0.5720240214774599E+00
   0.3408858514688038E+00
   0.3851957647934497E+00
   0.5717594621394151E+00
   0.5645095535620992E+00
   0.5689243461912681E+00
   0.5291696228971798E+00
   0.5449155525493543E+00
   0.5701879785954955E+00
   0.5404097124352156E+00
   0.5487779070388827E+00
   0.5790107864847953E+00
   0.4955235677525144E+00
   0.5064965455312331E+00
   0.4994484962064721E+00
   0.5533092491554360E+00
   0.4597902246812670E+00
   0.4983751317506863E+00
   0.5489762751091859E+00
   0.5894376617963492E+00
   0.5821700617242221E+00
   0.5457059726149258E+00
   0.5785146348278333E+00
   0.5122043810814525E+00
   0.5055088151167832E+00
   0.5048980661470465E+00
   0.5645297342995239E+00
   0.5552265301454495E+00
   0.4977583751845971E+00
   0.5488208984772167E+00
   0.5486892184112007E+00
   0.5643387255684307E+00
   0.4955121581776559E+00
   0.4958798402360615E+00
   0.3908414490574854E+00
   0.3725909795088195E+00
   0.5584900318816356E+00
   0.5739392599664461E+00
   0.4177438664160750E+00
   0.5813083142182582E+00
   0.4186000228113034E+00
   0.5391903623791698E+00
   0.4993239567461686E+00
   0.5113858551101198E+00
   0.5070194975310963E+00
   0.5732639583220156E+00
   0.5857708790267417E+00
   0.5448205549211623E+00
   0.5657062668957776E+00
   0.5320308366542463E+00
   0.5310303216407608E+00
   0.5561915504960945E+00
   0.5552162348082151E+00
   0.4401002532423590E+00
   0.5282987917849482E+00
   0.5807279545461931E+00
   0.3397137593003425E+00
   0.4812260866902943E+00
   0.5510167758539323E+00
   0.4924432220179195E+00
   0.3108743810018807E+00
   0.5051822039543598E+00
   0.5043571346125687E+00
   0.5129608661839207E+00
   0.5385848654051208E+00
   0.3519686234726469E+00
   0.3560462333124714E+00
   0.3308149830789266E+00
   0.5084554545663968E+00
   0.5125571345804160E+00
   0.5314307662336925E+00
   0.5857978421731356E+00
   0.4640824797035197E+00
   0.3627235470260715E+00
SCALARS v double 1
LOOKUP_TABLE default
   0.0000000000000000E+00
   0.0000000000000000E+00
   0.0000000000000000E+00
   0.0000000000000000E+00
   0.0000000000000000E+00
   0.0000000000000000E+00
   0.0000000000000000E+00
   0.0000000000000000E+00
   0.0000000000000000E+00
   0.0000000000000000E+00
   0.0000000000000000E+00
   0.0000000000000000E+00
   0.0000000000000000E+00
   0.0000000000000000E+00
   0.0000000000000000E+00
   0.0000000000000000E+00
   0.0000000000000000E+00
   0.0000000000000000E+00
   0.0000000000000000E+00
   0.0000000000000000E+00
   0.0000000000000000E+00
   0.0000000000000000E+00
   0.0000000000000000E+00
   0.0000000000000000E+00
   0.0000000000000000E+00
   0.0000000000000000E+00
   0.0000000000000000E+00
   0.0000000000000000E+00
   0.0000000000000000E+00
   0.0000000000000000E+00
   0.0000000000000000E+00
   0.0000000000000000E+00
   0.0000000000000000E+00
   0.0000000000000000E+00
   0.0000000000000000E+00
   0.0000000000000000E+00
   0.0000000000000000E+00
   0.0000000000000000E+00
   0.0000000000000000E+00
   0.0000000000000000E+00
   0.0000000000000000E+00
   0.0000000000000000E+00
   0.0000000000000000E+00
   0.0000000000000000E+00
   0.0000000000000000E+00
   0.0000000000000000E+00
   0.0000000000000000E+00
   0.0000000000000000E+00
   0.0000000000000000E+00
   0.0000000000000000E+00
   0.0000000000000000E+00
   0.0000000000000000E+00
   0.0000000000000000E+00
   0.0000000000000000E+00
   0.0000000000000000E+00
   0.0000000000000000E+00
   0.0000000000000000E+00
   0.0000000000000000E+00
   0.0000000000000000E+00
   0.0000000000000000E+00
   0.0000000000000000E+00
   0.6334733414419860E-03
  -0.1412096632636505E-02
  -0.1391679684544129E-02
   0.0000000000000000E+00
   0.0000000000000000E+00
   0.0000000000000000E+00
   0.0000000000000000E+00
  -0.1867970489353243E-01
   0.2777590392599394E-03
   0.2206623495614304E-02
   0.1490282580854273E-01
  -0.5368506158801120E-02
  -0.6641907117980577E-02
  -0.1142203658525874E-01
   0.4788845527358834E-02
   0.5372030133156122E-03
   0.3195643765967091E-02
   0.1530305711744962E-02
   0.3473823195852238E-02
   0.1704919969474296E-02
  -0.6356057664279587E-02
   0.7681896072108424E-03
   0.4869172570066712E-02
   0.6122153439023319E-03
   0.6959002690978312E-04
  -0.1767233809463490E-03
   0.6082835719046679E-03
   0.0000000000000000E+00
   0.0000000000000000E+00
   0.0000000000000000E+00
   0.0000000000000000E+00
   0.1212950276439510E-03
   0.1423634517539636E-02
  -0.1108798850281798E-02
  -0.9188902568901771E-03
  -0.2101542160229125E-02
  -0.1220494519968009E-02
  -0.8986436540013048E-03
  -0.6448398206774113E-03
  -0.2472733697341780E-04
  -0.5341985532991636E-03
   0.7240124463428864E-03
  -0.1570798838702127E-02
   0.1025661874049223E-03
  -0.1214697298762022E-03
  -0.8743256617419929E-03
  -0.8885242247655781E-03
   0.0000000000000000E+00
   0.0000000000000000E+00
   0.0000000000000000E+00
  -0.1091309718850867E-02
  -0.8502788448038498E-02
   0.1568983463114465E-01
   0.2148696325399406E-03
  -0.1053392837431980E-02
  -0.1673613892801549E-02
  -0.5281082864600437E-02
  -0.1235962547275381E-02
  -0.3701167380954206E-02
  -0.3032629597844347E-02
   0.2127159605394242E-02
   0.2880597780400089E-01
  -0.1724503571582918E-03
  -0.4260470679824146E-02
   0.2498502679530335E-02
   0.9550982833728760E-03
   0.0000000000000000E+00
   0.0000000000000000E+00
   0.0000000000000000E+00
   0.0000000000000000E+00
   0.0000000000000000E+00
   0.0000000000000000E+00
   0.0000000000000000E+00
   0.0000000000000000E+00
   0.0000000000000000E+00
   0.0000000000000000E+00
   0.0000000000000000E+00
   0.0000000000000000E+00
   0.0000000000000000E+00
   0.0000000000000000E+00
   0.0000000000000000E+00
   0.0000000000000000E+00
   0.0000000000000000E+00
   0.4670198740785611E-02
   0.2763280451848843E-02
   0.6893735669440025E-02
   0.5630437147406629E-02
   0.8687042094535939E-02
   0.1244112627239731E-01
   0.4866756812071469E-03
   0.4364177807657152E-02
   0.2406601862617489E-02
   0.2332206573588258E-02
   0.3176364772467132E-02
  -0.1059582458201297E-01
  -0.4893813272678272E-03
   0.6038346306750160E-02
   0.2600391484145757E-02
   0.2269794357882725E-02
   0.3837924265652960E-02
  -0.2020248216834651E-02
   0.9170006966757280E-03
   0.2371044342934578E-02
   0.1154923142716377E-02
   0.2686139317010601E-02
   0.1739855847799034E-02
   0.1798801385113381E-02
   0.8007128198138194E-02
  -0.3375968822218532E-02
   0.5470403675350238E-02
   0.6506725442673373E-04
  -0.3120583993770656E-04
  -0.1328425313515183E-01
  -0.3290595684175163E-02
  -0.3547667858309033E-02
   0.3675145244319540E-02
  -0.3988159021350949E-02
   0.8943781097090783E-03
  -0.2587597982318544E-01
  -0.3070935012943040E-02
   0.4167740202920581E-02
   0.7177119219990571E-03
   0.1825203241914571E-02
   0.4437754089340106E-02
   0.2300338676743662E-02
   0.3389545381151986E-02
   0.5068279996130605E-02
   0.1856653019519192E-02
   0.5820240736080766E-03
  -0.3347033096634015E-03
  -0.4621565950031739E-02
  -0.5498318041607431E-02
   0.4519086345005388E-03
   0.9429376789040832E-03
  -0.7332972507319114E-03
  -0.3869847705310364E-02
  -0.1215941319722608E-02
  -0.3656395394877461E-02
  -0.6898469069562359E-02
  -0.1708645351876661E-02
   0.5357639483861427E-03
  -0.3546497891927376E-03
   0.1111770972061407E-02
  -0.1832540212278248E-02
   0.6956214263764410E-02
  -0.9774593479798775E-02
  -0.1544600619239098E-04
  -0.4080103471603481E-03
   0.2409198728996556E-02
   0.1123360623386956E-02
   0.1298599435193245E-02
  -0.3828976925803284E-02
SCALARS w double 1
LOOKUP_TABLE default
   0.0000000000000000E+00
   0.0000000000000000E+00
   0.0000000000000000E+00
   0.0000000000000000E+00
   0.0000000000000000E+00
   0.0000000000000000E+00
   0.0000000000000000E+00
   0.0000000000000000E+00
   0.0000000000000000E+00
   0.0000000000000000E+00
   0.0000000000000000E+00
   0.0000000000000000E+00
   0.0000000000000000E+00
   0.0000000000000000E+00
   0.0000000000000000E+00
   0.0000000000000000E+00
   0.0000000000000000E+00
   0.0000000000000000E+00
   0.0000000000000000E+00
   0.0000000000000000E+00
   0.0000000000000000E+00
   0.0000000000000000E+00
   0.0000000000000000E+00
   0.0000000000000000E+00
   0.0000000000000000E+00
   0.0000000000000000E+00
   0.0000000000000000E+00
   0.0000000000000000E+00
   0.0000000000000000E+00
   0.0000000000000000E+00
   0.0000000000000000E+00
   0.0000000000000000E+00
   0.0000000000000000E+00
  -0.1144741172921615E+00
  -0.5028454142123949E-01
  -0.2218638285146745E-02
   0.5066013585317584E-02
  -0.6957799013510935E-03
  -0.6076397768711449E-03
   0.5805993518650226E-03
   0.1144806987531054E-02
   0.2440775287980627E-03
   0.3422555423718557E-02
   0.3884463532105953E-01
   0.5360740156325144E-01
  -0.1493569539756659E-02
  -0.2790737426595575E-01
   0.2079826678202743E-02
   0.1059655382260437E-01
   0.8042752925524801E-02
   0.4393891341612272E-01
  -0.4043428188040106E-03
  -0.1058030922578504E-01
  -0.3671501971636886E-02
  -0.2102262688842300E-02
   0.4819991212937835E-03
  -0.4609515224257588E-01
   0.1623620302731004E-01
   0.1240679250486593E-01
   0.2994630180563843E-01
   0.5073346920107262E-02
   0.4321078622419071E-02
   0.4383198535664348E-02
   0.4018274489379833E-02
   0.5466032704514736E-02
  -0.1704836253776176E-03
  -0.4834020110358948E-01
  -0.1122167686910080E+00
  -0.1279823939366241E+00
   0.2784423774380516E-02
   0.1930922446275867E-02
  -0.1150880133586051E+00
  -0.1133078925252923E+00
  -0.1132666702113645E+00
  -0.1072902282308730E+00
  -0.7748703173149400E-01
   0.3027733768872944E-02
  -0.2451873524729897E-01
  -0.2041359715762367E-01
  -0.9927799585990571E-02
   0.5241307056936215E-02
  -0.9129647714430822E-01
  -0.3406072901486919E-01
  -0.9180577690729727E-01
  -0.6776876376428445E-01
   0.1807789750992796E-02
   0.1559385199042325E-02
   0.1426787264134569E-02
   0.2118644853834254E-02
   0.1358294126237340E-02
  -0.1241619355650557E-02
  -0.1475157012956131E-02
   0.1114706563816256E-02
   0.2218158316221694E-02
   0.1202566833503387E-02
  -0.7055971108057543E-04
   0.1919581341382938E-03
   0.8213703979492565E-03
  -0.1576102801699366E-02
  -0.1943015408437887E-02
   0.1965356395407665E-02
  -0.4390829733471859E-04
  -0.4390423228620088E-03
   0.2228746214647585E-02
  -0.1071759010513504E-02
  -0.2024437297989376E-03
  -0.4923298292889908E-03
  -0.1804014595965090E-02
   0.6879536060696419E-01
   0.2330704245528228E-02
  -0.1105207171141020E-02
  -0.7920415568670094E-03
   0.1156184558627556E+00
   0.1039170667411502E+00
  -0.1771017080408442E-02
  -0.4421114084602200E-02
  -0.7493444359875341E-03
  -0.7086035344668828E-02
  -0.2645570957520904E-02
   0.1269923183597420E+00
   0.6360345844089367E-01
   0.2237140111650722E-01
   0.1353417673423701E+00