title="tecplot geometry and solution file"
variables = x y z rho u v w p mach temperature
zone t="boundary 1 bc-1", solutiontime= 0.8000000E+02, strandid=1001, i=32, j=46, f=feblock
 -0.547454789457E-02  0.000000000000E+00 -0.567596495155E-02  0.000000000000E+00  0.000000000000E+00  0.000000000000E+00 -0.525081104812E-02
 -0.425695585107E-02  0.000000000000E+00  0.000000000000E+00  0.000000000000E+00  0.000000000000E+00  0.000000000000E+00  0.000000000000E+00
  0.000000000000E+00  0.000000000000E+00 -0.338306800861E-02  0.000000000000E+00  0.000000000000E+00  0.000000000000E+00  0.000000000000E+00
  0.000000000000E+00  0.000000000000E+00  0.000000000000E+00  0.000000000000E+00  0.000000000000E+00  0.000000000000E+00  0.000000000000E+00
  0.000000000000E+00  0.000000000000E+00  0.000000000000E+00  0.000000000000E+00
  0.250494205109E+01  0.250494205109E+01  0.127822176491E+01  0.146289271009E+01  0.157686156160E+01  0.308372018325E+00  0.261953807315E-01
 -0.122573392194E+01 -0.600232012419E+00  0.250494205109E+01  0.477386199275E+00  0.742988685424E+00 -0.739814786992E+00  0.177790177481E+01
  0.155830813274E+01  0.250494205109E+01 -0.249658898644E+01 -0.154800130438E+01 -0.487811078581E+00  0.250494205109E+01  0.627766083140E+00
 -0.345533899378E+00 -0.178862290564E+01 -0.158811787973E+01  0.125000000000E+01 -0.249658898644E+01 -0.144524380962E+01  0.000000000000E+00
 -0.125000000000E+01 -0.249658898644E+01 -0.249658898644E+01 -0.249658898644E+01
  0.811177949225E-04  0.125000000000E+01  0.829429528721E-04  0.103724302461E+01  0.219251206392E+01  0.922061490191E+00  0.104283509303E-03
  0.346902148094E-04  0.715990576545E+00  0.250000000000E+01  0.202479342020E+01  0.324151231464E+01  0.175434191980E+01  0.310152362409E+01
  0.404200324774E+01  0.375000000000E+01  0.815052046199E-04  0.930412228790E+00  0.299062775774E+01  0.500000000000E+01  0.429310310915E+01
  0.409252726285E+01  0.187029682677E+01  0.284428995242E+01  0.500000000000E+01  0.125000000000E+01  0.394624082883E+01  0.500000000000E+01
  0.500000000000E+01  0.250000000000E+01  0.375000000000E+01  0.500000000000E+01
  0.134610784377E+01  0.106375546418E+01  0.142661132888E+01  0.108602670089E+01  0.103229749341E+01  0.120170179693E+01  0.164672942985E+01
  0.149542048071E+01  0.123512313744E+01  0.102386943410E+01  0.102822217245E+01  0.101305387477E+01  0.103253555393E+01  0.101467213369E+01
  0.100662698310E+01  0.100826832562E+01  0.144847522032E+01  0.116396752863E+01  0.101464051831E+01  0.100424995927E+01  0.100679645268E+01
  0.100725182247E+01  0.104656548645E+01  0.101934079412E+01  0.100423991984E+01  0.106448523835E+01  0.100790708433E+01  0.100288596729E+01
  0.100335006119E+01  0.102844206159E+01  0.100960587064E+01  0.100399794252E+01
  0.000000000000E+00  0.444887292122E+00  0.000000000000E+00  0.468180340728E+00  0.462186792806E+00  0.443238651285E+00  0.000000000000E+00
  0.000000000000E+00  0.379439085674E+00  0.471807267417E+00  0.466360650532E+00  0.479394561920E+00  0.490363710476E+00  0.484571645966E+00
  0.488597469316E+00  0.489900744764E+00  0.000000000000E+00  0.451029502199E+00  0.474778703088E+00  0.495800903773E+00  0.490926844343E+00
  0.486826279084E+00  0.448796906964E+00  0.465790673214E+00  0.496535899972E+00  0.444910714510E+00  0.487666694068E+00  0.497536487409E+00
  0.496381521705E+00  0.470013287199E+00  0.489177494446E+00  0.495515502830E+00
  0.000000000000E+00  0.000000000000E+00  0.000000000000E+00  0.182111941203E-01 -0.276668093639E-02  0.330008797577E-01  0.000000000000E+00
  0.000000000000E+00 -0.635883276085E-02  0.000000000000E+00  0.362940826077E-02 -0.561333568620E-02 -0.432752685863E-02  0.439690329696E-04
 -0.103547477703E-02  0.000000000000E+00  0.000000000000E+00 -0.779177415474E-02  0.391748779042E-03  0.000000000000E+00 -0.202831516877E-02
 -0.137699788592E-02  0.151652719452E-02 -0.162047709323E-02 -0.665396540884E-04  0.000000000000E+00 -0.290734456760E-04 -0.202432857465E-03
  0.805362278621E-03  0.000000000000E+00  0.000000000000E+00  0.000000000000E+00
  0.000000000000E+00  0.453283647345E-01  0.000000000000E+00  0.123658675625E+00  0.245692576508E-01  0.166125850508E+00  0.000000000000E+00
  0.000000000000E+00  0.155960029776E+00  0.352703257905E-02  0.259078535078E-01 -0.647805410923E-02  0.752821057986E-01  0.371570011249E-02
 -0.127529833621E-03  0.471453908010E-03  0.000000000000E+00  0.141096946825E+00 -0.806996385502E-02  0.236433386974E-02 -0.280389008747E-03
 -0.438302884703E-02  0.256769936020E-01 -0.189363940100E-02  0.307401331530E-02  0.838612198392E-01 -0.122860329093E-02  0.268490865825E-02
  0.264424737284E-02  0.283393492457E-02 -0.846588954109E-03  0.345684916277E-02
  0.961496278542E+00  0.782491126587E+00  0.101899868003E+01  0.808635925919E+00  0.746113327219E+00  0.879959801408E+00  0.117622521799E+01
  0.106814912534E+01  0.916484241690E+00  0.737375265468E+00  0.743650970030E+00  0.725792787066E+00  0.757479357721E+00  0.729144499795E+00
  0.720777566927E+00  0.722747146815E+00  0.103461763162E+01  0.858092915823E+00  0.728072572782E+00  0.718602762082E+00  0.721012354276E+00
  0.721154298430E+00  0.759934146173E+00  0.732618494261E+00  0.718521953941E+00  0.790948763153E+00  0.722118115064E+00  0.717197477953E+00
  0.717641995126E+00  0.741773499644E+00  0.724071786214E+00  0.718406368849E+00
  0.000000000000E+00  0.440666223988E+00  0.000000000000E+00  0.474617242158E+00  0.460123134795E+00  0.468636756715E+00  0.000000000000E+00
  0.000000000000E+00  0.402549853151E+00  0.469884099829E+00  0.464193463333E+00  0.478749622805E+00  0.489549443338E+00  0.483128674671E+00
  0.488002265950E+00  0.489034110003E+00  0.000000000000E+00  0.465240598605E+00  0.473760503438E+00  0.495364300009E+00  0.490293375382E+00
  0.486277602233E+00  0.445854511225E+00  0.464358875695E+00  0.496127935872E+00  0.443900379842E+00  0.486930059967E+00  0.497248724493E+00
  0.496055923649E+00  0.467744048262E+00  0.488189261022E+00  0.495091102026E+00
  0.999990302555E+00  0.102983027031E+01  0.999990763541E+00  0.104241479087E+01  0.101187754962E+01  0.102516591480E+01  0.999991422600E+00
  0.999992172611E+00  0.103882592713E+01  0.100825880457E+01  0.101253540911E+01  0.100301664817E+01  0.102705528809E+01  0.100604152397E+01
  0.100244540494E+01  0.100354834108E+01  0.999992726105E+00  0.103209930913E+01  0.100459382757E+01  0.100178631588E+01  0.100260315112E+01
  0.100234717405E+01  0.101657069569E+01  0.100620508654E+01  0.100168367702E+01  0.104024765071E+01  0.100303428441E+01  0.100118707598E+01
  0.100134422874E+01  0.100976315369E+01  0.100405567180E+01  0.100176392181E+01
        12        19        11        11
        11         5        12        12
        10        14         5         5
        19        13        11        11
        19        24        13        13
        30        23        24        24
        19        12        22        22
        28        22        21        21
        11        13         6         6
         7         6         9         9
        15        12        14        14
        18        13        23        23
        15        25        21        21
        27        19        22        22
        18         8         9         9
        27        31        24        24
         4        11         6         6
         5        14        12        12
         4         2         5         5
        21        12        15        15
        14        16        15        15
        24        19        27        27
        22        29        27        27
        23        26        18        18
        17         8        18        18
         5        11         4         4
         6         3         4         4
        26        23        30        30
         5         2        10        10
        16        14        10        10
         3         6         7         7
        21        25        28        28
        29        22        28        28
         6        13         9         9
         2         4         1         1
        31        27        32        32
        25        15        20        20
        24        23        13        13
         8         7         9         9
        13        18         9         9
        31        30        24        24
        12        21        22        22
        29        32        27        27
         3         1         4         4
        26        17        18        18
        16        20        15        15
zone t="boundary 2 bc-2", solutiontime= 0.8000000E+02, strandid=1002, i=33, j=48, f=feblock
  0.500195297846E+01  0.375034879869E+01  0.249861160855E+01  0.288036697933E+01  0.124717543368E+01  0.190856734555E+01  0.326577208358E+01
  0.201394882191E+01 -0.338306800861E-02  0.962374580515E+00  0.500000000000E+01  0.403430219970E+01  0.423029575644E+01  0.500000000000E+01
  0.385439197114E+01  0.500000000000E+01  0.398133436456E+01  0.315200087393E+01  0.266958040931E+01  0.154798038680E+01  0.218327863841E+01
  0.893688554177E+00  0.000000000000E+00  0.699009794583E+00  0.964460912828E+00  0.310303674226E+01  0.000000000000E+00  0.000000000000E+00
  0.125000000000E+01  0.500000000000E+01  0.375000000000E+01  0.250000000000E+01  0.000000000000E+00
 -0.249658898644E+01 -0.249658898644E+01 -0.249658898644E+01 -0.249658898644E+01 -0.249658898644E+01 -0.249658898644E+01 -0.249658898644E+01
 -0.249658898644E+01 -0.249658898644E+01 -0.249658898644E+01 -0.249658898644E+01 -0.249658898644E+01 -0.249658898644E+01 -0.249658898644E+01
 -0.249658898644E+01 -0.249658898644E+01 -0.249658898644E+01 -0.249658898644E+01 -0.249658898644E+01 -0.249658898644E+01 -0.249658898644E+01
 -0.249658898644E+01 -0.249658898644E+01 -0.249658898644E+01 -0.249658898644E+01 -0.249658898644E+01 -0.249658898644E+01 -0.249658898644E+01
 -0.249658898644E+01 -0.249658898644E+01 -0.249658898644E+01 -0.249658898644E+01 -0.249658898644E+01
  0.108951811956E-03  0.146841511908E-03  0.100939937681E-03  0.901663569978E+00  0.111188885151E-03  0.714928506180E+00  0.188140663357E+01
  0.175892185999E+01  0.815052046199E-04  0.957504584123E+00  0.125000000000E+01  0.100596734432E+01  0.191313533770E+01  0.250000000000E+01
  0.292898108478E+01  0.375000000000E+01  0.406883374833E+01  0.363389299144E+01  0.284756875487E+01  0.292582319278E+01  0.395754061536E+01
  0.205027270663E+01  0.125000000000E+01  0.306703277861E+01  0.397155769864E+01  0.433068626773E+01  0.250000000000E+01  0.375000000000E+01
  0.500000000000E+01  0.500000000000E+01  0.500000000000E+01  0.500000000000E+01  0.500000000000E+01
  0.831049001988E+00  0.935354923156E+00  0.934389783593E+00  0.968094437602E+00  0.961616765440E+00  0.964874020977E+00  0.984210069801E+00
  0.991408411431E+00  0.144847522032E+01  0.102898689969E+01  0.956112540958E+00  0.960814763412E+00  0.981522835942E+00  0.100650794942E+01
  0.997935782232E+00  0.100981608917E+01  0.100200366696E+01  0.998069049506E+00  0.991091305341E+00  0.100132489671E+01  0.100093956732E+01
  0.101223133464E+01  0.106448523835E+01  0.101079825990E+01  0.100685806922E+01  0.100119203864E+01  0.102844206159E+01  0.100960587064E+01
  0.100511534111E+01  0.100179357870E+01  0.100266912135E+01  0.100322320620E+01  0.100399794252E+01
  0.000000000000E+00  0.000000000000E+00  0.000000000000E+00  0.378615092473E+00  0.000000000000E+00  0.340329976607E+00  0.582178233232E+00
  0.575334655036E+00  0.000000000000E+00  0.489381119729E+00  0.495137409644E+00  0.430537261199E+00  0.569176916308E+00  0.536367073921E+00
  0.569065100187E+00  0.516259718369E+00  0.508563869802E+00  0.527499059041E+00  0.566854331494E+00  0.532032732004E+00  0.506130940165E+00
  0.520947374008E+00  0.444910714510E+00  0.491385542659E+00  0.492729807014E+00  0.501502416551E+00  0.470013287199E+00  0.489177494446E+00
  0.490417259679E+00  0.491396777613E+00  0.486161134218E+00  0.490250027012E+00  0.495515502830E+00
  0.000000000000E+00  0.000000000000E+00  0.000000000000E+00  0.000000000000E+00  0.000000000000E+00  0.000000000000E+00  0.000000000000E+00
  0.000000000000E+00  0.000000000000E+00  0.000000000000E+00  0.000000000000E+00  0.000000000000E+00  0.000000000000E+00  0.000000000000E+00
  0.000000000000E+00  0.000000000000E+00  0.000000000000E+00  0.000000000000E+00  0.000000000000E+00  0.000000000000E+00  0.000000000000E+00
  0.000000000000E+00  0.000000000000E+00  0.000000000000E+00  0.000000000000E+00  0.000000000000E+00  0.000000000000E+00  0.000000000000E+00
  0.000000000000E+00  0.000000000000E+00  0.000000000000E+00  0.000000000000E+00  0.000000000000E+00
  0.000000000000E+00  0.000000000000E+00  0.000000000000E+00 -0.232902896084E-02  0.000000000000E+00  0.182353430369E-01  0.121236173272E-01
  0.453891474603E-01  0.000000000000E+00  0.867492987893E-01 -0.992592146541E-01 -0.210120994772E-01 -0.304697091330E-01 -0.412644342842E-01
 -0.132004431532E-02  0.269956412432E-02  0.637122805883E-03  0.535255313406E-03  0.151134144179E-01  0.283971515975E-01  0.565019973225E-02
  0.553958468953E-01  0.838612198392E-01  0.110560478386E-01  0.679114856639E-02 -0.740734525061E-03  0.283393492457E-02 -0.846588954109E-03
  0.399773535746E-02  0.605665328315E-02 -0.135625333283E-03  0.119915283597E-02  0.345684916277E-02
  0.593602565983E+00  0.668106445292E+00  0.667416966561E+00  0.684291440332E+00  0.686864406693E+00  0.679258566654E+00  0.695864190600E+00
  0.702291791350E+00  0.103461763162E+01  0.723389830788E+00  0.672789499527E+00  0.675870598889E+00  0.694123990498E+00  0.721038064290E+00
  0.712711427493E+00  0.724812421247E+00  0.716595368181E+00  0.713312881259E+00  0.706427911923E+00  0.717741411713E+00  0.715380854159E+00
  0.730906768779E+00  0.790948763153E+00  0.724365790081E+00  0.721017446068E+00  0.715471809497E+00  0.741773499644E+00  0.724071786214E+00
  0.719322137286E+00  0.715894733397E+00  0.716614381987E+00  0.717376651812E+00  0.718406368849E+00
  0.000000000000E+00  0.000000000000E+00  0.000000000000E+00  0.380610205876E+00  0.000000000000E+00  0.343302099029E+00  0.585285482968E+00
  0.579523878876E+00  0.000000000000E+00  0.500979744964E+00  0.508782807264E+00  0.434361558984E+00  0.572843965385E+00  0.537166654314E+00
  0.569106490809E+00  0.515013352650E+00  0.508252452752E+00  0.527349035118E+00  0.567655258558E+00  0.531857862949E+00  0.506012448742E+00
  0.521051135501E+00  0.443900379842E+00  0.490706187675E+00  0.492149790021E+00  0.501385668898E+00  0.467744048262E+00  0.488189261022E+00
  0.489961996105E+00  0.491321546173E+00  0.486017934997E+00  0.489981940701E+00  0.495091102026E+00
  0.999993490622E+00  0.999993692504E+00  0.999993546154E+00  0.989581159910E+00  0.999993140646E+00  0.985581508716E+00  0.989839361262E+00
  0.991729035737E+00  0.999992726105E+00  0.984216381577E+00  0.985140617855E+00  0.984808804441E+00  0.990067221172E+00  0.100292629640E+01
  0.999859927117E+00  0.100487346224E+01  0.100122738922E+01  0.100057008506E+01  0.997888964783E+00  0.100350843138E+01  0.100059307127E+01
  0.101090476186E+01  0.104024765071E+01  0.100327844472E+01  0.100254887492E+01  0.100046793686E+01  0.100976315369E+01  0.100405567180E+01
  0.100192579997E+01  0.100045822619E+01  0.100058944014E+01  0.100110055900E+01  0.100176392181E+01
        15         7        19        19
         8        20        19        19
        18        19        21        21
         7         4         8         8
         3         6         4         4
        19         7         8         8
        19        18        15        15
        14        13        15        15
         8        22        20        20
        27        24        22        22
        19        20        21        21
        32        26        21        21
        17        18        26        26
        17        16        15        15
        25        29        21        21
        12         7        13        13
        10         8         6         6
        25        20        24        24
         4         6         8         8
        12         2         4         4
        10        23        22        22
        26        31        17        17
        30        16        17        17
         4         7        12        12
        13        11        12        12
        21        20        25        25
        24        28        25        25
        22         8        10        10
         6         5        10        10
        31        26        32        32
         4         2         3         3
         5         6         3         3
        11        13        14        14
        22        23        27        27
        28        24        27        27
        15        13         7         7
         2        12         1         1
        29        25        33        33
        23        10         9         9
        21        26        18        18
        16        14        15        15
        18        17        15        15
        29        32        21        21
        22        24        20        20
        28        33        25        25
        11         1        12        12
        31        30        17        17
         5         9        10        10
zone t="boundary 3 bc-3", solutiontime= 0.8000000E+02, strandid=1003, i=33, j=48, f=feblock
  0.375059159829E+01  0.249769623668E+01  0.500322215753E+01  0.403612265425E+01  0.287976811604E+01  0.124541983852E+01  0.190552277536E+01
  0.500000000000E+01  0.326671125795E+01  0.423253772263E+01  0.201271159438E+01 -0.547454789457E-02  0.958896057123E+00  0.500000000000E+01
  0.266968157739E+01  0.385584498196E+01  0.890374308422E+00  0.154654020440E+01  0.000000000000E+00  0.500000000000E+01  0.315261143133E+01
  0.218304201496E+01  0.398195312396E+01  0.000000000000E+00  0.697379970105E+00  0.963757272160E+00  0.125000000000E+01  0.000000000000E+00
  0.500000000000E+01  0.310330741486E+01  0.250000000000E+01  0.375000000000E+01  0.000000000000E+00
  0.250494205109E+01  0.250494205109E+01  0.250494205109E+01  0.250494205109E+01  0.250494205109E+01  0.250494205109E+01  0.250494205109E+01
  0.250494205109E+01  0.250494205109E+01  0.250494205109E+01  0.250494205109E+01  0.250494205109E+01  0.250494205109E+01  0.250494205109E+01
  0.250494205109E+01  0.250494205109E+01  0.250494205109E+01  0.250494205109E+01  0.250494205109E+01  0.250494205109E+01  0.250494205109E+01
  0.250494205109E+01  0.250494205109E+01  0.250494205109E+01  0.250494205109E+01  0.250494205109E+01  0.250494205109E+01  0.250494205109E+01
  0.250494205109E+01  0.250494205109E+01  0.250494205109E+01  0.250494205109E+01  0.250494205109E+01
  0.136583964942E-03  0.110549738900E-03  0.970966005368E-04  0.101756818401E+01  0.908095282726E+00  0.104109038369E-03  0.722629465269E+00
  0.125000000000E+01  0.188965709564E+01  0.191862728898E+01  0.176708277179E+01  0.811177949225E-04  0.969652977846E+00  0.250000000000E+01
  0.285339465291E+01  0.293325084262E+01  0.205656245254E+01  0.293157039419E+01  0.125000000000E+01  0.375000000000E+01  0.363766858432E+01
  0.396069459095E+01  0.407056395705E+01  0.250000000000E+01  0.307032006010E+01  0.397359827757E+01  0.500000000000E+01  0.375000000000E+01
  0.500000000000E+01  0.433260791223E+01  0.500000000000E+01  0.500000000000E+01  0.500000000000E+01
  0.942172382055E+00  0.946117453600E+00  0.843607469058E+00  0.964577369405E+00  0.979032734320E+00  0.957203883613E+00  0.983413628464E+00
  0.963701338710E+00  0.982803921049E+00  0.984389956792E+00  0.990475732742E+00  0.134610784377E+01  0.101939404144E+01  0.100835626235E+01
  0.993519346415E+00  0.998019549366E+00  0.100803794788E+01  0.100074573527E+01  0.106375546418E+01  0.100671242833E+01  0.100059276756E+01
  0.100235385834E+01  0.100177791010E+01  0.102386943410E+01  0.100869654310E+01  0.100526332346E+01  0.100520806039E+01  0.100826832562E+01
  0.100195892921E+01  0.100162063836E+01  0.100412011089E+01  0.100321751840E+01  0.100424995927E+01
  0.000000000000E+00  0.000000000000E+00  0.000000000000E+00  0.440186065791E+00  0.400364000736E+00  0.000000000000E+00  0.375219165623E+00
  0.494597356058E+00  0.572920168539E+00  0.569359293843E+00  0.559938967735E+00  0.000000000000E+00  0.484436980970E+00  0.533624799370E+00
  0.556225884948E+00  0.564433687550E+00  0.522383220947E+00  0.522300353578E+00  0.444887292122E+00  0.518274036811E+00  0.524589458872E+00
  0.503816827653E+00  0.509770333509E+00  0.471807267417E+00  0.496274709308E+00  0.494958715732E+00  0.489143082717E+00  0.489900744764E+00
  0.493071426006E+00  0.499098513921E+00  0.486813275800E+00  0.484775428791E+00  0.495800903773E+00
  0.000000000000E+00  0.000000000000E+00  0.000000000000E+00  0.000000000000E+00  0.000000000000E+00  0.000000000000E+00  0.000000000000E+00
  0.000000000000E+00  0.000000000000E+00  0.000000000000E+00  0.000000000000E+00  0.000000000000E+00  0.000000000000E+00  0.000000000000E+00
  0.000000000000E+00  0.000000000000E+00  0.000000000000E+00  0.000000000000E+00  0.000000000000E+00  0.000000000000E+00  0.000000000000E+00
  0.000000000000E+00  0.000000000000E+00  0.000000000000E+00  0.000000000000E+00  0.000000000000E+00  0.000000000000E+00  0.000000000000E+00
  0.000000000000E+00  0.000000000000E+00  0.000000000000E+00  0.000000000000E+00  0.000000000000E+00
  0.000000000000E+00  0.000000000000E+00  0.000000000000E+00 -0.226594448727E-01  0.112194837138E-01  0.000000000000E+00  0.181895808736E-01
 -0.100732388450E+00  0.385290274601E-02 -0.389417113922E-01  0.339611219216E-01  0.000000000000E+00  0.656426756375E-01 -0.424642497489E-01
  0.838411258511E-02 -0.653604218374E-02  0.487155149820E-01  0.134268380414E-01  0.453283647345E-01  0.711320044519E-03 -0.736126725637E-03
  0.238397509969E-02  0.837560697179E-03  0.352703257905E-02  0.103006274691E-01  0.427267806086E-02  0.337245546656E-02  0.471453908010E-03
  0.570390148522E-02  0.305979601308E-03  0.160645067800E-02  0.567795794854E-03  0.236433386974E-02
  0.672973102999E+00  0.675791029137E+00  0.602570517186E+00  0.676155616407E+00  0.691393398246E+00  0.683710109461E+00  0.689988573841E+00
  0.677395926403E+00  0.695267859873E+00  0.696328672277E+00  0.703514410751E+00  0.961496278542E+00  0.719946029593E+00  0.722885115765E+00
  0.709495718070E+00  0.713707846613E+00  0.726005207918E+00  0.716614508805E+00  0.782491126587E+00  0.722258491659E+00  0.716132745894E+00
  0.716553859953E+00  0.716542443205E+00  0.737375265468E+00  0.722640579134E+00  0.719421876905E+00  0.719547975831E+00  0.722747146815E+00
  0.716025292936E+00  0.715847806537E+00  0.718137409591E+00  0.717062205010E+00  0.718602762082E+00
  0.000000000000E+00  0.000000000000E+00  0.000000000000E+00  0.444930451111E+00  0.402807412271E+00  0.000000000000E+00  0.379033733669E+00
  0.508818741757E+00  0.575701388660E+00  0.573472086390E+00  0.562547796233E+00  0.000000000000E+00  0.491637770091E+00  0.534336810319E+00
  0.556352166100E+00  0.564140543549E+00  0.522485305760E+00  0.521817732497E+00  0.440666223988E+00  0.517132974700E+00  0.524068290256E+00
  0.503616124173E+00  0.509419882669E+00  0.469884099829E+00  0.495645021053E+00  0.494503349897E+00  0.488630220829E+00  0.489034110003E+00
  0.492987210629E+00  0.498957578693E+00  0.486507810991E+00  0.484614067437E+00  0.495364300009E+00
  0.999989346051E+00  0.999989416950E+00  0.999989633807E+00  0.981380958122E+00  0.988680688207E+00  0.999989834592E+00  0.982276404777E+00
  0.984074898384E+00  0.990406105404E+00  0.990319064575E+00  0.994391020894E+00  0.999990302555E+00  0.988748609917E+00  0.100365237948E+01
  0.999773188999E+00  0.100117376047E+01  0.100830260728E+01  0.100251270325E+01  0.102983027031E+01  0.100441979246E+01  0.100199189596E+01
  0.100081961634E+01  0.100137905854E+01  0.100825880457E+01  0.100297440068E+01  0.100191721330E+01  0.100214791928E+01  0.100354834108E+01
  0.100047554933E+01  0.100056537452E+01  0.100126704218E+01  0.100066742118E+01  0.100178631588E+01
        15         9        16        16
        15        18        11        11
        22        15        21        21
        11         5         9         9
         5         7         2         2
        11         9        15        15
        16        21        15        15
        16        10        14        14
        18        17        11        11
        17        25        24        24
        22        18        15        15
        22        30        31        31
        30        21        23        23
        16        20        23        23
        22        27        26        26
        10         9         4         4
         7        11        13        13
        25        18        26        26
        11         7         5         5
         5         1         4         4
        17        19        13        13
        23        32        30        30
        23        20        29        29
         4         9         5         5
         4         8        10        10
        26        18        22        22
        26        28        25        25
        13        11        17        17
        13         6         7         7
        31        30        32        32
         2         1         5         5
         2         7         6         6
        14        10         8         8
        24        19        17        17
        24        25        28        28
         9        10        16        16
         3         4         1         1
        33        26        27        27
        12        13        19        19
        21        30        22        22
        16        14        20        20
        16        23        21        21
        22        31        27        27
        18        25        17        17
        26        33        28        28
         4         3         8         8
        23        29        32        32
        13        12         6         6
zone t="boundary 4 bc-4", solutiontime= 0.8000000E+02, strandid=1004, i=32, j=46, f=feblock
  0.125000000000E+01  0.219251206392E+01  0.103724302461E+01  0.500000000000E+01  0.250000000000E+01  0.375000000000E+01  0.404200324774E+01
  0.500000000000E+01  0.000000000000E+00  0.310152362409E+01  0.202479342020E+01  0.324151231464E+01  0.922061490191E+00  0.000000000000E+00
  0.299062775774E+01  0.394624082883E+01  0.500000000000E+01  0.409252726285E+01  0.500000000000E+01  0.429310310915E+01  0.175434191980E+01
  0.284428995242E+01  0.000000000000E+00  0.000000000000E+00  0.715990576545E+00  0.930412228790E+00  0.125000000000E+01  0.187029682677E+01
  0.500000000000E+01  0.375000000000E+01  0.250000000000E+01  0.000000000000E+00
  0.250494205109E+01  0.157686156160E+01  0.146289271009E+01  0.250494205109E+01  0.250494205109E+01  0.250494205109E+01  0.155830813274E+01
  0.125000000000E+01  0.250494205109E+01  0.177790177481E+01  0.477386199275E+00  0.742988685424E+00  0.308372018325E+00  0.125000000000E+01
 -0.487811078581E+00 -0.144524380962E+01 -0.125000000000E+01 -0.345533899378E+00  0.000000000000E+00  0.627766083140E+00 -0.739814786992E+00
 -0.158811787973E+01  0.000000000000E+00 -0.125000000000E+01 -0.600232012419E+00 -0.154800130438E+01 -0.249658898644E+01 -0.178862290564E+01
 -0.249658898644E+01 -0.249658898644E+01 -0.249658898644E+01 -0.249658898644E+01
  0.500000000000E+01  0.500000000000E+01  0.500000000000E+01  0.500000000000E+01  0.500000000000E+01  0.500000000000E+01  0.500000000000E+01
  0.500000000000E+01  0.500000000000E+01  0.500000000000E+01  0.500000000000E+01  0.500000000000E+01  0.500000000000E+01  0.500000000000E+01
  0.500000000000E+01  0.500000000000E+01  0.500000000000E+01  0.500000000000E+01  0.500000000000E+01  0.500000000000E+01  0.500000000000E+01
  0.500000000000E+01  0.500000000000E+01  0.500000000000E+01  0.500000000000E+01  0.500000000000E+01  0.500000000000E+01  0.500000000000E+01
  0.500000000000E+01  0.500000000000E+01  0.500000000000E+01  0.500000000000E+01
  0.100520806039E+01  0.100431923855E+01  0.100430498736E+01  0.100195892921E+01  0.100412011089E+01  0.100321751840E+01  0.100258950476E+01
  0.100200889374E+01  0.100424995927E+01  0.100371855659E+01  0.100446255859E+01  0.100347199660E+01  0.100365301522E+01  0.100423991984E+01
  0.100362939232E+01  0.100164315538E+01  0.100227308848E+01  0.100227913388E+01  0.100213224049E+01  0.100254677931E+01  0.100442989570E+01
  0.100338023697E+01  0.100288596729E+01  0.100335006119E+01  0.100323313486E+01  0.100406903772E+01  0.100511534111E+01  0.100432403586E+01
  0.100179357870E+01  0.100266912135E+01  0.100322320620E+01  0.100399794252E+01
  0.489143082717E+00  0.489273560301E+00  0.491032973427E+00  0.493071426006E+00  0.486813275800E+00  0.484775428791E+00  0.485406763245E+00
  0.494264082956E+00  0.495800903773E+00  0.486819185131E+00  0.488146801074E+00  0.487231246942E+00  0.494435307434E+00  0.496535899972E+00
  0.487825246090E+00  0.483167754139E+00  0.492561906202E+00  0.487246885121E+00  0.494865195625E+00  0.488002432051E+00  0.490072122676E+00
  0.488216390097E+00  0.497536487409E+00  0.496381521705E+00  0.495257685516E+00  0.493195603333E+00  0.490417259679E+00  0.490359933390E+00
  0.491396777613E+00  0.486161134218E+00  0.490250027012E+00  0.495515502830E+00
  0.000000000000E+00 -0.578636223777E-04 -0.127351895774E-02  0.000000000000E+00  0.000000000000E+00  0.000000000000E+00  0.474018877670E-03
  0.850810152448E-03  0.000000000000E+00  0.314096102827E-03 -0.890188214634E-03 -0.751269345959E-03 -0.173054569922E-02 -0.665396540884E-04
 -0.105319427211E-02 -0.998841555005E-03 -0.129445858735E-02 -0.207760203353E-02 -0.126376457185E-02 -0.997050705500E-03 -0.597641231089E-03
 -0.743089002775E-03 -0.202432857465E-03  0.805362278621E-03  0.601393700045E-04  0.162347648248E-02  0.000000000000E+00  0.803300309413E-03
  0.000000000000E+00  0.000000000000E+00  0.000000000000E+00  0.000000000000E+00