title="tecplot geometry and solution file"
variables = x y z rho u v w p mach temperature
zone t="boundary 1 bc-1", solutiontime= 0.1000000E+02, strandid=1001, i=32, j=46, f=feblock
 -0.547454789457E-02  0.000000000000E+00 -0.567596495155E-02  0.000000000000E+00  0.000000000000E+00  0.000000000000E+00 -0.525081104812E-02
 -0.425695585107E-02  0.000000000000E+00  0.000000000000E+00  0.000000000000E+00  0.000000000000E+00  0.000000000000E+00  0.000000000000E+00
  0.000000000000E+00  0.000000000000E+00 -0.338306800861E-02  0.000000000000E+00  0.000000000000E+00  0.000000000000E+00  0.000000000000E+00
  0.000000000000E+00  0.000000000000E+00  0.000000000000E+00  0.000000000000E+00  0.000000000000E+00  0.000000000000E+00  0.000000000000E+00
  0.000000000000E+00  0.000000000000E+00  0.000000000000E+00  0.000000000000E+00
  0.250494205109E+01  0.250494205109E+01  0.127822176491E+01  0.146289271009E+01  0.157686156160E+01  0.308372018325E+00  0.261953807315E-01
 -0.122573392194E+01 -0.600232012419E+00  0.250494205109E+01  0.477386199275E+00  0.742988685424E+00 -0.739814786992E+00  0.177790177481E+01
  0.155830813274E+01  0.250494205109E+01 -0.249658898644E+01 -0.154800130438E+01 -0.487811078581E+00  0.250494205109E+01  0.627766083140E+00
 -0.345533899378E+00 -0.178862290564E+01 -0.158811787973E+01  0.125000000000E+01 -0.249658898644E+01 -0.144524380962E+01  0.000000000000E+00
 -0.125000000000E+01 -0.249658898644E+01 -0.249658898644E+01 -0.249658898644E+01
  0.811177949225E-04  0.125000000000E+01  0.829429528721E-04  0.103724302461E+01  0.219251206392E+01  0.922061490191E+00  0.104283509303E-03
  0.346902148094E-04  0.715990576545E+00  0.250000000000E+01  0.202479342020E+01  0.324151231464E+01  0.175434191980E+01  0.310152362409E+01
  0.404200324774E+01  0.375000000000E+01  0.815052046199E-04  0.930412228790E+00  0.299062775774E+01  0.500000000000E+01  0.429310310915E+01
  0.409252726285E+01  0.187029682677E+01  0.284428995242E+01  0.500000000000E+01  0.125000000000E+01  0.394624082883E+01  0.500000000000E+01
  0.500000000000E+01  0.250000000000E+01  0.375000000000E+01  0.500000000000E+01
  0.134579606983E+01  0.106310044949E+01  0.142645953174E+01  0.108600055837E+01  0.103190469709E+01  0.120121767905E+01  0.164490621318E+01
  0.149366442301E+01  0.123484106902E+01  0.102373437362E+01  0.102850450161E+01  0.101302993800E+01  0.103299816914E+01  0.101446836648E+01
  0.100651642536E+01  0.100812056281E+01  0.144690022151E+01  0.116342429941E+01  0.101487209067E+01  0.100300785853E+01  0.100672208311E+01
  0.100732161734E+01  0.104648766179E+01  0.101923366291E+01  0.100388684722E+01  0.106502036267E+01  0.100784614827E+01  0.100322259399E+01
  0.100343939586E+01  0.102863032299E+01  0.100957106644E+01  0.100375273275E+01
  0.000000000000E+00  0.445749885387E+00  0.000000000000E+00  0.467010969433E+00  0.463469448631E+00  0.443739031822E+00  0.000000000000E+00
  0.000000000000E+00  0.379568774656E+00  0.472122837830E+00  0.466852700696E+00  0.479458340227E+00  0.489860052000E+00  0.484555910915E+00
  0.488091386342E+00  0.489727455091E+00  0.000000000000E+00  0.451222281132E+00  0.474771966982E+00  0.496327074509E+00  0.491025238576E+00
  0.486765409437E+00  0.449466392316E+00  0.466773218484E+00  0.497485594490E+00  0.445505171060E+00  0.487515747448E+00  0.498111379976E+00
  0.496779193269E+00  0.469842508276E+00  0.489121353476E+00  0.495721719755E+00
  0.000000000000E+00  0.000000000000E+00  0.000000000000E+00  0.171595252485E-01 -0.213964894899E-02  0.325095575362E-01  0.000000000000E+00
  0.000000000000E+00 -0.693143740138E-02  0.000000000000E+00  0.417850483805E-02 -0.516948567654E-02 -0.424804588811E-02  0.487166323070E-04
 -0.794540959850E-03  0.000000000000E+00  0.000000000000E+00 -0.800094082112E-02  0.437519371796E-03  0.000000000000E+00 -0.211833400581E-02
 -0.137665172148E-02  0.159424902952E-02 -0.189651392870E-02 -0.439437420445E-03  0.000000000000E+00 -0.224057791812E-03 -0.424263764689E-03
  0.823278414873E-03  0.000000000000E+00  0.000000000000E+00  0.000000000000E+00
  0.000000000000E+00  0.456619256606E-01  0.000000000000E+00  0.122554954370E+00  0.246549799849E-01  0.166035938102E+00  0.000000000000E+00
  0.000000000000E+00  0.156423116690E+00  0.371660714620E-02  0.268922248153E-01 -0.604532509359E-02  0.757049054011E-01  0.395469425651E-02
  0.316533298684E-03  0.888728598532E-03  0.000000000000E+00  0.140844086045E+00 -0.762722484976E-02  0.449702061773E-02  0.216651652580E-03
 -0.422461578622E-02  0.259714162578E-01 -0.133810058701E-02  0.447418435201E-02  0.845147674238E-01 -0.110908995755E-02  0.318991742229E-02
  0.319343576443E-02  0.273139130975E-02 -0.869622333054E-03  0.446552021650E-02
  0.961273585034E+00  0.782065664866E+00  0.101889025450E+01  0.808174903444E+00  0.745943737732E+00  0.879730267369E+00  0.117492293154E+01
  0.106689480823E+01  0.916106112927E+00  0.737235017439E+00  0.743815049033E+00  0.725796591613E+00  0.757563876410E+00  0.729007274785E+00
  0.720574793282E+00  0.722600327112E+00  0.103349264065E+01  0.857677658154E+00  0.728190519645E+00  0.718029223379E+00  0.721013999495E+00
  0.721166743268E+00  0.759911822554E+00  0.732630906273E+00  0.718477966889E+00  0.791123575173E+00  0.722096167812E+00  0.717601400046E+00
  0.717830982874E+00  0.741815042115E+00  0.724013281708E+00  0.718449581014E+00
  0.000000000000E+00  0.441529326383E+00  0.000000000000E+00  0.473326946684E+00  0.461362294480E+00  0.469000598950E+00  0.000000000000E+00
  0.000000000000E+00  0.402886618916E+00  0.470213520364E+00  0.464754007673E+00  0.478795758550E+00  0.489203374934E+00  0.483111824499E+00
  0.487538248438E+00  0.488875540468E+00  0.000000000000E+00  0.465354916494E+00  0.473762208136E+00  0.495795844356E+00  0.490373316499E+00
  0.486228056549E+00  0.446524403332E+00  0.465309096808E+00  0.497015438535E+00  0.444654734608E+00  0.486771788936E+00  0.497769775149E+00
  0.496413317010E+00  0.467603195838E+00  0.488144581439E+00  0.495229802441E+00
  0.999990302555E+00  0.102990449429E+01  0.999990763541E+00  0.104184556453E+01  0.101203263807E+01  0.102531156159E+01  0.999991422600E+00
  0.999992172611E+00  0.103863451765E+01  0.100820002826E+01  0.101248080783E+01  0.100304560620E+01  0.102670988067E+01  0.100605422349E+01
  0.100227347033E+01  0.100349154186E+01  0.999992726105E+00  0.103208152179E+01  0.100452730632E+01  0.100222635763E+01  0.100267950433E+01
  0.100229501998E+01  0.101661643077E+01  0.100632789723E+01  0.100197463133E+01  0.103995476900E+01  0.100306444260E+01  0.100141480673E+01
  0.100151875656E+01  0.100963488607E+01  0.100400915605E+01  0.100206891658E+01
        12        19        11        11
        11         5        12        12
        10        14         5         5
        19        13        11        11
        19        24        13        13
        30        23        24        24
        19        12        22        22
        28        22        21        21
        11        13         6         6
         7         6         9         9
        15        12        14        14
        18        13        23        23
        15        25        21        21
        27        19        22        22
        18         8         9         9
        27        31        24        24
         4        11         6         6
         5        14        12        12
         4         2         5         5
        21        12        15        15
        14        16        15        15
        24        19        27        27
        22        29        27        27
        23        26        18        18
        17         8        18        18
         5        11         4         4
         6         3         4         4
        26        23        30        30
         5         2        10        10
        16        14        10        10
         3         6         7         7
        21        25        28        28
        29        22        28        28
         6        13         9         9
         2         4         1         1
        31        27        32        32
        25        15        20        20
        24        23        13        13
         8         7         9         9
        13        18         9         9
        31        30        24        24
        12        21        22        22
        29        32        27        27
         3         1         4         4
        26        17        18        18
        16        20        15        15
zone t="boundary 2 bc-2", solutiontime= 0.1000000E+02, strandid=1002, i=33, j=48, f=feblock
  0.500195297846E+01  0.375034879869E+01  0.249861160855E+01  0.288036697933E+01  0.124717543368E+01  0.190856734555E+01  0.326577208358E+01
  0.201394882191E+01 -0.338306800861E-02  0.962374580515E+00  0.500000000000E+01  0.403430219970E+01  0.423029575644E+01  0.500000000000E+01
  0.385439197114E+01  0.500000000000E+01  0.398133436456E+01  0.315200087393E+01  0.266958040931E+01  0.154798038680E+01  0.218327863841E+01
  0.893688554177E+00  0.000000000000E+00  0.699009794583E+00  0.964460912828E+00  0.310303674226E+01  0.000000000000E+00  0.000000000000E+00
  0.125000000000E+01  0.500000000000E+01  0.375000000000E+01  0.250000000000E+01  0.000000000000E+00
 -0.249658898644E+01 -0.249658898644E+01 -0.249658898644E+01 -0.249658898644E+01 -0.249658898644E+01 -0.249658898644E+01 -0.249658898644E+01
 -0.249658898644E+01 -0.249658898644E+01 -0.249658898644E+01 -0.249658898644E+01 -0.249658898644E+01 -0.249658898644E+01 -0.249658898644E+01
 -0.249658898644E+01 -0.249658898644E+01 -0.249658898644E+01 -0.249658898644E+01 -0.249658898644E+01 -0.249658898644E+01 -0.249658898644E+01
 -0.249658898644E+01 -0.249658898644E+01 -0.249658898644E+01 -0.249658898644E+01 -0.249658898644E+01 -0.249658898644E+01 -0.249658898644E+01
 -0.249658898644E+01 -0.249658898644E+01 -0.249658898644E+01 -0.249658898644E+01 -0.249658898644E+01
  0.108951811956E-03  0.146841511908E-03  0.100939937681E-03  0.901663569978E+00  0.111188885151E-03  0.714928506180E+00  0.188140663357E+01
  0.175892185999E+01  0.815052046199E-04  0.957504584123E+00  0.125000000000E+01  0.100596734432E+01  0.191313533770E+01  0.250000000000E+01
  0.292898108478E+01  0.375000000000E+01  0.406883374833E+01  0.363389299144E+01  0.284756875487E+01  0.292582319278E+01  0.395754061536E+01
  0.205027270663E+01  0.125000000000E+01  0.306703277861E+01  0.397155769864E+01  0.433068626773E+01  0.250000000000E+01  0.375000000000E+01
  0.500000000000E+01  0.500000000000E+01  0.500000000000E+01  0.500000000000E+01  0.500000000000E+01
  0.831980667279E+00  0.937081611525E+00  0.935654492201E+00  0.968920810101E+00  0.961410225824E+00  0.965408700232E+00  0.983931972548E+00
  0.991400010888E+00  0.144690022151E+01  0.102885946488E+01  0.956208417722E+00  0.962314891750E+00  0.980935360444E+00  0.100482279254E+01
  0.997443599667E+00  0.100970373364E+01  0.100232290168E+01  0.997928080085E+00  0.991356822474E+00  0.100156298092E+01  0.100107833526E+01
  0.101225475919E+01  0.106502036267E+01  0.101060010060E+01  0.100683122149E+01  0.100117248154E+01  0.102863032299E+01  0.100957106644E+01
  0.100530795899E+01  0.100464400816E+01  0.100443117189E+01  0.100328171863E+01  0.100375273275E+01
  0.000000000000E+00  0.000000000000E+00  0.000000000000E+00  0.379546987009E+00  0.000000000000E+00  0.341056697889E+00  0.580213753429E+00
  0.573845393631E+00  0.000000000000E+00  0.489277140444E+00  0.496128225458E+00  0.432990932804E+00  0.567947366808E+00  0.536104206338E+00
  0.567073593550E+00  0.516442762338E+00  0.508584874653E+00  0.528272605269E+00  0.566549821886E+00  0.533148731682E+00  0.506484401522E+00
  0.520948273947E+00  0.445505171060E+00  0.491869994284E+00  0.492620184260E+00  0.501345402336E+00  0.469842508276E+00  0.489121353476E+00
  0.487821401081E+00  0.491941336384E+00  0.485639733300E+00  0.487563862039E+00  0.495721719755E+00
  0.000000000000E+00  0.000000000000E+00  0.000000000000E+00  0.000000000000E+00  0.000000000000E+00  0.000000000000E+00  0.000000000000E+00
  0.000000000000E+00  0.000000000000E+00  0.000000000000E+00  0.000000000000E+00  0.000000000000E+00  0.000000000000E+00  0.000000000000E+00
  0.000000000000E+00  0.000000000000E+00  0.000000000000E+00  0.000000000000E+00  0.000000000000E+00  0.000000000000E+00  0.000000000000E+00
  0.000000000000E+00  0.000000000000E+00  0.000000000000E+00  0.000000000000E+00  0.000000000000E+00  0.000000000000E+00  0.000000000000E+00
  0.000000000000E+00  0.000000000000E+00  0.000000000000E+00  0.000000000000E+00  0.000000000000E+00
  0.000000000000E+00  0.000000000000E+00  0.000000000000E+00 -0.232754732127E-02  0.000000000000E+00  0.183175721163E-01  0.114019300401E-01
  0.448071899202E-01  0.000000000000E+00  0.863064800565E-01 -0.967085325617E-01 -0.216123413532E-01 -0.301680603342E-01 -0.405519893343E-01
 -0.704144137931E-03  0.144621500340E-02  0.149241489233E-02  0.182819266506E-02  0.153396966681E-01  0.288286098247E-01  0.619222872393E-02
  0.554716908721E-01  0.845147674238E-01  0.112046066722E-01  0.662552059616E-02  0.667993587504E-04  0.273139130975E-02 -0.869622333054E-03
  0.372286948624E-02  0.526861126963E-02  0.880428645107E-03  0.936361632560E-03  0.446552021650E-02
  0.594268036859E+00  0.669339786347E+00  0.668320324022E+00  0.684585166019E+00  0.686716879408E+00  0.679354863518E+00  0.696052494703E+00
  0.702361925567E+00  0.103349264065E+01  0.723259260005E+00  0.672969642919E+00  0.676558767235E+00  0.694036084679E+00  0.720006966437E+00
  0.712601200559E+00  0.724664926653E+00  0.716600458481E+00  0.713244600737E+00  0.706658020208E+00  0.717792291809E+00  0.715723737043E+00
  0.730905012045E+00  0.791123575173E+00  0.724252444210E+00  0.721063143609E+00  0.715505336572E+00  0.741815042115E+00  0.724013281708E+00
  0.719803629956E+00  0.717748022595E+00  0.717431676588E+00  0.717305618379E+00  0.718449581014E+00
  0.000000000000E+00  0.000000000000E+00  0.000000000000E+00  0.381627881090E+00  0.000000000000E+00  0.344108421808E+00  0.583135365081E+00
  0.577955972749E+00  0.000000000000E+00  0.500813001782E+00  0.509221078084E+00  0.436979391197E+00  0.571458975413E+00  0.536785158089E+00
  0.567017731836E+00  0.515214693649E+00  0.508354389579E+00  0.528113230795E+00  0.567340220804E+00  0.533037879482E+00  0.506285900511E+00
  0.521066662566E+00  0.444654734608E+00  0.491183361209E+00  0.492015913062E+00  0.501211510197E+00  0.467603195838E+00  0.488144581439E+00
  0.487250195706E+00  0.491919797304E+00  0.485647016341E+00  0.487335024125E+00  0.495229802441E+00
  0.999993490622E+00  0.999993692504E+00  0.999993546154E+00  0.989161572788E+00  0.999993140646E+00  0.985175303161E+00  0.990387059037E+00
  0.991836478711E+00  0.999992726105E+00  0.984160615298E+00  0.985305590941E+00  0.984274775595E+00  0.990534705682E+00  0.100317166419E+01
  0.100019858879E+01  0.100478077234E+01  0.100091561331E+01  0.100061563650E+01  0.997946658421E+00  0.100334100568E+01  0.100093388955E+01
  0.101087893890E+01  0.103995476900E+01  0.100331814859E+01  0.100263915093E+01  0.100053436313E+01  0.100963488607E+01  0.100400915605E+01
  0.100240436070E+01  0.100020228407E+01  0.999973293677E+00  0.100094305227E+01  0.100206891658E+01
        15         7        19        19
         8        20        19        19
        18        19        21        21
         7         4         8         8
         3         6         4         4
        19         7         8         8
        19        18        15        15
        14        13        15        15
         8        22        20        20
        27        24        22        22
        19        20        21        21
        32        26        21        21
        17        18        26        26
        17        16        15        15
        25        29        21        21
        12         7        13        13
        10         8         6         6
        25        20        24        24
         4         6         8         8
        12         2         4         4
        10        23        22        22
        26        31        17        17
        30        16        17        17
         4         7        12        12
        13        11        12        12
        21        20        25        25
        24        28        25        25
        22         8        10        10
         6         5        10        10
        31        26        32        32
         4         2         3         3
         5         6         3         3
        11        13        14        14
        22        23        27        27
        28        24        27        27
        15        13         7         7
         2        12         1         1
        29        25        33        33
        23        10         9         9
        21        26        18        18
        16        14        15        15
        18        17        15        15
        29        32        21        21
        22        24        20        20
        28        33        25        25
        11         1        12        12
        31        30        17        17
         5         9        10        10
zone t="boundary 3 bc-3", solutiontime= 0.1000000E+02, strandid=1003, i=33, j=48, f=feblock
  0.375059159829E+01  0.249769623668E+01  0.500322215753E+01  0.403612265425E+01  0.287976811604E+01  0.124541983852E+01  0.190552277536E+01
  0.500000000000E+01  0.326671125795E+01  0.423253772263E+01  0.201271159438E+01 -0.547454789457E-02  0.958896057123E+00  0.500000000000E+01
  0.266968157739E+01  0.385584498196E+01  0.890374308422E+00  0.154654020440E+01  0.000000000000E+00  0.500000000000E+01  0.315261143133E+01
  0.218304201496E+01  0.398195312396E+01  0.000000000000E+00  0.697379970105E+00  0.963757272160E+00  0.125000000000E+01  0.000000000000E+00
  0.500000000000E+01  0.310330741486E+01  0.250000000000E+01  0.375000000000E+01  0.000000000000E+00
  0.250494205109E+01  0.250494205109E+01  0.250494205109E+01  0.250494205109E+01  0.250494205109E+01  0.250494205109E+01  0.250494205109E+01
  0.250494205109E+01  0.250494205109E+01  0.250494205109E+01  0.250494205109E+01  0.250494205109E+01  0.250494205109E+01  0.250494205109E+01
  0.250494205109E+01  0.250494205109E+01  0.250494205109E+01  0.250494205109E+01  0.250494205109E+01  0.250494205109E+01  0.250494205109E+01
  0.250494205109E+01  0.250494205109E+01  0.250494205109E+01  0.250494205109E+01  0.250494205109E+01  0.250494205109E+01  0.250494205109E+01
  0.250494205109E+01  0.250494205109E+01  0.250494205109E+01  0.250494205109E+01  0.250494205109E+01
  0.136583964942E-03  0.110549738900E-03  0.970966005368E-04  0.101756818401E+01  0.908095282726E+00  0.104109038369E-03  0.722629465269E+00
  0.125000000000E+01  0.188965709564E+01  0.191862728898E+01  0.176708277179E+01  0.811177949225E-04  0.969652977846E+00  0.250000000000E+01
  0.285339465291E+01  0.293325084262E+01  0.205656245254E+01  0.293157039419E+01  0.125000000000E+01  0.375000000000E+01  0.363766858432E+01
  0.396069459095E+01  0.407056395705E+01  0.250000000000E+01  0.307032006010E+01  0.397359827757E+01  0.500000000000E+01  0.375000000000E+01
  0.500000000000E+01  0.433260791223E+01  0.500000000000E+01  0.500000000000E+01  0.500000000000E+01
  0.944108748316E+00  0.947582241422E+00  0.843975319485E+00  0.966089221869E+00  0.980410723741E+00  0.957940612979E+00  0.984240190178E+00
  0.964281976636E+00  0.982948284042E+00  0.984219986969E+00  0.990775173747E+00  0.134579606983E+01  0.101933145697E+01  0.100736034852E+01
  0.993561242095E+00  0.997623329771E+00  0.100788726642E+01  0.100080338261E+01  0.106310044949E+01  0.100614349229E+01  0.100059548179E+01
  0.100250655974E+01  0.100183324468E+01  0.102373437362E+01  0.100879257911E+01  0.100540099779E+01  0.100527703199E+01  0.100812056281E+01
  0.100456341263E+01  0.100186921085E+01  0.100461384530E+01  0.100576640193E+01  0.100300785853E+01
  0.000000000000E+00  0.000000000000E+00  0.000000000000E+00  0.441832610687E+00  0.401146555974E+00  0.000000000000E+00  0.374395006727E+00
  0.495216609447E+00  0.571828938365E+00  0.568571381865E+00  0.558803156191E+00  0.000000000000E+00  0.483807717189E+00  0.533412014939E+00
  0.556222508045E+00  0.563789979429E+00  0.522485908641E+00  0.522702863216E+00  0.445749885387E+00  0.518409457949E+00  0.525083238301E+00
  0.503127377602E+00  0.508858207928E+00  0.472122837830E+00  0.496229370258E+00  0.494415711749E+00  0.486449124588E+00  0.489727455091E+00
  0.493325073575E+00  0.497964673568E+00  0.483734994787E+00  0.484184966338E+00  0.496327074509E+00
  0.000000000000E+00  0.000000000000E+00  0.000000000000E+00  0.000000000000E+00  0.000000000000E+00  0.000000000000E+00  0.000000000000E+00
  0.000000000000E+00  0.000000000000E+00  0.000000000000E+00  0.000000000000E+00  0.000000000000E+00  0.000000000000E+00  0.000000000000E+00
  0.000000000000E+00  0.000000000000E+00  0.000000000000E+00  0.000000000000E+00  0.000000000000E+00  0.000000000000E+00  0.000000000000E+00
  0.000000000000E+00  0.000000000000E+00  0.000000000000E+00  0.000000000000E+00  0.000000000000E+00  0.000000000000E+00  0.000000000000E+00
  0.000000000000E+00  0.000000000000E+00  0.000000000000E+00  0.000000000000E+00  0.000000000000E+00
  0.000000000000E+00  0.000000000000E+00  0.000000000000E+00 -0.225003309772E-01  0.108502205485E-01  0.000000000000E+00  0.179274548419E-01
 -0.978826061404E-01  0.370575273110E-02 -0.376720201137E-01  0.330155901449E-01  0.000000000000E+00  0.649535830558E-01 -0.414973434460E-01
  0.828323896307E-02 -0.592850241004E-02  0.480785308084E-01  0.129212365930E-01  0.456619256606E-01 -0.187890889275E-03 -0.345163185641E-03
  0.201382781293E-02  0.148485437986E-02  0.371660714620E-02  0.100525800817E-01  0.434434747095E-02  0.371829894845E-02  0.888728598532E-03
  0.485460830994E-02  0.717530821726E-03  0.210359919663E-02  0.238885189870E-02  0.449702061773E-02
  0.674356207021E+00  0.676837295080E+00  0.602833264767E+00  0.676718823424E+00  0.691760097289E+00  0.684236339373E+00  0.690337140474E+00
  0.677797472729E+00  0.695294643340E+00  0.696308013079E+00  0.703630905980E+00  0.961273585034E+00  0.719667645831E+00  0.722275580826E+00
  0.709573195336E+00  0.713536878627E+00  0.725940559209E+00  0.716708602843E+00  0.782065664866E+00  0.721741081603E+00  0.716088796331E+00
  0.716755136019E+00  0.716393111425E+00  0.737235017439E+00  0.722622255902E+00  0.719578337560E+00  0.719923915122E+00  0.722600327112E+00
  0.717624108615E+00  0.715891161337E+00  0.718234362586E+00  0.718306206132E+00  0.718029223379E+00
  0.000000000000E+00  0.000000000000E+00  0.000000000000E+00  0.446745977251E+00  0.403760778303E+00  0.000000000000E+00  0.378253779200E+00
  0.508868082515E+00  0.574635065400E+00  0.572555471667E+00  0.561392526313E+00  0.000000000000E+00  0.490997849484E+00  0.534010748775E+00
  0.556328633170E+00  0.563446169405E+00  0.522512828607E+00  0.522187640792E+00  0.441529326383E+00  0.517306785619E+00  0.524577984577E+00
  0.502893029258E+00  0.508576904641E+00  0.470213520364E+00  0.495624556013E+00  0.493941625017E+00  0.485831505749E+00  0.488875540468E+00
  0.493321867046E+00  0.497871174188E+00  0.483519601966E+00  0.484224011341E+00  0.495795844356E+00
  0.999989346051E+00  0.999989416950E+00  0.999989633807E+00  0.980661341982E+00  0.987814711480E+00  0.999989834592E+00  0.981947299357E+00
  0.984065330279E+00  0.990298794432E+00  0.990460701081E+00  0.994255098910E+00  0.999990302555E+00  0.988426970710E+00  0.100379751361E+01
  0.999840202478E+00  0.100133146476E+01  0.100836355092E+01  0.100258658335E+01  0.102990449429E+01  0.100426780274E+01  0.100192768517E+01
  0.100094825383E+01  0.100111506713E+01  0.100820002826E+01  0.100285348962E+01  0.100199788423E+01  0.100260271457E+01  0.100349154186E+01
  0.100010983820E+01  0.100037770900E+01  0.100091006343E+01  0.999863076208E+00  0.100222635763E+01
        15         9        16        16
        15        18        11        11
        22        15        21        21
        11         5         9         9
         5         7         2         2
        11         9        15        15
        16        21        15        15
        16        10        14        14
        18        17        11        11
        17        25        24        24
        22        18        15        15
        22        30        31        31
        30        21        23        23
        16        20        23        23
        22        27        26        26
        10         9         4         4
         7        11        13        13
        25        18        26        26
        11         7         5         5
         5         1         4         4
        17        19        13        13
        23        32        30        30
        23        20        29        29
         4         9         5         5
         4         8        10        10
        26        18        22        22
        26        28        25        25
        13        11        17        17
        13         6         7         7
        31        30        32        32
         2         1         5         5
         2         7         6         6
        14        10         8         8
        24        19        17        17
        24        25        28        28
         9        10        16        16
         3         4         1         1
        33        26        27        27
        12        13        19        19
        21        30        22        22
        16        14        20        20
        16        23        21        21
        22        31        27        27
        18        25        17        17
        26        33        28        28
         4         3         8         8
        23        29        32        32
        13        12         6         6
zone t="boundary 4 bc-4", solutiontime= 0.1000000E+02, strandid=1004, i=32, j=46, f=feblock
  0.125000000000E+01  0.219251206392E+01  0.103724302461E+01  0.500000000000E+01  0.250000000000E+01  0.375000000000E+01  0.404200324774E+01
  0.500000000000E+01  0.000000000000E+00  0.310152362409E+01  0.202479342020E+01  0.324151231464E+01  0.922061490191E+00  0.000000000000E+00
  0.299062775774E+01  0.394624082883E+01  0.500000000000E+01  0.409252726285E+01  0.500000000000E+01  0.429310310915E+01  0.175434191980E+01
  0.284428995242E+01  0.000000000000E+00  0.000000000000E+00  0.715990576545E+00  0.930412228790E+00  0.125000000000E+01  0.187029682677E+01
  0.500000000000E+01  0.375000000000E+01  0.250000000000E+01  0.000000000000E+00
  0.250494205109E+01  0.157686156160E+01  0.146289271009E+01  0.250494205109E+01  0.250494205109E+01  0.250494205109E+01  0.155830813274E+01
  0.125000000000E+01  0.250494205109E+01  0.177790177481E+01  0.477386199275E+00  0.742988685424E+00  0.308372018325E+00  0.125000000000E+01
 -0.487811078581E+00 -0.144524380962E+01 -0.125000000000E+01 -0.345533899378E+00  0.000000000000E+00  0.627766083140E+00 -0.739814786992E+00
 -0.158811787973E+01  0.000000000000E+00 -0.125000000000E+01 -0.600232012419E+00 -0.154800130438E+01 -0.249658898644E+01 -0.178862290564E+01
 -0.249658898644E+01 -0.249658898644E+01 -0.249658898644E+01 -0.249658898644E+01
  0.500000000000E+01  0.500000000000E+01  0.500000000000E+01  0.500000000000E+01  0.500000000000E+01  0.500000000000E+01  0.500000000000E+01
  0.500000000000E+01  0.500000000000E+01  0.500000000000E+01  0.500000000000E+01  0.500000000000E+01  0.500000000000E+01  0.500000000000E+01
  0.500000000000E+01  0.500000000000E+01  0.500000000000E+01  0.500000000000E+01  0.500000000000E+01  0.500000000000E+01  0.500000000000E+01
  0.500000000000E+01  0.500000000000E+01  0.500000000000E+01  0.500000000000E+01  0.500000000000E+01  0.500000000000E+01  0.500000000000E+01
  0.500000000000E+01  0.500000000000E+01  0.500000000000E+01  0.500000000000E+01
  0.100527703199E+01  0.100482794586E+01  0.100454341219E+01  0.100456341263E+01  0.100461384530E+01  0.100576640193E+01  0.100517424412E+01
  0.100473874184E+01  0.100300785853E+01  0.100531946172E+01  0.100476822924E+01  0.100466297286E+01  0.100354564131E+01  0.100388684722E+01
  0.100457652146E+01  0.100322850873E+01  0.100486258749E+01  0.100482360603E+01  0.100475323128E+01  0.100592542635E+01  0.100444371934E+01
  0.100393106347E+01  0.100322259399E+01  0.100343939586E+01  0.100315276606E+01  0.100408305895E+01  0.100530795899E+01  0.100424133406E+01
  0.100464400816E+01  0.100443117189E+01  0.100328171863E+01  0.100375273275E+01
  0.486449124588E+00  0.486760842949E+00  0.489197241234E+00  0.493325073575E+00  0.483734994787E+00  0.484184966338E+00  0.486434892577E+00
  0.494621319339E+00  0.496327074509E+00  0.484738263283E+00  0.486064349750E+00  0.486460692770E+00  0.493030312038E+00  0.497485594490E+00
  0.486353354595E+00  0.485267391455E+00  0.493820469652E+00  0.488479463138E+00  0.495471059492E+00  0.489168034612E+00  0.487241443062E+00
  0.486474013547E+00  0.498111379976E+00  0.496779193269E+00  0.494554826910E+00  0.491652751456E+00  0.487821401081E+00  0.487524300119E+00
  0.491941336384E+00  0.485639733300E+00  0.487563862039E+00  0.495721719755E+00
  0.000000000000E+00  0.312207869467E-03 -0.139760428842E-02  0.000000000000E+00  0.000000000000E+00  0.000000000000E+00  0.817298020590E-03
  0.116259688713E-02  0.000000000000E+00  0.694633366685E-03 -0.337575886644E-03  0.249786364674E-03 -0.198197369943E-02 -0.439437420445E-03
 -0.364558273638E-03 -0.173233169633E-03 -0.195368822643E-03 -0.680025166444E-03  0.200304312361E-03  0.176620792601E-03 -0.526830062865E-03
 -0.736855699525E-04 -0.424263764689E-03  0.823278414873E-03 -0.180339201848E-03  0.146414397271E-02  0.000000000000E+00  0.844949208125E-03
  0.000000000000E+00  0.000000000000E+00  0.000000000000E+00  0.000000000000E+00