# vtk DataFile Version 2.0
FUN3D:global_image_vtk
ASCII
DATASET UNSTRUCTURED_GRID
POINTS 213 double
   -0.5474034791479813E-02    0.2504942076728992E+01    0.8150159399027681E-04
    0.1245419672959591E+01    0.2504942076728992E+01    0.1047277729471704E-03
    0.2497696577848839E+01    0.2504942076728992E+01    0.1110014622885641E-03
    0.3750591292531816E+01    0.2504942076728992E+01    0.1361998216059221E-03
    0.5003222305639440E+01    0.2504942076728992E+01    0.9710345422873593E-04
    0.5004677133222702E+01    0.1281292234626102E+01    0.1639225351491613E-03
    0.5004773639246594E+01    0.2775173908448856E-01    0.1910821770931608E-03
    0.5003582089737773E+01   -0.1225853078888782E+01    0.1617189504222013E-03
    0.5001953411348048E+01   -0.2496588976783356E+01    0.1090487764229120E-03
    0.3750349101294953E+01   -0.2496588976783356E+01    0.1460008005054494E-03
    0.2498611702424044E+01   -0.2496588976783356E+01    0.1009821411355215E-03
    0.1247175496632721E+01   -0.2496588976783356E+01    0.1112724912602214E-03
   -0.3383749369537953E-02   -0.2496588976783356E+01    0.8138799078189275E-04
   -0.4257368130220665E-02   -0.1225733816484489E+01    0.3495143506717268E-04
   -0.5250758842340434E-02    0.2619544496978931E-01    0.1049334725945922E-03
   -0.5676037539326676E-02    0.1278221945526992E+01    0.8256165600122597E-04
    0.9003215589602365E+00    0.1608979751742938E+01    0.8772925883107237E-04
    0.3983172550220766E+01   -0.1561211228563867E+01    0.1764035284144422E-03
    0.4035602434919056E+01    0.1486760979478153E+01    0.1722531803772464E-03
    0.1036614150179919E+01   -0.1455625621879872E+01    0.1056282748720346E-03
    0.1094353548258011E+01   -0.2964613435486003E+00    0.1264352964523109E-03
    0.7298406890792656E+00    0.6874692508675623E+00    0.1049285511396338E-03
    0.1617019060610020E+01    0.8553219512469192E+00    0.1531967691650307E-03
    0.2143200455099061E+01   -0.1627127781400796E+01    0.1606680274588256E-03
    0.4088841364403756E+01   -0.4351044105779334E+00    0.2721382244297130E-03
    0.2977917458254878E+01   -0.8334986102062707E+00    0.2247618513699504E-03
    0.3044093457651864E+01   -0.1814360830151587E+01    0.1623026668864034E-03
    0.3427866976848817E+01    0.3813906796016652E+00    0.2942746620253757E-03
    0.4313226140670545E+01    0.5489141099514474E+00    0.2315169160803521E-03
    0.1823033630301312E+01    0.1771266266707696E+01    0.1839668676665383E-03
    0.2806311221746753E+01    0.1358629805466062E+01    0.1953827602410102E-03
    0.1891861776913194E+01   -0.8481301166731644E+00    0.1679010941653158E-03
    0.2268770140783121E+01    0.7723713258746442E-01    0.2074544044361200E-03
    0.5000000000000000E+01    0.2504942076728992E+01    0.1250000000000000E+01
    0.5000000000000000E+01    0.2504942076728992E+01    0.2500000000000000E+01
    0.5000000000000000E+01    0.2504942076728992E+01    0.3750000000000000E+01
    0.5000000000000000E+01    0.2504942076728992E+01    0.5000000000000000E+01
    0.3750000000000000E+01    0.2504942076728992E+01    0.5000000000000000E+01
    0.2500000000000000E+01    0.2504942076728992E+01    0.5000000000000000E+01
    0.1250000000000000E+01    0.2504942076728992E+01    0.5000000000000000E+01
    0.0000000000000000E+00    0.2504942076728992E+01    0.5000000000000000E+01
    0.0000000000000000E+00    0.2504942076728992E+01    0.3750000000000000E+01
    0.0000000000000000E+00    0.2504942076728992E+01    0.2500000000000000E+01
    0.0000000000000000E+00    0.2504942076728992E+01    0.1250000000000000E+01
    0.9588960109950324E+00    0.2504942076728992E+01    0.9696534358518427E+00
    0.3981953135987070E+01    0.2504942076728992E+01    0.4070563977153090E+01
    0.4036122603048257E+01    0.2504942076728992E+01    0.1017568077737450E+01
    0.9637572680007634E+00    0.2504942076728992E+01    0.3973598317790697E+01
    0.1546540199868994E+01    0.2504942076728992E+01    0.2931570534639772E+01
    0.6973799501976604E+00    0.2504942076728992E+01    0.3070320151581353E+01
    0.8903742721114463E+00    0.2504942076728992E+01    0.2056562668050395E+01
    0.2183042025106090E+01    0.2504942076728992E+01    0.3960694642612455E+01
    0.3855845009130144E+01    0.2504942076728992E+01    0.2933250881705245E+01
    0.3152611453431021E+01    0.2504942076728992E+01    0.3637668634452495E+01
    0.3103307426069629E+01    0.2504942076728992E+01    0.4332607938454372E+01
    0.3266711307513308E+01    0.2504942076728992E+01    0.1889657179902316E+01
    0.4232537751899896E+01    0.2504942076728992E+01    0.1918627312011273E+01
    0.1905522748341233E+01    0.2504942076728992E+01    0.7226299945004641E+00
    0.2879768099364311E+01    0.2504942076728992E+01    0.9080953672824156E+00
    0.2012711620229818E+01    0.2504942076728992E+01    0.1767083060146361E+01
    0.2669681613978136E+01    0.2504942076728992E+01    0.2853394753424857E+01
    0.5000000000000000E+01    0.1250000000000000E+01    0.5000000000000000E+01
    0.5000000000000000E+01    0.0000000000000000E+00    0.5000000000000000E+01
    0.5000000000000000E+01   -0.1250000000000000E+01    0.5000000000000000E+01
    0.5000000000000000E+01   -0.2496588976783356E+01    0.5000000000000000E+01
    0.5000000000000000E+01   -0.2496588976783356E+01    0.3750000000000000E+01
    0.5000000000000000E+01   -0.2496588976783356E+01    0.2500000000000000E+01
    0.5000000000000000E+01   -0.2496588976783356E+01    0.1250000000000000E+01
    0.5000000000000000E+01    0.1578994732800803E+01    0.9058375365086910E+00
    0.5000000000000000E+01   -0.1583989954232354E+01    0.3982050490726493E+01
    0.5000000000000000E+01    0.1453322699199022E+01    0.4033849428301197E+01
    0.5000000000000000E+01   -0.1479596339503735E+01    0.1040505887381675E+01
    0.5000000000000000E+01   -0.3227322616384110E+00    0.1099454400140349E+01
    0.5000000000000000E+01    0.6593508822075582E+00    0.7354504170366591E+00
    0.5000000000000000E+01    0.8256214013940779E+00    0.1622302608453282E+01
    0.5000000000000000E+01   -0.1650070333782557E+01    0.2145871574390382E+01
    0.5000000000000000E+01   -0.4612828702537229E+00    0.4086422318222992E+01
    0.5000000000000000E+01   -0.8579242121530853E+00    0.2979540174134984E+01
    0.5000000000000000E+01   -0.1836846154397680E+01    0.3045064261640043E+01
    0.5000000000000000E+01    0.3508002863614053E+00    0.3428197553792836E+01
    0.5000000000000000E+01    0.5185680230613409E+00    0.4309693860063405E+01
    0.5000000000000000E+01    0.1738996113203182E+01    0.1827272193562204E+01
    0.5000000000000000E+01    0.1325493893339706E+01    0.2808563282768077E+01
    0.5000000000000000E+01   -0.8731419609589618E+00    0.1895995683864404E+01
    0.5000000000000000E+01    0.4906150219227333E-01    0.2273179336307740E+01
    0.0000000000000000E+00    0.1250000000000000E+01    0.5000000000000000E+01
    0.0000000000000000E+00    0.0000000000000000E+00    0.5000000000000000E+01
    0.0000000000000000E+00   -0.1250000000000000E+01    0.5000000000000000E+01
    0.0000000000000000E+00   -0.2496588976783356E+01    0.5000000000000000E+01
    0.1250000000000000E+01   -0.2496588976783356E+01    0.5000000000000000E+01
    0.2500000000000000E+01   -0.2496588976783356E+01    0.5000000000000000E+01
    0.3750000000000000E+01   -0.2496588976783356E+01    0.5000000000000000E+01
    0.4042003247744892E+01    0.1558308132739014E+01    0.5000000000000000E+01
    0.9304122287900499E+00   -0.1548001304379777E+01    0.5000000000000000E+01
    0.1037243024609388E+01    0.1462892710085612E+01    0.5000000000000000E+01
    0.3946240828834967E+01   -0.1445243809615570E+01    0.5000000000000000E+01
    0.4092527262848217E+01   -0.3455338993778935E+00    0.5000000000000000E+01
    0.4293103109154542E+01    0.6277660831404320E+00    0.5000000000000000E+01
    0.3241512314643519E+01    0.7429886854239611E+00    0.5000000000000000E+01
    0.2844289952419609E+01   -0.1588117879734118E+01    0.5000000000000000E+01
    0.7159905765450471E+00   -0.6002320124191652E+00    0.5000000000000000E+01
    0.1754341919796891E+01   -0.7398147869923652E+00    0.5000000000000000E+01
    0.1870296826774691E+01   -0.1788622905643739E+01    0.5000000000000000E+01
    0.9220614901912976E+00    0.3083720183248586E+00    0.5000000000000000E+01
    0.3101523624086016E+01    0.1777901774806180E+01    0.5000000000000000E+01
    0.2192512063922564E+01    0.1576861561598471E+01    0.5000000000000000E+01
    0.2024793420196460E+01    0.4773861992750707E+00    0.5000000000000000E+01
    0.2990627757741975E+01   -0.4878110785814084E+00    0.5000000000000000E+01
    0.0000000000000000E+00   -0.2496588976783356E+01    0.1250000000000000E+01
    0.0000000000000000E+00   -0.2496588976783356E+01    0.2500000000000000E+01
    0.0000000000000000E+00   -0.2496588976783356E+01    0.3750000000000000E+01
    0.0000000000000000E+00    0.1558308132739014E+01    0.4042003247744892E+01
    0.0000000000000000E+00   -0.1548001304379777E+01    0.9304122287900499E+00
    0.0000000000000000E+00    0.1462892710085612E+01    0.1037243024609388E+01
    0.0000000000000000E+00   -0.1445243809615570E+01    0.3946240828834967E+01
    0.0000000000000000E+00   -0.3455338993778935E+00    0.4092527262848217E+01
    0.0000000000000000E+00    0.6277660831404320E+00    0.4293103109154542E+01
    0.0000000000000000E+00    0.7429886854239611E+00    0.3241512314643519E+01
    0.0000000000000000E+00   -0.1588117879734118E+01    0.2844289952419609E+01
    0.0000000000000000E+00   -0.6002320124191652E+00    0.7159905765450471E+00
    0.0000000000000000E+00   -0.7398147869923652E+00    0.1754341919796891E+01
    0.0000000000000000E+00   -0.1788622905643739E+01    0.1870296826774691E+01
    0.0000000000000000E+00    0.3083720183248586E+00    0.9220614901912976E+00
    0.0000000000000000E+00    0.1777901774806180E+01    0.3101523624086016E+01
    0.0000000000000000E+00    0.1576861561598471E+01    0.2192512063922564E+01
[...]
POINT_DATA 213
SCALARS rho double 1
LOOKUP_TABLE default
   0.1219599712815061E+01
   0.9221792832980885E+00
   0.9104477627223793E+00
   0.8966766477725647E+00
   0.7819486736866373E+00
   0.7116569428518615E+00
   0.6990712249827072E+00
   0.7029549212339525E+00
   0.7687357434890222E+00
   0.8895233800539084E+00
   0.8987464873435588E+00
   0.9249601352551173E+00
   0.1300246680991823E+01
   0.1348040468289549E+01
   0.1456336943527433E+01
   0.1286719624663848E+01
   0.9619641461110865E+00
   0.9047655535075768E+00
   0.8972299295050491E+00
   0.9249192640729362E+00
   0.9126331841321749E+00
   0.9866005974476536E+00
   0.8974309509969010E+00
   0.8999717636874403E+00
   0.9067476761793672E+00
   0.9112479028627292E+00
   0.8943867770600288E+00
   0.9125850774948716E+00
   0.8902528929395783E+00
   0.9018653544542353E+00
   0.9063597679238788E+00
   0.8623950835098759E+00
   0.9078065484619593E+00
   0.9506821803773238E+00
   0.1008490975756530E+01
   0.1006976757192143E+01
   0.1000145908355608E+01
   0.1000492869403608E+01
   0.1001010369068770E+01
   0.1002467256229162E+01
   0.1001944764884100E+01
   0.1004886096222612E+01
   0.1016625224585999E+01
   0.1058313563805096E+01
   0.1005436779864934E+01
   0.1000007368898386E+01
   0.9457700109136983E+00
   0.1002042270796055E+01
   0.9982829485965452E+00
   0.1004492521272551E+01
   0.1005371619451610E+01
   0.9993111974843483E+00
   0.9978002647423310E+00
   0.9988040166015725E+00
   0.9987211966434679E+00
   0.9780928813436307E+00
   0.9796705980599092E+00
   0.9639505108094594E+00
   0.9601301185392312E+00
   0.9867991782006807E+00
   0.9922400530713184E+00
   0.1000342976887383E+01
   0.1000541450722026E+01
   0.1000671133419514E+01
   0.9998284143569618E+00
   0.1009782296209345E+01
   0.1007174224567112E+01
   0.9448363487414302E+00
   0.9034576544030347E+00
   0.1007039898258964E+01
   0.1004193123682062E+01
   0.8965165749110037E+00
   0.8926680816988233E+00
   0.8470449879010886E+00
   0.9708429044771525E+00
   0.1000202434707042E+01
   0.1006091577670124E+01
   0.1015639762606112E+01
   0.1012987270993552E+01
   0.1012861697217928E+01
   0.1005118612089553E+01
   0.9863622566793820E+00
   0.1006593488126431E+01
   0.9849764804446796E+00
   0.1008140582368709E+01
   0.1001902606030023E+01
   0.1000777962320257E+01
   0.1001300677005232E+01
   0.1001842922241551E+01
   0.1002348925426922E+01
   0.1000286871650316E+01
   0.1000192915887128E+01
   0.9997755928409531E+00
   0.1001746393725232E+01
   0.1001907943479432E+01
   0.9986523993256944E+00
   0.9995364916351066E+00
   0.9999232353336449E+00
   0.1000198767682964E+01
   0.1000442942109402E+01
   0.1001058840663315E+01
   0.1001457791945303E+01
   0.1001331328366639E+01
   0.1001525817236778E+01
   0.1000861176966392E+01
   0.1001344304851235E+01
   0.1001108535055127E+01
   0.1000543854566519E+01
   0.1060180596398360E+01
   0.1020434849273077E+01
   0.1005937363837513E+01
   0.1003463832603885E+01
   0.1142067368417975E+01
   0.1083370535357072E+01
   0.1004378515025223E+01
   0.1003909100932305E+01
   0.1003789599967055E+01
   0.1006675427167362E+01
   0.1012240629028803E+01
   0.1193114677629174E+01
   0.1028000765982176E+01
   0.1034785370894132E+01
   0.1169417028603396E+01
   0.1009874385155580E+01
   0.1023546147068687E+01
   0.1017121949710463E+01
   0.1007875010181468E+01
   0.1013904360027724E+01
   0.1000120422499125E+01
   0.9442368006508032E+00
   0.1003512212575573E+01
   0.9988676268239903E+00
   0.1006433375211590E+01
   0.1009136813906991E+01
   0.9979418435765509E+00
   0.9977846872019334E+00
   0.9961676263243541E+00
   0.9984778183051211E+00
   0.9810175534715541E+00
   0.9780877677843174E+00
   0.9479693367203541E+00
   0.9505424568410460E+00
   0.9877990099507454E+00
   0.9899199158637805E+00
   0.9925444403635961E+00
   0.9998150176116776E+00
   0.9986044262411145E+00
   0.9946495981692930E+00
   0.1006783292525464E+01
   0.1021195775128142E+01
   0.9979991552460633E+00
   0.1004785935120321E+01
   0.1001443252703978E+01
   0.1004870014603946E+01
   0.9952898799886508E+00
   0.9853956885505276E+00
   0.1000226007686923E+01
   0.9938930133792755E+00
   0.9819631288439734E+00
   0.9943515146760492E+00
   0.9968775175753668E+00
   0.9937161351497654E+00
   0.9987031097994038E+00
   0.1000033243928852E+01
   0.9996686276798337E+00
   0.9958480479368785E+00
   0.9933618088763326E+00
   0.1001379812974247E+01
   0.1018342563190236E+01
   0.1002761163442836E+01
   0.9806466783113561E+00
   0.1001874256941925E+01
   0.1008205815564500E+01
   0.9702346434332909E+00
   0.9431324184812016E+00
   0.9846786476111802E+00
   0.9843645636147343E+00
   0.9754697010136907E+00
   0.9908380455713490E+00
   0.9779133613801110E+00
   0.1033958394532589E+01
   0.1021656811880276E+01
   0.1000033005893161E+01
   0.9991734281024086E+00
   0.9919055450380067E+00
   0.9907248631513790E+00
   0.9574014733835223E+00
   0.9930506973662213E+00
   0.1006289132646186E+01
   0.1002044039424454E+01
   0.9896477971636948E+00
   0.9652799653301483E+00
   0.9203406678867828E+00
   0.9724368565411015E+00
   0.9781837182466039E+00
   0.9559726931472261E+00
   0.9617646129686962E+00
   0.9490309972262779E+00
   0.9366912452764670E+00
   0.9303105054318480E+00
   0.9992919149098116E+00
   0.9994619488039536E+00
   0.9988025062967072E+00
   0.1002017074945712E+01
   0.9391477801940111E+00
   0.9239055049134137E+00
   0.9359217905620170E+00
   0.9984137908363366E+00
   0.9983444566215310E+00
   0.1000450520225943E+01
   0.9793848606855282E+00
   0.9713545789969543E+00
   0.9447096770877883E+00
SCALARS u double 1
LOOKUP_TABLE default
   0.0000000000000000E+00
   0.0000000000000000E+00
   0.0000000000000000E+00
   0.0000000000000000E+00
   0.0000000000000000E+00
   0.0000000000000000E+00
   0.0000000000000000E+00
   0.0000000000000000E+00
   0.0000000000000000E+00
   0.0000000000000000E+00
   0.0000000000000000E+00
   0.0000000000000000E+00
   0.0000000000000000E+00
   0.0000000000000000E+00
   0.0000000000000000E+00
   0.0000000000000000E+00
   0.0000000000000000E+00
   0.0000000000000000E+00
   0.0000000000000000E+00
   0.0000000000000000E+00
   0.0000000000000000E+00
   0.0000000000000000E+00
   0.0000000000000000E+00
   0.0000000000000000E+00
   0.0000000000000000E+00
   0.0000000000000000E+00
   0.0000000000000000E+00
   0.0000000000000000E+00
   0.0000000000000000E+00
   0.0000000000000000E+00
   0.0000000000000000E+00
   0.0000000000000000E+00
   0.0000000000000000E+00
   0.5044656935457580E+00
   0.5290124948915487E+00
   0.5144832556077118E+00
   0.4932265012871133E+00
   0.4881034992108582E+00
   0.4912132731037204E+00
   0.4932012168324600E+00
   0.4982359626441897E+00
   0.4935755436700361E+00
   0.4788817927603840E+00
   0.4518340637832078E+00
   0.4750762131392711E+00
   0.5097783964934330E+00
   0.4511935816135509E+00
   0.4980813360417695E+00
   0.5232695112805419E+00
   0.4995198830934596E+00
   0.5239976456628500E+00
   0.5062462091717231E+00
   0.5621720046352583E+00
   0.5246973072722881E+00
   0.5014415326465785E+00
   0.5724415330691500E+00
   0.5707004935541817E+00
   0.3697808181292709E+00
   0.4030359280337443E+00
   0.5559039041163962E+00
   0.5550071670505347E+00
   0.4941866654070479E+00
   0.4946225570131504E+00
   0.4922550883001194E+00
   0.4916952773113646E+00
   0.5126203585916213E+00
   0.5320037652677077E+00
   0.5051851676939286E+00
   0.4700274018607912E+00
   0.5096958254193789E+00
   0.5089633484555924E+00
   0.4955096633454475E+00
   0.5091188933674561E+00
   0.4859970981159411E+00
   0.5290197187395155E+00
   0.5276939172481716E+00
   0.5095384239350017E+00
   0.5265023509564435E+00
   0.5255836653872421E+00
   0.5249264200918863E+00
   0.5039105651642700E+00
   0.5284460091911529E+00
   0.5353830958955724E+00
   0.5371546735588157E+00
   0.5324039249066757E+00
   0.4987533161251742E+00
   0.4995693379126209E+00
   0.4985678155678289E+00
   0.4978564033244027E+00
   0.4945363833973488E+00
   0.4946354248640999E+00
   0.4894932192803760E+00
   0.4881854170603937E+00
   0.4965709386918201E+00
   0.4946579515679925E+00
   0.4860622938035807E+00
   0.4896816119205634E+00
   0.4900401245958348E+00
   0.4911767761709874E+00
   0.4926166642893360E+00
   0.4981835104622627E+00
   0.4946289678497165E+00
   0.4948395004791137E+00
   0.4976378115614389E+00
   0.4907933186326639E+00
   0.4936012167902582E+00
   0.4927628958185787E+00
   0.4920514969255199E+00
   0.4513309627123986E+00
   0.4773809661629513E+00
   0.4929577625643378E+00
   0.4922016487742528E+00
   0.4645164887767442E+00
   0.4729120313363115E+00
   0.4915211081123266E+00
   0.4906742011079435E+00
   0.4940153742150631E+00
   0.4854929993633744E+00
   0.4731445582836037E+00
   0.4017686074042313E+00
   0.4925810907894456E+00
   0.4586089467488350E+00
   0.4595049853095431E+00
   0.4895104458857602E+00
   0.4701583360288341E+00
   0.4742234951891206E+00
   0.4816343309560327E+00
   0.4809631602287140E+00
   0.5081955780240306E+00
   0.4436620298502742E+00
   0.4960916964030516E+00
   0.5314783269544656E+00
   0.4949806856493837E+00
   0.5219301808621878E+00
   0.5081293804694244E+00
   0.5664001417241789E+00
   0.5269142149838525E+00
   0.5035387176578012E+00
   0.5834534697817889E+00
   0.5720240214655760E+00
   0.3408858514796262E+00
   0.3851957648023309E+00
   0.5717594621285048E+00
   0.5645095535598642E+00
   0.5689243461889243E+00
   0.5291696228969592E+00
   0.5449155525481456E+00
   0.5701879785912215E+00
   0.5404097124363717E+00
   0.5487779070339278E+00
   0.5790107864828891E+00
   0.4955235677517776E+00
   0.5064965455277932E+00
   0.4994484962050096E+00
   0.5533092491569562E+00
   0.4597902246829172E+00
   0.4983751317558042E+00
   0.5489762751024666E+00
   0.5894376617777823E+00
   0.5821700617082626E+00
   0.5457059726136460E+00
   0.5785146348141500E+00
   0.5122043810821272E+00
   0.5055088151142179E+00
   0.5048980661337488E+00
   0.5645297343057951E+00
   0.5552265301482449E+00
   0.4977583751814885E+00
   0.5488208984753614E+00
   0.5486892184067484E+00
   0.5643387255662174E+00
   0.4955121581783974E+00
   0.4958798402368552E+00
   0.3908414490386635E+00
   0.3725909795024224E+00
   0.5584900318759454E+00
   0.5739392599597669E+00
   0.4177438664218133E+00
   0.5813083142124447E+00
   0.4186000228056736E+00
   0.5391903623836043E+00
   0.4993239567518076E+00
   0.5113858551028054E+00
   0.5070194975245396E+00
   0.5732639583160219E+00
   0.5857708790157925E+00
   0.5448205549148911E+00
   0.5657062668878176E+00
   0.5320308366756306E+00
   0.5310303216579414E+00
   0.5561915504885718E+00
   0.5552162348088331E+00
   0.4401002532031696E+00
   0.5282987917798959E+00
   0.5807279545418236E+00
   0.3397137592963603E+00
   0.4812260866917930E+00
   0.5510167758363637E+00
   0.4924432220108550E+00
   0.3108743809983431E+00
   0.5051822039623712E+00
   0.5043571346203022E+00
   0.5129608662107846E+00
   0.5385848653956243E+00
   0.3519686234345346E+00
   0.3560462333043709E+00
   0.3308149830864085E+00
   0.5084554545870812E+00
   0.5125571346165738E+00
   0.5314307662233979E+00
   0.5857978421672176E+00
   0.4640824797087335E+00
   0.3627235470093170E+00
SCALARS v double 1
LOOKUP_TABLE default
   0.0000000000000000E+00
   0.0000000000000000E+00
   0.0000000000000000E+00
   0.0000000000000000E+00
   0.0000000000000000E+00
   0.0000000000000000E+00
   0.0000000000000000E+00
   0.0000000000000000E+00
   0.0000000000000000E+00
   0.0000000000000000E+00
   0.0000000000000000E+00
   0.0000000000000000E+00
   0.0000000000000000E+00
   0.0000000000000000E+00
   0.0000000000000000E+00
   0.0000000000000000E+00
   0.0000000000000000E+00
   0.0000000000000000E+00
   0.0000000000000000E+00
   0.0000000000000000E+00
   0.0000000000000000E+00
   0.0000000000000000E+00
   0.0000000000000000E+00
   0.0000000000000000E+00
   0.0000000000000000E+00
   0.0000000000000000E+00
   0.0000000000000000E+00
   0.0000000000000000E+00
   0.0000000000000000E+00
   0.0000000000000000E+00
   0.0000000000000000E+00
   0.0000000000000000E+00
   0.0000000000000000E+00
   0.0000000000000000E+00
   0.0000000000000000E+00
   0.0000000000000000E+00
   0.0000000000000000E+00
   0.0000000000000000E+00
   0.0000000000000000E+00
   0.0000000000000000E+00
   0.0000000000000000E+00
   0.0000000000000000E+00
   0.0000000000000000E+00
   0.0000000000000000E+00
   0.0000000000000000E+00
   0.0000000000000000E+00
   0.0000000000000000E+00
   0.0000000000000000E+00
   0.0000000000000000E+00
   0.0000000000000000E+00
   0.0000000000000000E+00
   0.0000000000000000E+00
   0.0000000000000000E+00
   0.0000000000000000E+00
   0.0000000000000000E+00
   0.0000000000000000E+00
   0.0000000000000000E+00
   0.0000000000000000E+00
   0.0000000000000000E+00
   0.0000000000000000E+00
   0.0000000000000000E+00
   0.6334733029468551E-03
  -0.1412096538972633E-02
  -0.1391679620118597E-02
   0.0000000000000000E+00
   0.0000000000000000E+00
   0.0000000000000000E+00
   0.0000000000000000E+00
  -0.1867970504056439E-01
   0.2777590434985119E-03
   0.2206623477748854E-02
   0.1490282582891811E-01
  -0.5368506167675562E-02
  -0.6641907213653734E-02
  -0.1142203663045230E-01
   0.4788845530287939E-02
   0.5372029988819321E-03
   0.3195643747980934E-02
   0.1530305706424877E-02
   0.3473823177223842E-02
   0.1704919954721725E-02
  -0.6356057727384551E-02
   0.7681896040350263E-03
   0.4869172568197755E-02
   0.6122153402704486E-03
   0.6959002076664068E-04
  -0.1767233802804935E-03
   0.6082835763148466E-03
   0.0000000000000000E+00
   0.0000000000000000E+00
   0.0000000000000000E+00
   0.0000000000000000E+00
   0.1212950445807911E-03
   0.1423634522126989E-02
  -0.1108798842664714E-02
  -0.9188902173799559E-03
  -0.2101542053249807E-02
  -0.1220494459039857E-02
  -0.8986436020045250E-03
  -0.6448397945598127E-03
  -0.2472733858784089E-04
  -0.5341985353873045E-03
   0.7240124492799009E-03
  -0.1570798840045413E-02
   0.1025662409685060E-03
  -0.1214697164907370E-03
  -0.8743256601338554E-03
  -0.8885241963580168E-03
   0.0000000000000000E+00
   0.0000000000000000E+00
   0.0000000000000000E+00
  -0.1091309720238176E-02
  -0.8502788442152515E-02
   0.1568983463274878E-01
   0.2148696351162801E-03
  -0.1053392839667387E-02
  -0.1673613897670225E-02
  -0.5281082863544929E-02
  -0.1235962552100021E-02
  -0.3701167386778967E-02
  -0.3032629602467654E-02
   0.2127159605832926E-02
   0.2880597780498707E-01
  -0.1724503571927352E-03
  -0.4260470681235576E-02
   0.2498502681048911E-02
   0.9550982846832774E-03
   0.0000000000000000E+00
   0.0000000000000000E+00
   0.0000000000000000E+00
   0.0000000000000000E+00
   0.0000000000000000E+00
   0.0000000000000000E+00
   0.0000000000000000E+00
   0.0000000000000000E+00
   0.0000000000000000E+00
   0.0000000000000000E+00
   0.0000000000000000E+00
   0.0000000000000000E+00
   0.0000000000000000E+00
   0.0000000000000000E+00
   0.0000000000000000E+00
   0.0000000000000000E+00
   0.0000000000000000E+00
   0.4670198736153094E-02
   0.2763280448387364E-02
   0.6893735669016346E-02
   0.5630437148223710E-02
   0.8687042095595178E-02
   0.1244112627381778E-01
   0.4866756817293826E-03
   0.4364177806563609E-02
   0.2406601859764888E-02
   0.2332206573713724E-02
   0.3176364774859639E-02
  -0.1059582457910577E-01
  -0.4893813291823563E-03
   0.6038346302100322E-02
   0.2600391497725054E-02
   0.2269794361379760E-02
   0.3837924252368006E-02
  -0.2020248201450126E-02
   0.9170006836520232E-03
   0.2371044336545269E-02
   0.1154923146145070E-02
   0.2686139308456676E-02
   0.1739855839918951E-02
   0.1798801382500380E-02
   0.8007128197487773E-02
  -0.3375968823924415E-02
   0.5470403676514625E-02
   0.6506725086651179E-04
  -0.3120584200302256E-04
  -0.1328425312312077E-01
  -0.3290595681179012E-02
  -0.3547667856615647E-02
   0.3675145249262024E-02
  -0.3988159007438776E-02
   0.8943781174266158E-03
  -0.2587597982206801E-01
  -0.3070935014795005E-02
   0.4167740204054739E-02
   0.7177119075697530E-03
   0.1825203233557101E-02
   0.4437754083128175E-02
   0.2300338670011734E-02
   0.3389545385435739E-02
   0.5068279991061054E-02
   0.1856653016633288E-02
   0.5820240579166464E-03
  -0.3347033143085973E-03
  -0.4621565953263029E-02
  -0.5498318106015017E-02
   0.4519086650351695E-03
   0.9429376785485451E-03
  -0.7332972485083478E-03
  -0.3869847706675286E-02
  -0.1215941315103810E-02
  -0.3656395390412209E-02
  -0.6898469069506908E-02
  -0.1708645356657229E-02
   0.5357639390261574E-03
  -0.3546498024821088E-03
   0.1111770957938498E-02
  -0.1832540222203055E-02
   0.6956214246370709E-02
  -0.9774593480117414E-02
  -0.1544601430029996E-04
  -0.4080103547751481E-03
   0.2409198720366054E-02
   0.1123360621653687E-02
   0.1298599433800407E-02
  -0.3828976931780792E-02
SCALARS w double 1
LOOKUP_TABLE default
   0.0000000000000000E+00
   0.0000000000000000E+00
   0.0000000000000000E+00
   0.0000000000000000E+00
   0.0000000000000000E+00
   0.0000000000000000E+00
   0.0000000000000000E+00
   0.0000000000000000E+00
   0.0000000000000000E+00
   0.0000000000000000E+00
   0.0000000000000000E+00
   0.0000000000000000E+00
   0.0000000000000000E+00
   0.0000000000000000E+00
   0.0000000000000000E+00
   0.0000000000000000E+00
   0.0000000000000000E+00
   0.0000000000000000E+00
   0.0000000000000000E+00
   0.0000000000000000E+00
   0.0000000000000000E+00
   0.0000000000000000E+00
   0.0000000000000000E+00
   0.0000000000000000E+00
   0.0000000000000000E+00
   0.0000000000000000E+00
   0.0000000000000000E+00
   0.0000000000000000E+00
   0.0000000000000000E+00
   0.0000000000000000E+00
   0.0000000000000000E+00
   0.0000000000000000E+00
   0.0000000000000000E+00
  -0.1144741171725574E+00
  -0.5028454135747152E-01
  -0.2218638297636539E-02
   0.5066013551012615E-02
  -0.6957798484712167E-03
  -0.6076397915953519E-03
   0.5805993533947241E-03
   0.1144806989676841E-02
   0.2440775265420118E-03
   0.3422555423112230E-02
   0.3884463531915334E-01
   0.5360740156255969E-01
  -0.1493569531038284E-02
  -0.2790737429889572E-01
   0.2079826678781731E-02
   0.1059655382124589E-01
   0.8042752924679377E-02
   0.4393891341618211E-01
  -0.4043428187518637E-03
  -0.1058030921633458E-01
  -0.3671501974601287E-02
  -0.2102262688515382E-02
   0.4819991067572344E-03
  -0.4609515220158886E-01
   0.1623620302506177E-01
   0.1240679247088375E-01
   0.2994630178654739E-01
   0.5073346915748823E-02
   0.4321078627543484E-02
   0.4383198589624358E-02
   0.4018274516561196E-02
   0.5466032733534652E-02
  -0.1704835943459907E-03
  -0.4834020110285067E-01
  -0.1122167686832506E+00
  -0.1279823939132965E+00
   0.2784423807672228E-02
   0.1930922428911892E-02
  -0.1150880133543902E+00
  -0.1133078925183183E+00
  -0.1132666702089978E+00
  -0.1072902282029981E+00
  -0.7748703172788937E-01
   0.3027733803404931E-02
  -0.2451873524925096E-01
  -0.2041359715821809E-01
  -0.9927799590763712E-02
   0.5241307079615591E-02
  -0.9129647706343623E-01
  -0.3406072901258522E-01
  -0.9180577690226251E-01
  -0.6776876376153847E-01
   0.1807789751139448E-02
   0.1559385203212079E-02
   0.1426787270734509E-02
   0.2118644849107093E-02
   0.1358294121298792E-02
  -0.1241619346367529E-02
  -0.1475157041572909E-02
   0.1114706540350090E-02
   0.2218158311028016E-02
   0.1202566836465501E-02
  -0.7055974635252840E-04
   0.1919581010631769E-03
   0.8213704599712248E-03
  -0.1576102831374913E-02
  -0.1943015425382062E-02
   0.1965356394594141E-02
  -0.4390828450637760E-04
  -0.4390423241363149E-03
   0.2228746208803247E-02
  -0.1071758991496420E-02
  -0.2024437273627660E-03
  -0.4923298372220585E-03
  -0.1804014595945471E-02
   0.6879536057763527E-01
   0.2330704244758100E-02
  -0.1105207172661320E-02
  -0.7920415522850990E-03
   0.1156184558635378E+00
   0.1039170667444584E+00
  -0.1771017077454816E-02
  -0.4421114084270586E-02
  -0.7493444335141541E-03
  -0.7086035343831757E-02
  -0.2645570954994640E-02
   0.1269923183599068E+00
   0.6360345844030399E-01
   0.2237140111865522E-01
   0.1353417673443615E+00