# vtk DataFile Version 2.0
FUN3D:global_image_vtk
ASCII
DATASET UNSTRUCTURED_GRID
POINTS 213 double
   -0.5474547894569631E-02    0.2504942051092539E+01    0.8111779492247315E-04
    0.1245419838515235E+01    0.2504942051092539E+01    0.1041090383692246E-03
    0.2497696236677875E+01    0.2504942051092539E+01    0.1105497388997895E-03
    0.3750591598294108E+01    0.2504942051092539E+01    0.1365839649421342E-03
    0.5003222157533224E+01    0.2504942051092539E+01    0.9709660053677453E-04
    0.5004677104283252E+01    0.1281291554463587E+01    0.1643821865597697E-03
    0.5004773634302313E+01    0.2775169251086802E-01    0.1905342293861141E-03
    0.5003581708470984E+01   -0.1225852618779793E+01    0.1615543094276506E-03
    0.5001952978455432E+01   -0.2496588986442259E+01    0.1089518119557497E-03
    0.3750348798690704E+01   -0.2496588986442259E+01    0.1468415119082683E-03
    0.2498611608554525E+01   -0.2496588986442259E+01    0.1009399376806499E-03
    0.1247175433684251E+01   -0.2496588986442259E+01    0.1111888851508215E-03
   -0.3383068008610156E-02   -0.2496588986442259E+01    0.8150520461993211E-04
   -0.4256955851068874E-02   -0.1225733921940076E+01    0.3469021480935072E-04
   -0.5250811048115659E-02    0.2619538073149395E-01    0.1042835093026555E-03
   -0.5675964951546735E-02    0.1278221764905737E+01    0.8294295287214233E-04
    0.9003216169816050E+00    0.1608980057928585E+01    0.8723014083989036E-04
    0.3983172877234496E+01   -0.1561211350986338E+01    0.1760002127700830E-03
    0.4035602132520589E+01    0.1486760691219746E+01    0.1720286243631940E-03
    0.1036614197571059E+01   -0.1455625663561180E+01    0.1053351185766913E-03
    0.1094354118517697E+01   -0.2964612593014413E+00    0.1270024378743546E-03
    0.7298404519547405E+00    0.6874694715327181E+00    0.1051228423596990E-03
    0.1617018826115776E+01    0.8553210854460175E+00    0.1533030449187274E-03
    0.2143200501888038E+01   -0.1627128173870766E+01    0.1610504152783293E-03
    0.4088840817860322E+01   -0.4351038589522145E+00    0.2720164200689178E-03
    0.2977916803796307E+01   -0.8334982172549265E+00    0.2250176830131057E-03
    0.3044093701898847E+01   -0.1814360775861436E+01    0.1620229234402039E-03
    0.3427867342648891E+01    0.3813906283367565E+00    0.2939791736545562E-03
    0.4313226131547213E+01    0.5489134504401266E+00    0.2317707379503814E-03
    0.1823033136120683E+01    0.1771265626696227E+01    0.1837731895496521E-03
    0.2806312048597993E+01    0.1358629701935093E+01    0.1950949191722223E-03
    0.1891861460093988E+01   -0.8481309711553094E+00    0.1671919978819847E-03
    0.2268769423809795E+01    0.7723737869388030E-01    0.2072802753067467E-03
    0.5000000000000000E+01    0.2504942051092539E+01    0.1250000000000000E+01
    0.5000000000000000E+01    0.2504942051092539E+01    0.2500000000000000E+01
    0.5000000000000000E+01    0.2504942051092539E+01    0.3750000000000000E+01
    0.5000000000000000E+01    0.2504942051092539E+01    0.5000000000000000E+01
    0.3750000000000000E+01    0.2504942051092539E+01    0.5000000000000000E+01
    0.2500000000000000E+01    0.2504942051092539E+01    0.5000000000000000E+01
    0.1250000000000000E+01    0.2504942051092539E+01    0.5000000000000000E+01
    0.0000000000000000E+00    0.2504942051092539E+01    0.5000000000000000E+01
    0.0000000000000000E+00    0.2504942051092539E+01    0.3750000000000000E+01
    0.0000000000000000E+00    0.2504942051092539E+01    0.2500000000000000E+01
    0.0000000000000000E+00    0.2504942051092539E+01    0.1250000000000000E+01
    0.9588960571231865E+00    0.2504942051092539E+01    0.9696529778455178E+00
    0.3981953123960229E+01    0.2504942051092539E+01    0.4070563957054498E+01
    0.4036122654246864E+01    0.2504942051092539E+01    0.1017568184005398E+01
    0.9637572721596147E+00    0.2504942051092539E+01    0.3973598277573462E+01
    0.1546540204397300E+01    0.2504942051092539E+01    0.2931570394191802E+01
    0.6973799701054136E+00    0.2504942051092539E+01    0.3070320060098056E+01
    0.8903743084219861E+00    0.2504942051092539E+01    0.2056562452539602E+01
    0.2183042014959271E+01    0.2504942051092539E+01    0.3960694590946582E+01
    0.3855844981955203E+01    0.2504942051092539E+01    0.2933250842619056E+01
    0.3152611431327898E+01    0.2504942051092539E+01    0.3637668584319779E+01
    0.3103307414861235E+01    0.2504942051092539E+01    0.4332607912231964E+01
    0.3266711257945840E+01    0.2504942051092539E+01    0.1889657095637415E+01
    0.4232537722628977E+01    0.2504942051092539E+01    0.1918627288979130E+01
    0.1905522775357408E+01    0.2504942051092539E+01    0.7226294652692130E+00
    0.2879768116040530E+01    0.2504942051092539E+01    0.9080952827255694E+00
    0.2012711594383454E+01    0.2504942051092539E+01    0.1767082771793431E+01
    0.2669681577387165E+01    0.2504942051092539E+01    0.2853394652907192E+01
    0.5000000000000000E+01    0.1250000000000000E+01    0.5000000000000000E+01
    0.5000000000000000E+01    0.0000000000000000E+00    0.5000000000000000E+01
    0.5000000000000000E+01   -0.1250000000000000E+01    0.5000000000000000E+01
    0.5000000000000000E+01   -0.2496588986442259E+01    0.5000000000000000E+01
    0.5000000000000000E+01   -0.2496588986442259E+01    0.3750000000000000E+01
    0.5000000000000000E+01   -0.2496588986442259E+01    0.2500000000000000E+01
    0.5000000000000000E+01   -0.2496588986442259E+01    0.1250000000000000E+01
    0.5000000000000000E+01    0.1578994732800803E+01    0.9058375365086910E+00
    0.5000000000000000E+01   -0.1583989954232354E+01    0.3982050490726493E+01
    0.5000000000000000E+01    0.1453322699199022E+01    0.4033849428301197E+01
    0.5000000000000000E+01   -0.1479596339503735E+01    0.1040505887381675E+01
    0.5000000000000000E+01   -0.3227322616384110E+00    0.1099454400140349E+01
    0.5000000000000000E+01    0.6593508822075582E+00    0.7354504170366591E+00
    0.5000000000000000E+01    0.8256214013940779E+00    0.1622302608453282E+01
    0.5000000000000000E+01   -0.1650070333782557E+01    0.2145871574390382E+01
    0.5000000000000000E+01   -0.4612828702537229E+00    0.4086422318222992E+01
    0.5000000000000000E+01   -0.8579242121530853E+00    0.2979540174134984E+01
    0.5000000000000000E+01   -0.1836846154397680E+01    0.3045064261640043E+01
    0.5000000000000000E+01    0.3508002863614053E+00    0.3428197553792836E+01
    0.5000000000000000E+01    0.5185680230613409E+00    0.4309693860063405E+01
    0.5000000000000000E+01    0.1738996113203182E+01    0.1827272193562204E+01
    0.5000000000000000E+01    0.1325493893339706E+01    0.2808563282768077E+01
    0.5000000000000000E+01   -0.8731419609589618E+00    0.1895995683864404E+01
    0.5000000000000000E+01    0.4906150219227333E-01    0.2273179336307740E+01
    0.0000000000000000E+00    0.1250000000000000E+01    0.5000000000000000E+01
    0.0000000000000000E+00    0.0000000000000000E+00    0.5000000000000000E+01
    0.0000000000000000E+00   -0.1250000000000000E+01    0.5000000000000000E+01
    0.0000000000000000E+00   -0.2496588986442259E+01    0.5000000000000000E+01
    0.1250000000000000E+01   -0.2496588986442259E+01    0.5000000000000000E+01
    0.2500000000000000E+01   -0.2496588986442259E+01    0.5000000000000000E+01
    0.3750000000000000E+01   -0.2496588986442259E+01    0.5000000000000000E+01
    0.4042003247744892E+01    0.1558308132739014E+01    0.5000000000000000E+01
    0.9304122287900499E+00   -0.1548001304379777E+01    0.5000000000000000E+01
    0.1037243024609388E+01    0.1462892710085612E+01    0.5000000000000000E+01
    0.3946240828834967E+01   -0.1445243809615570E+01    0.5000000000000000E+01
    0.4092527262848217E+01   -0.3455338993778935E+00    0.5000000000000000E+01
    0.4293103109154542E+01    0.6277660831404320E+00    0.5000000000000000E+01
    0.3241512314643519E+01    0.7429886854239611E+00    0.5000000000000000E+01
    0.2844289952419609E+01   -0.1588117879734118E+01    0.5000000000000000E+01
    0.7159905765450471E+00   -0.6002320124191652E+00    0.5000000000000000E+01
    0.1754341919796891E+01   -0.7398147869923652E+00    0.5000000000000000E+01
    0.1870296826774691E+01   -0.1788622905643739E+01    0.5000000000000000E+01
    0.9220614901912976E+00    0.3083720183248586E+00    0.5000000000000000E+01
    0.3101523624086016E+01    0.1777901774806180E+01    0.5000000000000000E+01
    0.2192512063922564E+01    0.1576861561598471E+01    0.5000000000000000E+01
    0.2024793420196460E+01    0.4773861992750707E+00    0.5000000000000000E+01
    0.2990627757741975E+01   -0.4878110785814084E+00    0.5000000000000000E+01
    0.0000000000000000E+00   -0.2496588986442259E+01    0.1250000000000000E+01
    0.0000000000000000E+00   -0.2496588986442259E+01    0.2500000000000000E+01
    0.0000000000000000E+00   -0.2496588986442259E+01    0.3750000000000000E+01
    0.0000000000000000E+00    0.1558308132739014E+01    0.4042003247744892E+01
    0.0000000000000000E+00   -0.1548001304379777E+01    0.9304122287900499E+00
    0.0000000000000000E+00    0.1462892710085612E+01    0.1037243024609388E+01
    0.0000000000000000E+00   -0.1445243809615570E+01    0.3946240828834967E+01
    0.0000000000000000E+00   -0.3455338993778935E+00    0.4092527262848217E+01
    0.0000000000000000E+00    0.6277660831404320E+00    0.4293103109154542E+01
    0.0000000000000000E+00    0.7429886854239611E+00    0.3241512314643519E+01
    0.0000000000000000E+00   -0.1588117879734118E+01    0.2844289952419609E+01
    0.0000000000000000E+00   -0.6002320124191652E+00    0.7159905765450471E+00
    0.0000000000000000E+00   -0.7398147869923652E+00    0.1754341919796891E+01
    0.0000000000000000E+00   -0.1788622905643739E+01    0.1870296826774691E+01
    0.0000000000000000E+00    0.3083720183248586E+00    0.9220614901912976E+00
    0.0000000000000000E+00    0.1777901774806180E+01    0.3101523624086016E+01
    0.0000000000000000E+00    0.1576861561598471E+01    0.2192512063922564E+01
[...]
POINT_DATA 213
SCALARS rho double 1
LOOKUP_TABLE default
   0.1346103640221089E+01
   0.9571902328472035E+00
   0.9461040649180567E+00
   0.9421786070490391E+00
   0.8436044275589814E+00
   0.7741796976268815E+00
   0.7627419779163204E+00
   0.7661222195348042E+00
   0.8310414119669638E+00
   0.9353490174550245E+00
   0.9343650988694868E+00
   0.9616038291877455E+00
   0.1448476001863225E+01
   0.1495412072467837E+01
   0.1646720008975481E+01
   0.1426612651330052E+01
   0.1009795069033383E+01
   0.9511285397734145E+00
   0.9438187116236633E+00
   0.9574579771992606E+00
   0.9414846192250214E+00
   0.1037108290567259E+01
   0.9258007278490339E+00
   0.9322233102608648E+00
   0.9537965743605031E+00
   0.9520323651603972E+00
   0.9350812681707895E+00
   0.9565401687285841E+00
   0.9378566917047698E+00
   0.9303318128770298E+00
   0.9446338172670923E+00
   0.8862200574686352E+00
   0.9423971731402035E+00
   0.9637378177821088E+00
   0.1008365828227555E+01
   0.1006746173844307E+01
   0.1001852551187515E+01
   0.1003122813551671E+01
   0.1004081823746042E+01
   0.1005202249660087E+01
   0.1004248607718230E+01
   0.1008252794710480E+01
   0.1023858600213760E+01
   0.1063738956068888E+01
   0.1019385086992146E+01
   0.1001768732824526E+01
   0.9646457552230103E+00
   0.1005244823682817E+01
   0.1000724681895801E+01
   0.1008678676770656E+01
   0.1008020660368394E+01
   0.1002340122074267E+01
   0.9980209441918130E+00
   0.1000589298773715E+01
   0.1001603651694734E+01
   0.9827867609448477E+00
   0.9843798640085013E+00
   0.9834042911503734E+00
   0.9790659307399778E+00
   0.9904614092309253E+00
   0.9935051527187305E+00
   0.1001924189529606E+01
   0.1002056922665237E+01
   0.1002228332650907E+01
   0.1001730255691992E+01
   0.1009833893323341E+01
   0.1006499745490198E+01
   0.9560844271880227E+00
   0.9252784737328922E+00
   0.1007055967599348E+01
   0.1004493920481673E+01
   0.9145119571041486E+00
   0.9091795670028547E+00
   0.8752647117972421E+00
   0.9767635005914793E+00
   0.1000508019235119E+01
   0.1005828509833280E+01
   0.1012915496082572E+01
   0.1011701550590931E+01
   0.1010446300965174E+01
   0.1005435864630526E+01
   0.9908923369788221E+00
   0.1005170147090833E+01
   0.9860673907956565E+00
   0.1005575204301640E+01
   0.1004234022300773E+01
   0.1002867207292300E+01
   0.1003331992529204E+01
   0.1003991652000188E+01
   0.1005101035379150E+01
   0.1003212204190953E+01
   0.1002637489678206E+01
   0.1002502742244602E+01
   0.1004057394317570E+01
   0.1004282816270978E+01
   0.1001609813030144E+01
   0.1002217662530567E+01
   0.1002468364750532E+01
   0.1003439284413100E+01
   0.1003370668464563E+01
   0.1003221128192539E+01
   0.1004423229542540E+01
   0.1004318507155175E+01
   0.1003642658829249E+01
   0.1003655850906557E+01
   0.1004293536474693E+01
   0.1004444074668453E+01
   0.1003597832163438E+01
   0.1064478482671134E+01
   0.1028431741218007E+01
   0.1009589710100753E+01
   0.1006618458688813E+01
   0.1163948077188739E+01
   0.1086027585194249E+01
   0.1007889157123222E+01
   0.1007235382504770E+01
   0.1006787930302219E+01
   0.1013043544531170E+01
   0.1019325761420480E+01
   0.1235116501540005E+01
   0.1032531294111383E+01
   0.1046547843500253E+01
   0.1201689404351062E+01
   0.1014664266982346E+01
   0.1032281610102231E+01
   0.1028207150898087E+01
   0.1014626722961170E+01
   0.1028978877178676E+01
   0.1001996533329741E+01
   0.9608243660672975E+00
   0.1006844953898355E+01
   0.1001307835577605E+01
   0.1010783428673731E+01
   0.1012221704549965E+01
   0.1000928015362140E+01
   0.9979282385853592E+00
   0.9980614918204529E+00
   0.1001176546142295E+01
   0.9841812638459645E+00
   0.9814961785646895E+00
   0.9648728060298281E+00
   0.9680839939290866E+00
   0.9914051766778270E+00
   0.9910783955402783E+00
   0.9925437756105562E+00
   0.1001710362832234E+01
   0.9993069365715587E+00
   0.9941305095343205E+00
   0.1006968141561445E+01
   0.1022601707634663E+01
   0.1001119213217197E+01
   0.1008768061392165E+01
   0.1004758467681163E+01
   0.1009009490407488E+01
   0.9967078806818135E+00
   0.1005561973747705E+01
   0.1003315938351202E+01
   0.9949741613738279E+00
   0.9833334189457270E+00
   0.9944339621864065E+00
   0.9973423025002118E+00
   0.9932308991088437E+00
   0.1001303157977208E+01
   0.1002992525864362E+01
   0.1002173039075994E+01
   0.9947102601708001E+00
   0.9937772252416157E+00
   0.1004847055679324E+01
   0.1020087960714638E+01
   0.1005326478156036E+01
   0.9816959884182027E+00
   0.1004962852120797E+01
   0.1012358366701509E+01
   0.9873618371404540E+00
   0.9551233985771919E+00
   0.9865162420133544E+00
   0.9865801021693742E+00
   0.9920002515196504E+00
   0.9934318356824916E+00
   0.9960583179062892E+00
   0.1037392270642431E+01
   0.1033148912792070E+01
   0.1001425561270707E+01
   0.1001910931593377E+01
   0.9912157805944584E+00
   0.9911014743576509E+00
   0.9649137632011353E+00
   0.9933666692658613E+00
   0.1006091567407226E+01
   0.1001960927211994E+01
   0.9908500111449532E+00
   0.9741981917311916E+00
   0.9420573251184280E+00
   0.9821364487124321E+00
   0.9794649170978142E+00
   0.9704393460349240E+00
   0.9720648172823836E+00
   0.9557768544815057E+00
   0.9498130962382701E+00
   0.9530015942513705E+00
   0.1002617863083207E+01
   0.1002470579920194E+01
   0.1000505388201790E+01
   0.1001688916709579E+01
   0.9609798062154800E+00
   0.9492853281269609E+00
   0.9586748606778029E+00
   0.1001115752002414E+01
   0.1000497532955824E+01
   0.1001172379059852E+01
   0.9807328776825076E+00
   0.9805470732424260E+00
   0.9629256085075540E+00
SCALARS u double 1
LOOKUP_TABLE default
   0.0000000000000000E+00
   0.0000000000000000E+00
   0.0000000000000000E+00
   0.0000000000000000E+00
   0.0000000000000000E+00
   0.0000000000000000E+00
   0.0000000000000000E+00
   0.0000000000000000E+00
   0.0000000000000000E+00
   0.0000000000000000E+00
   0.0000000000000000E+00
   0.0000000000000000E+00
   0.0000000000000000E+00
   0.0000000000000000E+00
   0.0000000000000000E+00
   0.0000000000000000E+00
   0.0000000000000000E+00
   0.0000000000000000E+00
   0.0000000000000000E+00
   0.0000000000000000E+00
   0.0000000000000000E+00
   0.0000000000000000E+00
   0.0000000000000000E+00
   0.0000000000000000E+00
   0.0000000000000000E+00
   0.0000000000000000E+00
   0.0000000000000000E+00
   0.0000000000000000E+00
   0.0000000000000000E+00
   0.0000000000000000E+00
   0.0000000000000000E+00
   0.0000000000000000E+00
   0.0000000000000000E+00
   0.4945072925123624E+00
   0.5336140101617841E+00
   0.5183281400815014E+00
   0.4930097294564330E+00
   0.4845536639013007E+00
   0.4867819096136448E+00
   0.4891961218474417E+00
   0.4958542938253153E+00
   0.4899039531098656E+00
   0.4718201654611356E+00
   0.4449075760963021E+00
   0.4844432283375965E+00
   0.5098760690225228E+00
   0.4401341539812364E+00
   0.4949817865002266E+00
   0.5223239008678970E+00
   0.4962866562421139E+00
   0.5224022653199570E+00
   0.5038815797416561E+00
   0.5645098663508555E+00
   0.5246817251055026E+00
   0.4991801425361705E+00
   0.5728963017615777E+00
   0.5693182504201026E+00
   0.3752066980824512E+00
   0.4003043260499003E+00
   0.5599422871452682E+00
   0.5562675090063263E+00
   0.4941822719187399E+00
   0.4948048409379531E+00
   0.4924971480316246E+00
   0.4913563722540781E+00
   0.5163189129709588E+00
   0.5363661601098901E+00
   0.4951167723509964E+00
   0.4520191427356555E+00
   0.5129271458886822E+00
   0.5118233653044624E+00
   0.4785955194172816E+00
   0.4930900653356926E+00
   0.4599955629633782E+00
   0.5242715385330678E+00
   0.5299975206679538E+00
   0.5129946874238214E+00
   0.5328899537384432E+00
   0.5309928470159286E+00
   0.5309915739644535E+00
   0.5063864584850263E+00
   0.5279321525224578E+00
   0.5409200069574727E+00
   0.5363714753299433E+00
   0.5374272702527587E+00
   0.4965526994333559E+00
   0.4975489002531908E+00
   0.4963897811762147E+00
   0.4955329191461855E+00
   0.4904111502531784E+00
   0.4901949582802740E+00
   0.4859893184077074E+00
   0.4851932156410368E+00
   0.4932040887137172E+00
   0.4910575428560990E+00
   0.4830347396561230E+00
   0.4871027346907357E+00
   0.4878378193348354E+00
   0.4871418471552603E+00
   0.4881058120408602E+00
   0.4952662134369964E+00
   0.4900693917707929E+00
   0.4903394907184053E+00
   0.4944555720782935E+00
   0.4867061154199335E+00
   0.4892684904225155E+00
   0.4881456693374425E+00
   0.4877442275873357E+00
   0.4449179113792927E+00
   0.4700238145065559E+00
   0.4891918118924686E+00
   0.4885806232748044E+00
   0.4510577595907838E+00
   0.4681652397374525E+00
   0.4876733825029749E+00
   0.4868288400146198E+00
   0.4909345899064517E+00
   0.4794074882644426E+00
   0.4658127894263249E+00
   0.3794480105566452E+00
   0.4903659597457686E+00
   0.4488145753896298E+00
   0.4432557605775182E+00
   0.4845808689558878E+00
   0.4622197966155474E+00
   0.4663850375947061E+00
   0.4747957425110965E+00
   0.4893963528656951E+00
   0.5086685834928361E+00
   0.4305168784802665E+00
   0.4927437342793143E+00
   0.5320485482360765E+00
   0.4913953503144224E+00
   0.5209580836338699E+00
   0.5062018407313216E+00
   0.5691203222382790E+00
   0.5275839060609240E+00
   0.5015545585723638E+00
   0.5821419945494779E+00
   0.5691461677404041E+00
   0.3403383584483408E+00
   0.3785942446738026E+00
   0.5753331125256455E+00
   0.5668697439838972E+00
   0.5703101274256818E+00
   0.5292031795253375E+00
   0.5449946414930840E+00
   0.5719061281146005E+00
   0.5385834436501533E+00
   0.5475993821827406E+00
   0.5821562809714574E+00
   0.4925469771966333E+00
   0.5041939819349173E+00
   0.4961442008027420E+00
   0.5562793764041445E+00
   0.4757930045975050E+00
   0.4950441689461170E+00
   0.5496544770321611E+00
   0.5889369876131830E+00
   0.5839896511755076E+00
   0.5468843533624935E+00
   0.5803823764443823E+00
   0.5106740464283946E+00
   0.5030196025820085E+00
   0.5033659735362079E+00
   0.5676455669837188E+00
   0.5564984323750194E+00
   0.4947439395889481E+00
   0.5506859903873499E+00
   0.5513610672061653E+00
   0.5658239392786787E+00
   0.4920173517679505E+00
   0.4927950802340936E+00
   0.3865610495138121E+00
   0.3688199206237723E+00
   0.5574259375582264E+00
   0.5761718777954491E+00
   0.4194186216511940E+00
   0.5822792863229578E+00
   0.4268444393187067E+00
   0.5397532824406551E+00
   0.5016315440678654E+00
   0.5119728446802099E+00
   0.5049279920998082E+00
   0.5752603471610744E+00
   0.5878505837005785E+00
   0.5382127105059020E+00
   0.5679656720346236E+00
   0.5352634891166709E+00
   0.5338885917606586E+00
   0.5582339111530411E+00
   0.5510876630885145E+00
   0.4256376342283828E+00
   0.5272554755763398E+00
   0.5796678194098700E+00
   0.3318623602167836E+00
   0.4761399218077325E+00
   0.5446482126929619E+00
   0.4800632337510147E+00
   0.3006331383764194E+00
   0.5031803503294350E+00
   0.5017760142766186E+00
   0.5129657461791800E+00
   0.5414825333086345E+00
   0.3435130443455348E+00
   0.3398367799908596E+00
   0.3190146126747668E+00
   0.5066779703888065E+00
   0.5124619293446760E+00
   0.5330051728660222E+00
   0.5881346198160696E+00
   0.4645065793574783E+00
   0.3529959024622775E+00
SCALARS v double 1
LOOKUP_TABLE default
   0.0000000000000000E+00
   0.0000000000000000E+00
   0.0000000000000000E+00
   0.0000000000000000E+00
   0.0000000000000000E+00
   0.0000000000000000E+00
   0.0000000000000000E+00
   0.0000000000000000E+00
   0.0000000000000000E+00
   0.0000000000000000E+00
   0.0000000000000000E+00
   0.0000000000000000E+00
   0.0000000000000000E+00
   0.0000000000000000E+00
   0.0000000000000000E+00
   0.0000000000000000E+00
   0.0000000000000000E+00
   0.0000000000000000E+00
   0.0000000000000000E+00
   0.0000000000000000E+00
   0.0000000000000000E+00
   0.0000000000000000E+00
   0.0000000000000000E+00
   0.0000000000000000E+00
   0.0000000000000000E+00
   0.0000000000000000E+00
   0.0000000000000000E+00
   0.0000000000000000E+00
   0.0000000000000000E+00
   0.0000000000000000E+00
   0.0000000000000000E+00
   0.0000000000000000E+00
   0.0000000000000000E+00
   0.0000000000000000E+00
   0.0000000000000000E+00
   0.0000000000000000E+00
   0.0000000000000000E+00
   0.0000000000000000E+00
   0.0000000000000000E+00
   0.0000000000000000E+00
   0.0000000000000000E+00
   0.0000000000000000E+00
   0.0000000000000000E+00
   0.0000000000000000E+00
   0.0000000000000000E+00
   0.0000000000000000E+00
   0.0000000000000000E+00
   0.0000000000000000E+00
   0.0000000000000000E+00
   0.0000000000000000E+00
   0.0000000000000000E+00
   0.0000000000000000E+00
   0.0000000000000000E+00
   0.0000000000000000E+00
   0.0000000000000000E+00
   0.0000000000000000E+00
   0.0000000000000000E+00
   0.0000000000000000E+00
   0.0000000000000000E+00
   0.0000000000000000E+00
   0.0000000000000000E+00
   0.9022756599297032E-03
  -0.1238460208177064E-02
  -0.1303472162485883E-02
   0.0000000000000000E+00
   0.0000000000000000E+00
   0.0000000000000000E+00
   0.0000000000000000E+00
  -0.1933493205410997E-01
   0.5115828780647584E-03
   0.2225036579043834E-02
   0.1419715718112774E-01
  -0.6736466433280661E-02
  -0.8137586145131789E-02
  -0.1323513317813230E-01
   0.5005948906428400E-02
   0.7472907370744993E-03
   0.3499143737581802E-02
   0.1959135551954127E-02
   0.3188320332981579E-02
   0.1778021963235528E-02
  -0.7294675159636592E-02
  -0.6589008756905919E-04
   0.4565296840010244E-02
  -0.3938637264719030E-03
  -0.6906623521118982E-04
  -0.2019065563972852E-03
   0.8169253988470577E-03
   0.0000000000000000E+00
   0.0000000000000000E+00
   0.0000000000000000E+00
   0.0000000000000000E+00
   0.5156744936143710E-03
   0.1646537566253083E-02
  -0.1287292299230198E-02
  -0.1013831402475193E-02
  -0.2100014760352565E-02
  -0.9845593680377609E-03
  -0.7650049729125292E-03
  -0.7304885944810972E-03
   0.7392998241654643E-04
  -0.5673028248634668E-03
   0.8167040026838974E-03
  -0.1730514761354678E-02
   0.3069479949493388E-03
  -0.7195699318698627E-04
  -0.8959416850976018E-03
  -0.1059052917382399E-02
   0.0000000000000000E+00
   0.0000000000000000E+00
   0.0000000000000000E+00
  -0.1036144765972493E-02
  -0.7793961367353535E-02
   0.1821162611035329E-01
  -0.2910286380792778E-04
  -0.1386124392808224E-02
  -0.2036609407632761E-02
  -0.5624080649200077E-02
  -0.1628734633719404E-02
  -0.6361659903337308E-02
  -0.4331987024018533E-02
   0.1516761494395719E-02
   0.3300174338507728E-01
   0.4061046764201197E-04
  -0.2767406031979473E-02
   0.3626696708535179E-02
   0.3828273956250586E-03
   0.0000000000000000E+00
   0.0000000000000000E+00
   0.0000000000000000E+00
   0.0000000000000000E+00
   0.0000000000000000E+00
   0.0000000000000000E+00
   0.0000000000000000E+00
   0.0000000000000000E+00
   0.0000000000000000E+00
   0.0000000000000000E+00
   0.0000000000000000E+00
   0.0000000000000000E+00
   0.0000000000000000E+00
   0.0000000000000000E+00
   0.0000000000000000E+00
   0.0000000000000000E+00
   0.0000000000000000E+00
   0.5012225656173717E-02
   0.3212090639184631E-02
   0.8133953803532285E-02
   0.6090615847866672E-02
   0.1117281144206466E-01
   0.1403269734732444E-01
  -0.3298753453193629E-03
   0.5154342555201563E-02
   0.2937957062299410E-02
   0.3377607475606679E-02
   0.3727751012040487E-02
  -0.1470972861506423E-01
  -0.6087063536009885E-03
   0.6657586418970772E-02
   0.1454910748613969E-02
   0.1972180732789349E-02
   0.4293125551758327E-02
  -0.2790766870994799E-02
   0.1286962485855329E-02
   0.2868660012197363E-02
   0.1560131971445489E-02
   0.2589523135159215E-02
   0.2027008229033127E-02
   0.2159661248251673E-02
   0.8576319677042416E-02
  -0.3840026488454906E-02
   0.6147310305920656E-02
   0.5426830460688722E-04
  -0.4340663985088915E-03
  -0.1677925441091015E-01
  -0.5015276353973596E-02
  -0.4835764673288345E-02
   0.3399473410959102E-02
  -0.6095459840396326E-02
   0.2134858377452935E-04
  -0.3286961849002826E-01
  -0.3188116899537216E-02
   0.4577059341719827E-02
   0.9847259989431739E-03
   0.2149254254641658E-02
   0.4550179056544460E-02
   0.2695760968357269E-02
   0.3251482703885489E-02
   0.5233414976064436E-02
   0.1964097474165084E-02
   0.7584375854339804E-03
  -0.6185021523141876E-04
  -0.5325943876929807E-02
  -0.6969454933314610E-02
  -0.9882684320913033E-03
   0.1071248937712256E-02
  -0.2112972792538753E-02
  -0.3216090884456687E-02
  -0.2533343302211003E-02
  -0.4122333384743730E-02
  -0.7562592608892847E-02
  -0.2024229208354327E-02
   0.6682639950882511E-03
  -0.1841132003956323E-03
   0.1249408293152680E-02
  -0.3527389042485322E-02
   0.4846829517801595E-02
  -0.8636577260329344E-02
   0.3740710338969504E-04
  -0.3387697411949154E-03
   0.2574834791007785E-02
   0.1609609200420807E-02
   0.2031918066267083E-02
  -0.5656042045919179E-02
SCALARS w double 1
LOOKUP_TABLE default
   0.0000000000000000E+00
   0.0000000000000000E+00
   0.0000000000000000E+00
   0.0000000000000000E+00
   0.0000000000000000E+00
   0.0000000000000000E+00
   0.0000000000000000E+00
   0.0000000000000000E+00
   0.0000000000000000E+00
   0.0000000000000000E+00
   0.0000000000000000E+00
   0.0000000000000000E+00
   0.0000000000000000E+00
   0.0000000000000000E+00
   0.0000000000000000E+00
   0.0000000000000000E+00
   0.0000000000000000E+00
   0.0000000000000000E+00
   0.0000000000000000E+00
   0.0000000000000000E+00
   0.0000000000000000E+00
   0.0000000000000000E+00
   0.0000000000000000E+00
   0.0000000000000000E+00
   0.0000000000000000E+00
   0.0000000000000000E+00
   0.0000000000000000E+00
   0.0000000000000000E+00
   0.0000000000000000E+00
   0.0000000000000000E+00
   0.0000000000000000E+00
   0.0000000000000000E+00
   0.0000000000000000E+00
  -0.1007395375579649E+00
  -0.4247240236187402E-01
   0.7747779010551309E-03
   0.5816601813231071E-02
   0.6821368082115374E-03
   0.1632810524913942E-02
   0.3336923451080165E-02
   0.2335848771428549E-02
   0.4617522550119018E-03
   0.3524371565436771E-02
   0.4533737623800666E-01
   0.6563893468353493E-01
   0.8952760661721265E-03
  -0.2268733931831866E-01
   0.4268029146493722E-02
   0.1344976087068859E-01
   0.1030178450958474E-01
   0.4872014325998576E-01
   0.2386534501146689E-02
  -0.6531810798001413E-02
  -0.7308628993769188E-03
   0.3053993765047638E-03
   0.3857221261036245E-02
  -0.3896620654266218E-01
   0.1819042688765330E-01
   0.1122371838678845E-01
   0.3397251049736165E-01
   0.8401844763111573E-02
   0.4985054938603710E-02
   0.5012538297912083E-02
   0.4925801692626198E-02
   0.6102970376248573E-02
   0.2716525070489240E-02
  -0.4129368237125134E-01
  -0.9926473287625875E-01
  -0.1120306507567515E+00
   0.5177521785721232E-02
   0.4298454050472553E-02
  -0.1002340094998343E+00
  -0.9888856309410562E-01
  -0.9832855662543818E-01
  -0.9441841507540566E-01
  -0.6790635278962386E-01
   0.5252653264593372E-02
  -0.1925288983922338E-01
  -0.1563865336257999E-01
  -0.5920463936106279E-02
   0.6900677937741664E-02
  -0.8001712920903374E-01
  -0.2775879638920098E-01
  -0.8083085418914737E-01
  -0.5860928793222439E-01
   0.3052565872181162E-02
   0.2690710398777028E-02
   0.2657670327874623E-02
   0.3453912447945047E-02
   0.3990289321345954E-02
   0.1199945530211376E-02
  -0.1346810441146871E-03
   0.2118392553806633E-02
   0.4883676359180629E-02
   0.3848352671052396E-02
   0.1135157408629035E-02
   0.1230352170176656E-02
   0.1509676523368676E-02
  -0.4739398098106662E-05
   0.7594397701536685E-04
   0.4380708714159002E-02
   0.2692968957761560E-02
   0.2307293990560132E-02
   0.4991369184358330E-02
   0.1136046173054084E-02
   0.2707505250050455E-02
   0.1990712465984846E-02
   0.4647687693332214E-04
   0.8385320695858048E-01
   0.2823327471912262E-02
  -0.8505542659624236E-03
  -0.1397258182422827E-03
   0.1410915867731213E+00
   0.1236411083283556E+00
  -0.1208192075782745E-02
  -0.4383875004880117E-02
  -0.2929331128458900E-03
  -0.6481707979895464E-02
  -0.1901384143980449E-02
   0.1559613524410406E+00
   0.7527416251142934E-01
   0.2566867981775791E-01
   0.1661217234790917E+00