# vtk DataFile Version 2.0
FUN3D:global_image_vtk
ASCII
DATASET UNSTRUCTURED_GRID
POINTS 213 double
   -0.5474547894569630E-02    0.2504942051092539E+01    0.8111779492247313E-04
    0.1245419838515235E+01    0.2504942051092539E+01    0.1041090383692246E-03
    0.2497696236677875E+01    0.2504942051092539E+01    0.1105497388997895E-03
    0.3750591598294108E+01    0.2504942051092539E+01    0.1365839649421342E-03
    0.5003222157533224E+01    0.2504942051092539E+01    0.9709660053677452E-04
    0.5004677104283252E+01    0.1281291554463587E+01    0.1643821865597697E-03
    0.5004773634302313E+01    0.2775169251086802E-01    0.1905342293861141E-03
    0.5003581708470984E+01   -0.1225852618779793E+01    0.1615543094276505E-03
    0.5001952978455432E+01   -0.2496588986442259E+01    0.1089518119557496E-03
    0.3750348798690704E+01   -0.2496588986442259E+01    0.1468415119082683E-03
    0.2498611608554525E+01   -0.2496588986442259E+01    0.1009399376806499E-03
    0.1247175433684251E+01   -0.2496588986442259E+01    0.1111888851508214E-03
   -0.3383068008610155E-02   -0.2496588986442259E+01    0.8150520461993210E-04
   -0.4256955851068873E-02   -0.1225733921940076E+01    0.3469021480935072E-04
   -0.5250811048115658E-02    0.2619538073149394E-01    0.1042835093026555E-03
   -0.5675964951546734E-02    0.1278221764905737E+01    0.8294295287214232E-04
    0.9003216169816050E+00    0.1608980057928585E+01    0.8723014083989034E-04
    0.3983172877234496E+01   -0.1561211350986338E+01    0.1760002127700830E-03
    0.4035602132520589E+01    0.1486760691219746E+01    0.1720286243631940E-03
    0.1036614197571059E+01   -0.1455625663561180E+01    0.1053351185766913E-03
    0.1094354118517697E+01   -0.2964612593014413E+00    0.1270024378743545E-03
    0.7298404519547405E+00    0.6874694715327181E+00    0.1051228423596990E-03
    0.1617018826115776E+01    0.8553210854460175E+00    0.1533030449187274E-03
    0.2143200501888038E+01   -0.1627128173870766E+01    0.1610504152783293E-03
    0.4088840817860322E+01   -0.4351038589522145E+00    0.2720164200689178E-03
    0.2977916803796307E+01   -0.8334982172549265E+00    0.2250176830131056E-03
    0.3044093701898847E+01   -0.1814360775861436E+01    0.1620229234402038E-03
    0.3427867342648891E+01    0.3813906283367565E+00    0.2939791736545562E-03
    0.4313226131547213E+01    0.5489134504401266E+00    0.2317707379503813E-03
    0.1823033136120683E+01    0.1771265626696227E+01    0.1837731895496521E-03
    0.2806312048597993E+01    0.1358629701935093E+01    0.1950949191722223E-03
    0.1891861460093988E+01   -0.8481309711553094E+00    0.1671919978819847E-03
    0.2268769423809795E+01    0.7723737869388028E-01    0.2072802753067467E-03
    0.5000000000000000E+01    0.2504942051092539E+01    0.1250000000000000E+01
    0.5000000000000000E+01    0.2504942051092539E+01    0.2500000000000000E+01
    0.5000000000000000E+01    0.2504942051092539E+01    0.3750000000000000E+01
    0.5000000000000000E+01    0.2504942051092539E+01    0.5000000000000000E+01
    0.3750000000000000E+01    0.2504942051092539E+01    0.5000000000000000E+01
    0.2500000000000000E+01    0.2504942051092539E+01    0.5000000000000000E+01
    0.1250000000000000E+01    0.2504942051092539E+01    0.5000000000000000E+01
    0.0000000000000000E+00    0.2504942051092539E+01    0.5000000000000000E+01
    0.0000000000000000E+00    0.2504942051092539E+01    0.3750000000000000E+01
    0.0000000000000000E+00    0.2504942051092539E+01    0.2500000000000000E+01
    0.0000000000000000E+00    0.2504942051092539E+01    0.1250000000000000E+01
    0.9588960571231865E+00    0.2504942051092539E+01    0.9696529778455178E+00
    0.3981953123960229E+01    0.2504942051092539E+01    0.4070563957054499E+01
    0.4036122654246864E+01    0.2504942051092539E+01    0.1017568184005398E+01
    0.9637572721596147E+00    0.2504942051092539E+01    0.3973598277573462E+01
    0.1546540204397300E+01    0.2504942051092539E+01    0.2931570394191802E+01
    0.6973799701054136E+00    0.2504942051092539E+01    0.3070320060098056E+01
    0.8903743084219861E+00    0.2504942051092539E+01    0.2056562452539602E+01
    0.2183042014959271E+01    0.2504942051092539E+01    0.3960694590946582E+01
    0.3855844981955203E+01    0.2504942051092539E+01    0.2933250842619056E+01
    0.3152611431327898E+01    0.2504942051092539E+01    0.3637668584319779E+01
    0.3103307414861235E+01    0.2504942051092539E+01    0.4332607912231964E+01
    0.3266711257945840E+01    0.2504942051092539E+01    0.1889657095637415E+01
    0.4232537722628977E+01    0.2504942051092539E+01    0.1918627288979130E+01
    0.1905522775357408E+01    0.2504942051092539E+01    0.7226294652692130E+00
    0.2879768116040530E+01    0.2504942051092539E+01    0.9080952827255694E+00
    0.2012711594383454E+01    0.2504942051092539E+01    0.1767082771793431E+01
    0.2669681577387165E+01    0.2504942051092539E+01    0.2853394652907192E+01
    0.5000000000000000E+01    0.1250000000000000E+01    0.5000000000000000E+01
    0.5000000000000000E+01    0.0000000000000000E+00    0.5000000000000000E+01
    0.5000000000000000E+01   -0.1250000000000000E+01    0.5000000000000000E+01
    0.5000000000000000E+01   -0.2496588986442259E+01    0.5000000000000000E+01
    0.5000000000000000E+01   -0.2496588986442259E+01    0.3750000000000000E+01
    0.5000000000000000E+01   -0.2496588986442259E+01    0.2500000000000000E+01
    0.5000000000000000E+01   -0.2496588986442259E+01    0.1250000000000000E+01
    0.5000000000000000E+01    0.1578994732800803E+01    0.9058375365086910E+00
    0.5000000000000000E+01   -0.1583989954232354E+01    0.3982050490726493E+01
    0.5000000000000000E+01    0.1453322699199022E+01    0.4033849428301197E+01
    0.5000000000000000E+01   -0.1479596339503735E+01    0.1040505887381675E+01
    0.5000000000000000E+01   -0.3227322616384110E+00    0.1099454400140349E+01
    0.5000000000000000E+01    0.6593508822075582E+00    0.7354504170366591E+00
    0.5000000000000000E+01    0.8256214013940779E+00    0.1622302608453282E+01
    0.5000000000000000E+01   -0.1650070333782557E+01    0.2145871574390382E+01
    0.5000000000000000E+01   -0.4612828702537229E+00    0.4086422318222992E+01
    0.5000000000000000E+01   -0.8579242121530853E+00    0.2979540174134984E+01
    0.5000000000000000E+01   -0.1836846154397680E+01    0.3045064261640043E+01
    0.5000000000000000E+01    0.3508002863614053E+00    0.3428197553792836E+01
    0.5000000000000000E+01    0.5185680230613409E+00    0.4309693860063405E+01
    0.5000000000000000E+01    0.1738996113203182E+01    0.1827272193562204E+01
    0.5000000000000000E+01    0.1325493893339706E+01    0.2808563282768077E+01
    0.5000000000000000E+01   -0.8731419609589618E+00    0.1895995683864404E+01
    0.5000000000000000E+01    0.4906150219227333E-01    0.2273179336307740E+01
    0.0000000000000000E+00    0.1250000000000000E+01    0.5000000000000000E+01
    0.0000000000000000E+00    0.0000000000000000E+00    0.5000000000000000E+01
    0.0000000000000000E+00   -0.1250000000000000E+01    0.5000000000000000E+01
    0.0000000000000000E+00   -0.2496588986442259E+01    0.5000000000000000E+01
    0.1250000000000000E+01   -0.2496588986442259E+01    0.5000000000000000E+01
    0.2500000000000000E+01   -0.2496588986442259E+01    0.5000000000000000E+01
    0.3750000000000000E+01   -0.2496588986442259E+01    0.5000000000000000E+01
    0.4042003247744892E+01    0.1558308132739014E+01    0.5000000000000000E+01
    0.9304122287900499E+00   -0.1548001304379777E+01    0.5000000000000000E+01
    0.1037243024609388E+01    0.1462892710085612E+01    0.5000000000000000E+01
    0.3946240828834967E+01   -0.1445243809615570E+01    0.5000000000000000E+01
    0.4092527262848217E+01   -0.3455338993778935E+00    0.5000000000000000E+01
    0.4293103109154542E+01    0.6277660831404320E+00    0.5000000000000000E+01
    0.3241512314643519E+01    0.7429886854239611E+00    0.5000000000000000E+01
    0.2844289952419609E+01   -0.1588117879734118E+01    0.5000000000000000E+01
    0.7159905765450471E+00   -0.6002320124191652E+00    0.5000000000000000E+01
    0.1754341919796891E+01   -0.7398147869923652E+00    0.5000000000000000E+01
    0.1870296826774691E+01   -0.1788622905643739E+01    0.5000000000000000E+01
    0.9220614901912976E+00    0.3083720183248586E+00    0.5000000000000000E+01
    0.3101523624086016E+01    0.1777901774806180E+01    0.5000000000000000E+01
    0.2192512063922564E+01    0.1576861561598471E+01    0.5000000000000000E+01
    0.2024793420196460E+01    0.4773861992750707E+00    0.5000000000000000E+01
    0.2990627757741975E+01   -0.4878110785814084E+00    0.5000000000000000E+01
    0.0000000000000000E+00   -0.2496588986442259E+01    0.1250000000000000E+01
    0.0000000000000000E+00   -0.2496588986442259E+01    0.2500000000000000E+01
    0.0000000000000000E+00   -0.2496588986442259E+01    0.3750000000000000E+01
    0.0000000000000000E+00    0.1558308132739014E+01    0.4042003247744892E+01
    0.0000000000000000E+00   -0.1548001304379777E+01    0.9304122287900499E+00
    0.0000000000000000E+00    0.1462892710085612E+01    0.1037243024609388E+01
    0.0000000000000000E+00   -0.1445243809615570E+01    0.3946240828834967E+01
    0.0000000000000000E+00   -0.3455338993778935E+00    0.4092527262848217E+01
    0.0000000000000000E+00    0.6277660831404320E+00    0.4293103109154542E+01
    0.0000000000000000E+00    0.7429886854239611E+00    0.3241512314643519E+01
    0.0000000000000000E+00   -0.1588117879734118E+01    0.2844289952419609E+01
    0.0000000000000000E+00   -0.6002320124191652E+00    0.7159905765450471E+00
    0.0000000000000000E+00   -0.7398147869923652E+00    0.1754341919796891E+01
    0.0000000000000000E+00   -0.1788622905643739E+01    0.1870296826774691E+01
    0.0000000000000000E+00    0.3083720183248586E+00    0.9220614901912976E+00
    0.0000000000000000E+00    0.1777901774806180E+01    0.3101523624086016E+01
    0.0000000000000000E+00    0.1576861561598471E+01    0.2192512063922564E+01
[...]
POINT_DATA 213
SCALARS rho double 1
LOOKUP_TABLE default
   0.1346107847670341E+01
   0.9572038810625071E+00
   0.9461174478959182E+00
   0.9421723900188531E+00
   0.8436075097297726E+00
   0.7742023330635545E+00
   0.7627583445507911E+00
   0.7661564192179202E+00
   0.8310490069273840E+00
   0.9353549278225645E+00
   0.9343897810489593E+00
   0.9616167632414783E+00
   0.1448475222895286E+01
   0.1495420477602098E+01
   0.1646729428034269E+01
   0.1426611329231917E+01
   0.1009807008545842E+01
   0.9511452254372530E+00
   0.9438202037823544E+00
   0.9574649099207676E+00
   0.9414971363404002E+00
   0.1037118997293322E+01
   0.9258166390459706E+00
   0.9322402362584351E+00
   0.9538058854315437E+00
   0.9520452944121935E+00
   0.9351035999438143E+00
   0.9565496704988776E+00
   0.9378638094557354E+00
   0.9303462354267422E+00
   0.9446468926992455E+00
   0.8862351420390240E+00
   0.9424046350872124E+00
   0.9637015754862968E+00
   0.1008356239978432E+01
   0.1006712422755117E+01
   0.1001958981021128E+01
   0.1003217522005229E+01
   0.1004120088396402E+01
   0.1005208052347284E+01
   0.1004249958327788E+01
   0.1008268322236985E+01
   0.1023869433349173E+01
   0.1063755460951728E+01
   0.1019394044449652E+01
   0.1001777927550850E+01
   0.9645776715710347E+00
   0.1005263321548967E+01
   0.1000745732653441E+01
   0.1008696541224103E+01
   0.1008037946995135E+01
   0.1002353855256553E+01
   0.9980195394441523E+00
   0.1000592766919960E+01
   0.1001620625954667E+01
   0.9828039026715907E+00
   0.9843899997364278E+00
   0.9834136217793686E+00
   0.9790328139362796E+00
   0.9904757218608684E+00
   0.9935193430549588E+00
   0.1002008911631084E+01
   0.1002132235128002E+01
   0.1002273053845411E+01
   0.1001793570530937E+01
   0.1009816139712223E+01
   0.1006507929626631E+01
   0.9561125613547531E+00
   0.9252807564526001E+00
   0.1007054001028593E+01
   0.1004491021345752E+01
   0.9145128223615233E+00
   0.9091570431335673E+00
   0.8752462666287157E+00
   0.9767979109298125E+00
   0.1000541335609724E+01
   0.1005826590864486E+01
   0.1012896687526107E+01
   0.1011680281044787E+01
   0.1010415989615180E+01
   0.1005456652665377E+01
   0.9909167224875166E+00
   0.1005149580652797E+01
   0.9860894877827306E+00
   0.1005593178852418E+01
   0.1004239919443245E+01
   0.1002885972034796E+01
   0.1003350062477245E+01
   0.1003997949486452E+01
   0.1005115336587317E+01
   0.1003223205915173E+01
   0.1002669079431060E+01
   0.1002589488851799E+01
   0.1004069039976638E+01
   0.1004304976845040E+01
   0.1001643110371350E+01
   0.1002279095005735E+01
   0.1002546731709561E+01
   0.1003471960556625E+01
   0.1003380218523411E+01
   0.1003233131232495E+01
   0.1004429877995657E+01
   0.1004324027479003E+01
   0.1003653007197090E+01
   0.1003718567118614E+01
   0.1004319218147316E+01
   0.1004462551261068E+01
   0.1003629388204451E+01
   0.1064485248151995E+01
   0.1028442058119838E+01
   0.1009605869225605E+01
   0.1006626982756081E+01
   0.1163967523643544E+01
   0.1086026697036540E+01
   0.1007907081494773E+01
   0.1007251822848680E+01
   0.1006796454110525E+01
   0.1013053873473251E+01
   0.1019340788804331E+01
   0.1235123136718721E+01
   0.1032535554354224E+01
   0.1046565482218350E+01
   0.1201701799116321E+01
   0.1014672131433122E+01
   0.1032297490346030E+01
   0.1028222169087535E+01
   0.1014640514766400E+01
   0.1028986897251007E+01
   0.1002003699440951E+01
   0.9608147925382922E+00
   0.1006858064275353E+01
   0.1001324896332900E+01
   0.1010798254203282E+01
   0.1012231333067575E+01
   0.1000939560144449E+01
   0.9979357735272547E+00
   0.9980690309328406E+00
   0.1001192023375169E+01
   0.9842100743644981E+00
   0.9815228407687732E+00
   0.9648740279918404E+00
   0.9680944398422517E+00
   0.9914084111694415E+00
   0.9910913073424813E+00
   0.9925587065586102E+00
   0.1001727543571170E+01
   0.9993245687957771E+00
   0.9941434256336540E+00
   0.1006982471420849E+01
   0.1022613013670464E+01
   0.1001120617030042E+01
   0.1008783929614130E+01
   0.1004774766124460E+01
   0.1009030403631328E+01
   0.9967211478440662E+00
   0.1005570639741109E+01
   0.1003324752069447E+01
   0.9949845954019669E+00
   0.9833501628271754E+00
   0.9944494720620211E+00
   0.9973474139248757E+00
   0.9932503589741867E+00
   0.1001311869520534E+01
   0.1003000699394833E+01
   0.1002188279135485E+01
   0.9947119991365097E+00
   0.9937832103618951E+00
   0.1004861699101891E+01
   0.1020101271616349E+01
   0.1005337220478049E+01
   0.9817045823665775E+00
   0.1004974587548833E+01
   0.1012374655106939E+01
   0.9873720214539573E+00
   0.9551283819467490E+00
   0.9865253586813494E+00
   0.9865916517182233E+00
   0.9920067169993692E+00
   0.9934435511814347E+00
   0.9960682369570633E+00
   0.1037400094116153E+01
   0.1033161061066108E+01
   0.1001442970843722E+01
   0.1001928629826955E+01
   0.9912313008407808E+00
   0.9911145213096191E+00
   0.9649433875162876E+00
   0.9933790145273075E+00
   0.1006090798635786E+01
   0.1001963026764317E+01
   0.9908628871417553E+00
   0.9742169594371007E+00
   0.9420655831803640E+00
   0.9821543762152481E+00
   0.9794783185361512E+00
   0.9704368383794251E+00
   0.9720887014715944E+00
   0.9557898366530798E+00
   0.9498086626608642E+00
   0.9529904469870025E+00
   0.1002635783527536E+01
   0.1002475615784907E+01
   0.1000513070689192E+01
   0.1001674842053023E+01
   0.9610034819186430E+00
   0.9492443137372383E+00
   0.9586632983651713E+00
   0.1001121356828050E+01
   0.1000501190056725E+01
   0.1001159788090073E+01
   0.9807420276765795E+00
   0.9805568402393372E+00
   0.9629217435226568E+00
SCALARS u double 1
LOOKUP_TABLE default
   0.0000000000000000E+00
   0.0000000000000000E+00
   0.0000000000000000E+00
   0.0000000000000000E+00
   0.0000000000000000E+00
   0.0000000000000000E+00
   0.0000000000000000E+00
   0.0000000000000000E+00
   0.0000000000000000E+00
   0.0000000000000000E+00
   0.0000000000000000E+00
   0.0000000000000000E+00
   0.0000000000000000E+00
   0.0000000000000000E+00
   0.0000000000000000E+00
   0.0000000000000000E+00
   0.0000000000000000E+00
   0.0000000000000000E+00
   0.0000000000000000E+00
   0.0000000000000000E+00
   0.0000000000000000E+00
   0.0000000000000000E+00
   0.0000000000000000E+00
   0.0000000000000000E+00
   0.0000000000000000E+00
   0.0000000000000000E+00
   0.0000000000000000E+00
   0.0000000000000000E+00
   0.0000000000000000E+00
   0.0000000000000000E+00
   0.0000000000000000E+00
   0.0000000000000000E+00
   0.0000000000000000E+00
   0.4945970826197612E+00
   0.5336248205859138E+00
   0.5182739809131562E+00
   0.4930715562520501E+00
   0.4847756934348810E+00
   0.4868133213529276E+00
   0.4891430897618171E+00
   0.4958008913353172E+00
   0.4899007564693031E+00
   0.4718072669428139E+00
   0.4448872965211686E+00
   0.4844369793398745E+00
   0.5097702780060342E+00
   0.4401860128050211E+00
   0.4949587124137196E+00
   0.5223003608882356E+00
   0.4962747154342869E+00
   0.5223832236905039E+00
   0.5038168093140644E+00
   0.5644336750965161E+00
   0.5245894369075020E+00
   0.4990984806113409E+00
   0.5729201728046172E+00
   0.5693592687667600E+00
   0.3752191599791508E+00
   0.4003639826764177E+00
   0.5599389760744998E+00
   0.5562258908442627E+00
   0.4942642601883091E+00
   0.4948653064497784E+00
   0.4925619344269258E+00
   0.4913967889203064E+00
   0.5162597249097494E+00
   0.5363670841118855E+00
   0.4951373813437390E+00
   0.4520511906104254E+00
   0.5129007545203473E+00
   0.5117698805256327E+00
   0.4786317124735696E+00
   0.4931121912200916E+00
   0.4600269947889620E+00
   0.5242595753506276E+00
   0.5299947188985481E+00
   0.5129700158155830E+00
   0.5328928606776212E+00
   0.5309782823542505E+00
   0.5309767050556109E+00
   0.5063650812083826E+00
   0.5279536214203089E+00
   0.5409238862804784E+00
   0.5363718824853430E+00
   0.5374201306995373E+00
   0.4965359012379819E+00
   0.4975364834360513E+00
   0.4963815175965721E+00
   0.4955155056981200E+00
   0.4904172312478862E+00
   0.4902500187320539E+00
   0.4861611315857025E+00
   0.4854070838381782E+00
   0.4931956093281684E+00
   0.4910329932606117E+00
   0.4831677857693286E+00
   0.4872470408115759E+00
   0.4880026910637972E+00
   0.4872313890220913E+00
   0.4882163871675468E+00
   0.4952576958236645E+00
   0.4900721319054976E+00
   0.4903599182303335E+00
   0.4944353250250460E+00
   0.4868193121326567E+00
   0.4892736084414566E+00
   0.4881468399147599E+00
   0.4878253143119315E+00
   0.4449106905243836E+00
   0.4700132919815720E+00
   0.4891774970358022E+00
   0.4885974584652733E+00
   0.4510295196528104E+00
   0.4681803388252373E+00
   0.4876666854816550E+00
   0.4868262749960789E+00
   0.4909268327539759E+00
   0.4793945655020965E+00
   0.4657906853295527E+00
   0.3794390874040874E+00
   0.4903637057455145E+00
   0.4487969110678652E+00
   0.4432386522550690E+00
   0.4845716481001832E+00
   0.4621867953878059E+00
   0.4663606585696593E+00
   0.4747787104590895E+00
   0.4893811204432322E+00
   0.5085639941405994E+00
   0.4305372687152979E+00
   0.4927298111844876E+00
   0.5320327440296426E+00
   0.4913855520564533E+00
   0.5209473717447900E+00
   0.5061309566026210E+00
   0.5690650950052061E+00
   0.5274990923605194E+00
   0.5015024599179488E+00
   0.5821782328009451E+00
   0.5691769002216814E+00
   0.3403299789292040E+00
   0.3786150901984904E+00
   0.5753346571541912E+00
   0.5668543390959041E+00
   0.5703059486258960E+00
   0.5291879250930540E+00
   0.5449837168913321E+00
   0.5719102728548183E+00
   0.5385667483327928E+00
   0.5475905809760274E+00
   0.5821515796925349E+00
   0.4925318979742291E+00
   0.5041571050855203E+00
   0.4961293338009092E+00
   0.5562736019162211E+00
   0.4757835688089876E+00
   0.4950183390944654E+00
   0.5496187892352005E+00
   0.5889517078498291E+00
   0.5839552520491992E+00
   0.5468175423634787E+00
   0.5803880141055711E+00
   0.5106065628040332E+00
   0.5029552599691339E+00
   0.5033113177702730E+00
   0.5676221895475153E+00
   0.5564619505728526E+00
   0.4947144979476618E+00
   0.5506785492179808E+00
   0.5513581128170109E+00
   0.5658250528600991E+00
   0.4919965220815227E+00
   0.4927864186018384E+00
   0.3865373004654156E+00
   0.3687905681564647E+00
   0.5574396285326492E+00
   0.5761715200217468E+00
   0.4194266148383773E+00
   0.5822959926704764E+00
   0.4268170226681882E+00
   0.5397379419956206E+00
   0.5016136699919265E+00
   0.5119237957562350E+00
   0.5048466528194884E+00
   0.5752734162171812E+00
   0.5878359621856224E+00
   0.5382540807939069E+00
   0.5679685583894095E+00
   0.5351985222793899E+00
   0.5338430618104493E+00
   0.5582271887905770E+00
   0.5511430541325570E+00
   0.4256686603729620E+00
   0.5272843883407868E+00
   0.5796788919077804E+00
   0.3318300409643953E+00
   0.4761645964302582E+00
   0.5446507412933270E+00
   0.4800728680696371E+00
   0.3006193537085558E+00
   0.5031625724709882E+00
   0.5017187381918902E+00
   0.5129125805941899E+00
   0.5414130783544855E+00
   0.3435098937544005E+00
   0.3397972155934944E+00
   0.3190373828716403E+00
   0.5066177003352469E+00
   0.5123824520802125E+00
   0.5329090640225761E+00
   0.5881345143964055E+00
   0.4645018019739138E+00
   0.3529492540665904E+00
SCALARS v double 1
LOOKUP_TABLE default
   0.0000000000000000E+00
   0.0000000000000000E+00
   0.0000000000000000E+00
   0.0000000000000000E+00
   0.0000000000000000E+00
   0.0000000000000000E+00
   0.0000000000000000E+00
   0.0000000000000000E+00
   0.0000000000000000E+00
   0.0000000000000000E+00
   0.0000000000000000E+00
   0.0000000000000000E+00
   0.0000000000000000E+00
   0.0000000000000000E+00
   0.0000000000000000E+00
   0.0000000000000000E+00
   0.0000000000000000E+00
   0.0000000000000000E+00
   0.0000000000000000E+00
   0.0000000000000000E+00
   0.0000000000000000E+00
   0.0000000000000000E+00
   0.0000000000000000E+00
   0.0000000000000000E+00
   0.0000000000000000E+00
   0.0000000000000000E+00
   0.0000000000000000E+00
   0.0000000000000000E+00
   0.0000000000000000E+00
   0.0000000000000000E+00
   0.0000000000000000E+00
   0.0000000000000000E+00
   0.0000000000000000E+00
   0.0000000000000000E+00
   0.0000000000000000E+00
   0.0000000000000000E+00
   0.0000000000000000E+00
   0.0000000000000000E+00
   0.0000000000000000E+00
   0.0000000000000000E+00
   0.0000000000000000E+00
   0.0000000000000000E+00
   0.0000000000000000E+00
   0.0000000000000000E+00
   0.0000000000000000E+00
   0.0000000000000000E+00
   0.0000000000000000E+00
   0.0000000000000000E+00
   0.0000000000000000E+00
   0.0000000000000000E+00
   0.0000000000000000E+00
   0.0000000000000000E+00
   0.0000000000000000E+00
   0.0000000000000000E+00
   0.0000000000000000E+00
   0.0000000000000000E+00
   0.0000000000000000E+00
   0.0000000000000000E+00
   0.0000000000000000E+00
   0.0000000000000000E+00
   0.0000000000000000E+00
   0.8507714010742873E-03
  -0.1263682159482208E-02
  -0.1294359740058910E-02
   0.0000000000000000E+00
   0.0000000000000000E+00
   0.0000000000000000E+00
   0.0000000000000000E+00
  -0.1933173215956097E-01
   0.5037754885864949E-03
   0.2213187955497838E-02
   0.1420876669863672E-01
  -0.6733023587589149E-02
  -0.8155325764934081E-02
  -0.1324509942816805E-01
   0.5002681319819027E-02
   0.7354144018950693E-03
   0.3481230102205186E-02
   0.1949282234099056E-02
   0.3168712218030156E-02
   0.1754935543581470E-02
  -0.7289685149396887E-02
  -0.6647969576385965E-04
   0.4565694184007156E-02
  -0.4086296315199638E-03
  -0.6654173893992460E-04
  -0.2024349441350977E-03
   0.8053626186998793E-03
   0.0000000000000000E+00
   0.0000000000000000E+00
   0.0000000000000000E+00
   0.0000000000000000E+00
   0.4739668065423634E-03
   0.1623486561614454E-02
  -0.1273511676546681E-02
  -0.9987747257298014E-03
  -0.2077463701595721E-02
  -0.9969970261466390E-03
  -0.7511982508221568E-03
  -0.7430386915588238E-03
   0.6013980205990465E-04
  -0.5976145782936793E-03
   0.8033179575131557E-03
  -0.1730549475865385E-02
   0.3141051842505305E-03
  -0.5785085949009578E-04
  -0.8901664405585041E-03
  -0.1053117130547670E-02
   0.0000000000000000E+00
   0.0000000000000000E+00
   0.0000000000000000E+00
  -0.1035480773346757E-02
  -0.7791772780505512E-02
   0.1821119928969357E-01
  -0.2907293527987015E-04
  -0.1377001098231482E-02
  -0.2028320497988937E-02
  -0.5613332345092529E-02
  -0.1620480160146604E-02
  -0.6358834217864814E-02
  -0.4327528551537953E-02
   0.1516527934746306E-02
   0.3300087830566895E-01
   0.4397108705900688E-04
  -0.2766679009399227E-02
   0.3629409523755311E-02
   0.3917495431414034E-03
   0.0000000000000000E+00
   0.0000000000000000E+00
   0.0000000000000000E+00
   0.0000000000000000E+00
   0.0000000000000000E+00
   0.0000000000000000E+00
   0.0000000000000000E+00
   0.0000000000000000E+00
   0.0000000000000000E+00
   0.0000000000000000E+00
   0.0000000000000000E+00
   0.0000000000000000E+00
   0.0000000000000000E+00
   0.0000000000000000E+00
   0.0000000000000000E+00
   0.0000000000000000E+00
   0.0000000000000000E+00
   0.4996960683458557E-02
   0.3210188745877106E-02
   0.8121790129518048E-02
   0.6089625801620237E-02
   0.1117052751434734E-01
   0.1403200424291723E-01
  -0.3288454628460842E-03
   0.5160323417927663E-02
   0.2928862739545446E-02
   0.3376781514551989E-02
   0.3724194628105541E-02
  -0.1469857463395105E-01
  -0.6149021319171124E-03
   0.6636935327458938E-02
   0.1453259812051088E-02
   0.1957680160605062E-02
   0.4261429201062517E-02
  -0.2811582757739255E-02
   0.1265476531814475E-02
   0.2850413488003173E-02
   0.1533823908433767E-02
   0.2562428680626861E-02
   0.2009320992905823E-02
   0.2152896283935348E-02
   0.8578466151568381E-02
  -0.3835716509278031E-02
   0.6146239728855911E-02
   0.4620188574303728E-04
  -0.4247813031160818E-03
  -0.1674694559504708E-01
  -0.5005046349198190E-02
  -0.4835533067710125E-02
   0.3396927646433657E-02
  -0.6079355480562800E-02
   0.2522700504751655E-04
  -0.3285389983239272E-01
  -0.3188822921426404E-02
   0.4573339175202981E-02
   0.9670258213837892E-03
   0.2132607660461736E-02
   0.4531858426490167E-02
   0.2691314837953734E-02
   0.3250791359963571E-02
   0.5226677987644756E-02
   0.1957689293737457E-02
   0.7476357999979805E-03
  -0.6133600217975217E-04
  -0.5321979432056732E-02
  -0.6966496637304478E-02
  -0.9690559880455021E-03
   0.1057801021099437E-02
  -0.2117726471601838E-02
  -0.3224058315961878E-02
  -0.2538178214956058E-02
  -0.4117245299034341E-02
  -0.7559160078318002E-02
  -0.2014246206952629E-02
   0.6495590241390428E-03
  -0.1932176593666133E-03
   0.1227174360394498E-02
  -0.3503817396893643E-02
   0.4855591499736197E-02
  -0.8634974327179480E-02
   0.3163185278129982E-04
  -0.3337356991659154E-03
   0.2557970754771641E-02
   0.1609331236237504E-02
   0.2028256845805029E-02
  -0.5642908614612193E-02
SCALARS w double 1
LOOKUP_TABLE default
   0.0000000000000000E+00
   0.0000000000000000E+00
   0.0000000000000000E+00
   0.0000000000000000E+00
   0.0000000000000000E+00
   0.0000000000000000E+00
   0.0000000000000000E+00
   0.0000000000000000E+00
   0.0000000000000000E+00
   0.0000000000000000E+00
   0.0000000000000000E+00
   0.0000000000000000E+00
   0.0000000000000000E+00
   0.0000000000000000E+00
   0.0000000000000000E+00
   0.0000000000000000E+00
   0.0000000000000000E+00
   0.0000000000000000E+00
   0.0000000000000000E+00
   0.0000000000000000E+00
   0.0000000000000000E+00
   0.0000000000000000E+00
   0.0000000000000000E+00
   0.0000000000000000E+00
   0.0000000000000000E+00
   0.0000000000000000E+00
   0.0000000000000000E+00
   0.0000000000000000E+00
   0.0000000000000000E+00
   0.0000000000000000E+00
   0.0000000000000000E+00
   0.0000000000000000E+00
   0.0000000000000000E+00
  -0.1007323275027722E+00
  -0.4246420505509764E-01
   0.7113094515404154E-03
   0.5703914387738858E-02
   0.5677339194611782E-03
   0.1606455611889748E-02
   0.3372452935079089E-02
   0.2364328981129623E-02
   0.4714502707061545E-03
   0.3527033322955590E-02
   0.4532836867424698E-01
   0.6564267859134643E-01
   0.8375836445087471E-03
  -0.2265946508658242E-01
   0.4272676350080021E-02
   0.1342682978012393E-01
   0.1030062519173939E-01
   0.4871551723029775E-01
   0.2383973273490561E-02
  -0.6536026076120667E-02
  -0.7361134411967915E-03
   0.3060126028094702E-03
   0.3852905430098690E-02
  -0.3894167833320528E-01
   0.1818958118234057E-01
   0.1121948081106524E-01
   0.3396112461304661E-01
   0.8384109468997198E-02
   0.4924097434956138E-02
   0.4973452047034240E-02
   0.4900549395106837E-02
   0.6056717337428109E-02
   0.2699596420864632E-02
  -0.4126443535252483E-01
  -0.9925919979291074E-01
  -0.1120359237677006E+00
   0.5146273394402013E-02
   0.4213975129235660E-02
  -0.1002564184278175E+00
  -0.9892848690992787E-01
  -0.9835937652113368E-01
  -0.9444625199910667E-01
  -0.6789770867374230E-01
   0.5197135628935625E-02
  -0.1927013848392469E-01
  -0.1562811017103531E-01
  -0.5965382678860109E-02
   0.6821936064211571E-02
  -0.8000743777153084E-01
  -0.2776959242284795E-01
  -0.8085904110303403E-01
  -0.5863343818678465E-01
   0.3074010190726645E-02
   0.2684901219846190E-02
   0.2644247634902497E-02
   0.3456842361750952E-02
   0.3997725449174639E-02
   0.1199108739848051E-02
  -0.1356370925403160E-03
   0.2028513701978943E-02
   0.4893493082748761E-02
   0.3864259152321529E-02
   0.1125909936426720E-02
   0.1187871553178354E-02
   0.1459981124598663E-02
  -0.2249501708692033E-04
   0.9078833734313152E-04
   0.4386510541580307E-02
   0.2712006860090705E-02
   0.2316468115287587E-02
   0.5006616917145353E-02
   0.1069203777595836E-02
   0.2706712656056281E-02
   0.2010192166787105E-02
   0.3341043128108580E-04
   0.8386121180523189E-01
   0.2833933873400552E-02
  -0.8465912751766183E-03
  -0.1275273951811735E-03
   0.1410969458221137E+00
   0.1236586738030879E+00
  -0.1228602786729423E-02
  -0.4383029819695132E-02
  -0.2803820481241056E-03
  -0.6478055772772744E-02
  -0.1893641000459228E-02
   0.1559600291040641E+00
   0.7528210324277924E-01
   0.2567699508510807E-01
   0.1661258501516497E+00