# vtk DataFile Version 2.0
FUN3D:global_image_vtk
ASCII
DATASET UNSTRUCTURED_GRID
POINTS 213 double
   -0.5474034791479811E-02    0.2504942076728992E+01    0.8150159399027678E-04
    0.1245419672959591E+01    0.2504942076728992E+01    0.1047277729471703E-03
    0.2497696577848839E+01    0.2504942076728992E+01    0.1110014622885641E-03
    0.3750591292531816E+01    0.2504942076728992E+01    0.1361998216059220E-03
    0.5003222305639440E+01    0.2504942076728992E+01    0.9710345422873590E-04
    0.5004677133222702E+01    0.1281292234626102E+01    0.1639225351491613E-03
    0.5004773639246594E+01    0.2775173908448856E-01    0.1910821770931607E-03
    0.5003582089737773E+01   -0.1225853078888782E+01    0.1617189504222012E-03
    0.5001953411348048E+01   -0.2496588976783356E+01    0.1090487764229120E-03
    0.3750349101294953E+01   -0.2496588976783356E+01    0.1460008005054494E-03
    0.2498611702424044E+01   -0.2496588976783356E+01    0.1009821411355215E-03
    0.1247175496632721E+01   -0.2496588976783356E+01    0.1112724912602214E-03
   -0.3383749369537952E-02   -0.2496588976783356E+01    0.8138799078189273E-04
   -0.4257368130220663E-02   -0.1225733816484489E+01    0.3495143506717266E-04
   -0.5250758842340432E-02    0.2619544496978930E-01    0.1049334725945922E-03
   -0.5676037539326675E-02    0.1278221945526992E+01    0.8256165600122594E-04
    0.9003215589602365E+00    0.1608979751742938E+01    0.8772925883107234E-04
    0.3983172550220766E+01   -0.1561211228563867E+01    0.1764035284144421E-03
    0.4035602434919056E+01    0.1486760979478153E+01    0.1722531803772463E-03
    0.1036614150179919E+01   -0.1455625621879872E+01    0.1056282748720346E-03
    0.1094353548258011E+01   -0.2964613435486003E+00    0.1264352964523108E-03
    0.7298406890792656E+00    0.6874692508675623E+00    0.1049285511396338E-03
    0.1617019060610020E+01    0.8553219512469192E+00    0.1531967691650307E-03
    0.2143200455099061E+01   -0.1627127781400796E+01    0.1606680274588255E-03
    0.4088841364403756E+01   -0.4351044105779334E+00    0.2721382244297130E-03
    0.2977917458254878E+01   -0.8334986102062707E+00    0.2247618513699503E-03
    0.3044093457651864E+01   -0.1814360830151587E+01    0.1623026668864033E-03
    0.3427866976848817E+01    0.3813906796016652E+00    0.2942746620253756E-03
    0.4313226140670545E+01    0.5489141099514474E+00    0.2315169160803520E-03
    0.1823033630301312E+01    0.1771266266707696E+01    0.1839668676665383E-03
    0.2806311221746753E+01    0.1358629805466062E+01    0.1953827602410102E-03
    0.1891861776913194E+01   -0.8481301166731644E+00    0.1679010941653158E-03
    0.2268770140783121E+01    0.7723713258746441E-01    0.2074544044361199E-03
    0.5000000000000000E+01    0.2504942076728992E+01    0.1250000000000000E+01
    0.5000000000000000E+01    0.2504942076728992E+01    0.2500000000000000E+01
    0.5000000000000000E+01    0.2504942076728992E+01    0.3750000000000000E+01
    0.5000000000000000E+01    0.2504942076728992E+01    0.5000000000000000E+01
    0.3750000000000000E+01    0.2504942076728992E+01    0.5000000000000000E+01
    0.2500000000000000E+01    0.2504942076728992E+01    0.5000000000000000E+01
    0.1250000000000000E+01    0.2504942076728992E+01    0.5000000000000000E+01
    0.0000000000000000E+00    0.2504942076728992E+01    0.5000000000000000E+01
    0.0000000000000000E+00    0.2504942076728992E+01    0.3750000000000000E+01
    0.0000000000000000E+00    0.2504942076728992E+01    0.2500000000000000E+01
    0.0000000000000000E+00    0.2504942076728992E+01    0.1250000000000000E+01
    0.9588960109950324E+00    0.2504942076728992E+01    0.9696534358518428E+00
    0.3981953135987070E+01    0.2504942076728992E+01    0.4070563977153090E+01
    0.4036122603048257E+01    0.2504942076728992E+01    0.1017568077737450E+01
    0.9637572680007634E+00    0.2504942076728992E+01    0.3973598317790697E+01
    0.1546540199868994E+01    0.2504942076728992E+01    0.2931570534639773E+01
    0.6973799501976604E+00    0.2504942076728992E+01    0.3070320151581353E+01
    0.8903742721114464E+00    0.2504942076728992E+01    0.2056562668050395E+01
    0.2183042025106090E+01    0.2504942076728992E+01    0.3960694642612455E+01
    0.3855845009130144E+01    0.2504942076728992E+01    0.2933250881705245E+01
    0.3152611453431022E+01    0.2504942076728992E+01    0.3637668634452495E+01
    0.3103307426069629E+01    0.2504942076728992E+01    0.4332607938454372E+01
    0.3266711307513309E+01    0.2504942076728992E+01    0.1889657179902316E+01
    0.4232537751899896E+01    0.2504942076728992E+01    0.1918627312011273E+01
    0.1905522748341233E+01    0.2504942076728992E+01    0.7226299945004641E+00
    0.2879768099364311E+01    0.2504942076728992E+01    0.9080953672824156E+00
    0.2012711620229818E+01    0.2504942076728992E+01    0.1767083060146361E+01
    0.2669681613978136E+01    0.2504942076728992E+01    0.2853394753424857E+01
    0.5000000000000000E+01    0.1250000000000000E+01    0.5000000000000000E+01
    0.5000000000000000E+01    0.0000000000000000E+00    0.5000000000000000E+01
    0.5000000000000000E+01   -0.1250000000000000E+01    0.5000000000000000E+01
    0.5000000000000000E+01   -0.2496588976783356E+01    0.5000000000000000E+01
    0.5000000000000000E+01   -0.2496588976783356E+01    0.3750000000000000E+01
    0.5000000000000000E+01   -0.2496588976783356E+01    0.2500000000000000E+01
    0.5000000000000000E+01   -0.2496588976783356E+01    0.1250000000000000E+01
    0.5000000000000000E+01    0.1578994732800803E+01    0.9058375365086910E+00
    0.5000000000000000E+01   -0.1583989954232354E+01    0.3982050490726493E+01
    0.5000000000000000E+01    0.1453322699199022E+01    0.4033849428301197E+01
    0.5000000000000000E+01   -0.1479596339503735E+01    0.1040505887381675E+01
    0.5000000000000000E+01   -0.3227322616384110E+00    0.1099454400140349E+01
    0.5000000000000000E+01    0.6593508822075582E+00    0.7354504170366591E+00
    0.5000000000000000E+01    0.8256214013940779E+00    0.1622302608453282E+01
    0.5000000000000000E+01   -0.1650070333782557E+01    0.2145871574390382E+01
    0.5000000000000000E+01   -0.4612828702537229E+00    0.4086422318222992E+01
    0.5000000000000000E+01   -0.8579242121530853E+00    0.2979540174134984E+01
    0.5000000000000000E+01   -0.1836846154397680E+01    0.3045064261640043E+01
    0.5000000000000000E+01    0.3508002863614053E+00    0.3428197553792836E+01
    0.5000000000000000E+01    0.5185680230613409E+00    0.4309693860063405E+01
    0.5000000000000000E+01    0.1738996113203182E+01    0.1827272193562204E+01
    0.5000000000000000E+01    0.1325493893339706E+01    0.2808563282768077E+01
    0.5000000000000000E+01   -0.8731419609589618E+00    0.1895995683864404E+01
    0.5000000000000000E+01    0.4906150219227333E-01    0.2273179336307740E+01
    0.0000000000000000E+00    0.1250000000000000E+01    0.5000000000000000E+01
    0.0000000000000000E+00    0.0000000000000000E+00    0.5000000000000000E+01
    0.0000000000000000E+00   -0.1250000000000000E+01    0.5000000000000000E+01
    0.0000000000000000E+00   -0.2496588976783356E+01    0.5000000000000000E+01
    0.1250000000000000E+01   -0.2496588976783356E+01    0.5000000000000000E+01
    0.2500000000000000E+01   -0.2496588976783356E+01    0.5000000000000000E+01
    0.3750000000000000E+01   -0.2496588976783356E+01    0.5000000000000000E+01
    0.4042003247744892E+01    0.1558308132739014E+01    0.5000000000000000E+01
    0.9304122287900499E+00   -0.1548001304379777E+01    0.5000000000000000E+01
    0.1037243024609388E+01    0.1462892710085612E+01    0.5000000000000000E+01
    0.3946240828834967E+01   -0.1445243809615570E+01    0.5000000000000000E+01
    0.4092527262848217E+01   -0.3455338993778935E+00    0.5000000000000000E+01
    0.4293103109154542E+01    0.6277660831404320E+00    0.5000000000000000E+01
    0.3241512314643519E+01    0.7429886854239611E+00    0.5000000000000000E+01
    0.2844289952419609E+01   -0.1588117879734118E+01    0.5000000000000000E+01
    0.7159905765450471E+00   -0.6002320124191652E+00    0.5000000000000000E+01
    0.1754341919796891E+01   -0.7398147869923652E+00    0.5000000000000000E+01
    0.1870296826774691E+01   -0.1788622905643739E+01    0.5000000000000000E+01
    0.9220614901912976E+00    0.3083720183248586E+00    0.5000000000000000E+01
    0.3101523624086016E+01    0.1777901774806180E+01    0.5000000000000000E+01
    0.2192512063922564E+01    0.1576861561598471E+01    0.5000000000000000E+01
    0.2024793420196460E+01    0.4773861992750707E+00    0.5000000000000000E+01
    0.2990627757741975E+01   -0.4878110785814084E+00    0.5000000000000000E+01
    0.0000000000000000E+00   -0.2496588976783356E+01    0.1250000000000000E+01
    0.0000000000000000E+00   -0.2496588976783356E+01    0.2500000000000000E+01
    0.0000000000000000E+00   -0.2496588976783356E+01    0.3750000000000000E+01
    0.0000000000000000E+00    0.1558308132739014E+01    0.4042003247744892E+01
    0.0000000000000000E+00   -0.1548001304379777E+01    0.9304122287900499E+00
    0.0000000000000000E+00    0.1462892710085612E+01    0.1037243024609388E+01
    0.0000000000000000E+00   -0.1445243809615570E+01    0.3946240828834967E+01
    0.0000000000000000E+00   -0.3455338993778935E+00    0.4092527262848217E+01
    0.0000000000000000E+00    0.6277660831404320E+00    0.4293103109154542E+01
    0.0000000000000000E+00    0.7429886854239611E+00    0.3241512314643519E+01
    0.0000000000000000E+00   -0.1588117879734118E+01    0.2844289952419609E+01
    0.0000000000000000E+00   -0.6002320124191652E+00    0.7159905765450471E+00
    0.0000000000000000E+00   -0.7398147869923652E+00    0.1754341919796891E+01
    0.0000000000000000E+00   -0.1788622905643739E+01    0.1870296826774691E+01
    0.0000000000000000E+00    0.3083720183248586E+00    0.9220614901912976E+00
    0.0000000000000000E+00    0.1777901774806180E+01    0.3101523624086016E+01
    0.0000000000000000E+00    0.1576861561598471E+01    0.2192512063922564E+01
[...]
POINT_DATA 213
SCALARS rho double 1
LOOKUP_TABLE default
   0.1219599713091543E+01
   0.9221792799100725E+00
   0.9104477572387614E+00
   0.8966766635776681E+00
   0.7819487211723603E+00
   0.7116569447279448E+00
   0.6990712185671099E+00
   0.7029549107385485E+00
   0.7687357511661922E+00
   0.8895233827487391E+00
   0.8987464837188236E+00
   0.9249601346766423E+00
   0.1300246685338833E+01
   0.1348040465256344E+01
   0.1456336942598403E+01
   0.1286719622554565E+01
   0.9619641429624082E+00
   0.9047655521089973E+00
   0.8972299475789540E+00
   0.9249192672384144E+00
   0.9126331807278916E+00
   0.9866005936893237E+00
   0.8974309485564288E+00
   0.8999717615793238E+00
   0.9067476707315296E+00
   0.9112479028991368E+00
   0.8943867753136399E+00
   0.9125850809394315E+00
   0.8902528870156029E+00
   0.9018653515420146E+00
   0.9063597698452261E+00
   0.8623950814385871E+00
   0.9078065479080730E+00
   0.9506824007781737E+00
   0.1008490937265013E+01
   0.1006976774701579E+01
   0.1000145877961372E+01
   0.1000492861530436E+01
   0.1001010370364027E+01
   0.1002467259621111E+01
   0.1001944760715153E+01
   0.1004886092298701E+01
   0.1016625221635051E+01
   0.1058313558451566E+01
   0.1005436780211131E+01
   0.1000007386985565E+01
   0.9457703222680985E+00
   0.1002042267337179E+01
   0.9982829450497684E+00
   0.1004492517649687E+01
   0.1005371618186273E+01
   0.9993111934530138E+00
   0.9978002466641301E+00
   0.9988040108139212E+00
   0.9987211911983143E+00
   0.9780928627331349E+00
   0.9796706209611641E+00
   0.9639504977638345E+00
   0.9601302092989243E+00
   0.9867991634089119E+00
   0.9922400512460587E+00
   0.1000342900513934E+01
   0.1000541349400309E+01
   0.1000671032654999E+01
   0.9998283382618948E+00
   0.1009782326409897E+01
   0.1007174209670678E+01
   0.9448363641729557E+00
   0.9034577273874901E+00
   0.1007039899592692E+01
   0.1004193146736730E+01
   0.8965165779811738E+00
   0.8926680845258654E+00
   0.8470449607977883E+00
   0.9708428763940430E+00
   0.1000202417937536E+01
   0.1006091589551886E+01
   0.1015639765386210E+01
   0.1012987269571153E+01
   0.1012861712447292E+01
   0.1005118624059149E+01
   0.9863622256474207E+00
   0.1006593467117390E+01
   0.9849764704366430E+00
   0.1008140574325873E+01
   0.1001902603548178E+01
   0.1000777963991676E+01
   0.1001300674715955E+01
   0.1001842929682602E+01
   0.1002348924787806E+01
   0.1000286885245152E+01
   0.1000192880165591E+01
   0.9997755186586960E+00
   0.1001746396692916E+01
   0.1001907940056436E+01
   0.9986523493980562E+00
   0.9995364039290573E+00
   0.9999231249935525E+00
   0.1000198743591599E+01
   0.1000442940444053E+01
   0.1001058840264769E+01
   0.1001457792291201E+01
   0.1001331335489949E+01
   0.1001525817308863E+01
   0.1000861185007547E+01
   0.1001344297903500E+01
   0.1001108530422073E+01
   0.1000543842756044E+01
   0.1060180616652357E+01
   0.1020434842864320E+01
   0.1005937361991153E+01
   0.1003463829157361E+01
   0.1142067352044382E+01
   0.1083370527032881E+01
   0.1004378512742278E+01
   0.1003909099899814E+01
   0.1003789600761116E+01
   0.1006675424965531E+01
   0.1012240622301400E+01
   0.1193114677935549E+01
   0.1028000769802679E+01
   0.1034785364839712E+01
   0.1169417031817693E+01
   0.1009874382220604E+01
   0.1023546145480949E+01
   0.1017121946395609E+01
   0.1007875005451363E+01
   0.1013904357779981E+01
   0.1000120449246920E+01
   0.9442368305384901E+00
   0.1003512209906437E+01
   0.9988676254650586E+00
   0.1006433369884430E+01
   0.1009136813831585E+01
   0.9979418421565263E+00
   0.9977846791511339E+00
   0.9961676199786912E+00
   0.9984778145761163E+00
   0.9810175547780849E+00
   0.9780877694428285E+00
   0.9479693433223580E+00
   0.9505424592360655E+00
   0.9877990119018504E+00
   0.9899199186516457E+00
   0.9925444371238820E+00
   0.9998150145506148E+00
   0.9986044223548713E+00
   0.9946495961053428E+00
   0.1006783288377711E+01
   0.1021195773526165E+01
   0.9979991562679107E+00
   0.1004785932347869E+01
   0.1001443249748729E+01
   0.1004870011025378E+01
   0.9952898792116567E+00
   0.9853956880192255E+00
   0.1000226009162932E+01
   0.9938930121075207E+00
   0.9819631329424449E+00
   0.9943515138535275E+00
   0.9968775146821266E+00
   0.9937161208426298E+00
   0.9987031078836711E+00
   0.1000033244354176E+01
   0.9996686218829539E+00
   0.9958480462280638E+00
   0.9933618069635402E+00
   0.1001379812703093E+01
   0.1018342561263819E+01
   0.1002761162799409E+01
   0.9806466765012811E+00
   0.1001874254391426E+01
   0.1008205811307127E+01
   0.9702346470150556E+00
   0.9431324177404555E+00
   0.9846786450236678E+00
   0.9843645641767490E+00
   0.9754696908719417E+00
   0.9908380456525180E+00
   0.9779133594105712E+00
   0.1033958391197854E+01
   0.1021656807581965E+01
   0.1000033017114237E+01
   0.9991734203054462E+00
   0.9919055380616527E+00
   0.9907248557671370E+00
   0.9574014654471436E+00
   0.9930506845505160E+00
   0.1006289132088949E+01
   0.1002044043322751E+01
   0.9896477915243344E+00
   0.9652799487844189E+00
   0.9203406821949427E+00
   0.9724368459328512E+00
   0.9781837107711792E+00
   0.9559726873506939E+00
   0.9617646073376971E+00
   0.9490310009075813E+00
   0.9366912449825755E+00
   0.9303105042269715E+00
   0.9992919106655296E+00
   0.9994619476592133E+00
   0.9988025130641364E+00
   0.1002017076416251E+01
   0.9391477657705909E+00
   0.9239055074833301E+00
   0.9359217995423048E+00
   0.9984138034163346E+00
   0.9983444622195330E+00
   0.1000450514167047E+01
   0.9793848594552940E+00
   0.9713545729725369E+00
   0.9447096858256760E+00
SCALARS u double 1
LOOKUP_TABLE default
   0.0000000000000000E+00
   0.0000000000000000E+00
   0.0000000000000000E+00
   0.0000000000000000E+00
   0.0000000000000000E+00
   0.0000000000000000E+00
   0.0000000000000000E+00
   0.0000000000000000E+00
   0.0000000000000000E+00
   0.0000000000000000E+00
   0.0000000000000000E+00
   0.0000000000000000E+00
   0.0000000000000000E+00
   0.0000000000000000E+00
   0.0000000000000000E+00
   0.0000000000000000E+00
   0.0000000000000000E+00
   0.0000000000000000E+00
   0.0000000000000000E+00
   0.0000000000000000E+00
   0.0000000000000000E+00
   0.0000000000000000E+00
   0.0000000000000000E+00
   0.0000000000000000E+00
   0.0000000000000000E+00
   0.0000000000000000E+00
   0.0000000000000000E+00
   0.0000000000000000E+00
   0.0000000000000000E+00
   0.0000000000000000E+00
   0.0000000000000000E+00
   0.0000000000000000E+00
   0.0000000000000000E+00
   0.5044654408349597E+00
   0.5290125180669208E+00
   0.5144832487977159E+00
   0.4932265903414667E+00
   0.4881036322876873E+00
   0.4912133252958091E+00
   0.4932012472740840E+00
   0.4982359547263545E+00
   0.4935755544428102E+00
   0.4788817947280937E+00
   0.4518340691914036E+00
   0.4750762166195852E+00
   0.5097784646298830E+00
   0.4511935556900388E+00
   0.4980813321605030E+00
   0.5232695117401402E+00
   0.4995198883115310E+00
   0.5239976484725376E+00
   0.5062462144095161E+00
   0.5621719913435667E+00
   0.5246973167937629E+00
   0.5014415649935795E+00
   0.5724415304973181E+00
   0.5707004551848514E+00
   0.3697808222303753E+00
   0.4030359404380493E+00
   0.5559039109167888E+00
   0.5550071691217950E+00
   0.4941867157043879E+00
   0.4946225381384302E+00
   0.4922550761040466E+00
   0.4916952871909167E+00
   0.5126203957791876E+00
   0.5320037703329998E+00
   0.5051851448188178E+00
   0.4700273280079031E+00
   0.5096958541368409E+00
   0.5089633520895315E+00
   0.4955096533858289E+00
   0.5091188880473733E+00
   0.4859971181905904E+00
   0.5290197343307098E+00
   0.5276939230695108E+00
   0.5095384337027755E+00
   0.5265023642757994E+00
   0.5255836892238804E+00
   0.5249264297676320E+00
   0.5039105662418889E+00
   0.5284460286423808E+00
   0.5353831110407031E+00
   0.5371546761457251E+00
   0.5324039284285332E+00
   0.4987533255484309E+00
   0.4995693411575048E+00
   0.4985678142907817E+00
   0.4978564111079098E+00
   0.4945363655127015E+00
   0.4946353894787031E+00
   0.4894931301297667E+00
   0.4881854990094320E+00
   0.4965709373559215E+00
   0.4946579614458322E+00
   0.4860621725374363E+00
   0.4896815202463148E+00
   0.4900400754025941E+00
   0.4911767067357176E+00
   0.4926165798568309E+00
   0.4981835089397323E+00
   0.4946289430609863E+00
   0.4948394724150371E+00
   0.4976378113996631E+00
   0.4907933951165598E+00
   0.4936012346968149E+00
   0.4927628600469287E+00
   0.4920514116224965E+00
   0.4513309211750132E+00
   0.4773809746862203E+00
   0.4929577647344011E+00
   0.4922016412945289E+00
   0.4645165219863108E+00
   0.4729120388422337E+00
   0.4915211065373207E+00
   0.4906742049985319E+00
   0.4940153692620888E+00
   0.4854930018018526E+00
   0.4731445708932670E+00
   0.4017686072307459E+00
   0.4925810821068543E+00
   0.4586089524057068E+00
   0.4595049803382712E+00
   0.4895104497069393E+00
   0.4701583376623411E+00
   0.4742235015693597E+00
   0.4816343366828313E+00
   0.4809631617044476E+00
   0.5081956849284726E+00
   0.4436620394683323E+00
   0.4960917009383689E+00
   0.5314783306402607E+00
   0.4949806921799262E+00
   0.5219301765475066E+00
   0.5081294085338861E+00
   0.5664001405901007E+00
   0.5269142499945508E+00
   0.5035387444641685E+00
   0.5834534641496518E+00
   0.5720240038443274E+00
   0.3408858602440455E+00
   0.3851957705022366E+00
   0.5717594587966961E+00
   0.5645095503382358E+00
   0.5689243492539474E+00
   0.5291696298085756E+00
   0.5449155559179492E+00
   0.5701879766309388E+00
   0.5404097161730310E+00
   0.5487779059145077E+00
   0.5790107866785574E+00
   0.4955235711026981E+00
   0.5064965449353901E+00
   0.4994484975504657E+00
   0.5533092529252861E+00
   0.4597902270173637E+00
   0.4983751418500507E+00
   0.5489762734240434E+00
   0.5894376534703800E+00
   0.5821700562687653E+00
   0.5457059816972568E+00
   0.5785146352670872E+00
   0.5122043852763556E+00
   0.5055088168962951E+00
   0.5048981017217510E+00
   0.5645297401730953E+00
   0.5552265453078052E+00
   0.4977583796212193E+00
   0.5488208989740367E+00
   0.5486892160120245E+00
   0.5643387257052687E+00
   0.4955121673163999E+00
   0.4958798436017949E+00
   0.3908414430743945E+00
   0.3725909805002632E+00
   0.5584900280003503E+00
   0.5739392592708675E+00
   0.4177438680621044E+00
   0.5813083121449354E+00
   0.4186000223061386E+00
   0.5391903671912129E+00
   0.4993239642702793E+00
   0.5113859055471023E+00
   0.5070195049783198E+00
   0.5732639572309099E+00
   0.5857708697290024E+00
   0.5448205463221065E+00
   0.5657062613166470E+00
   0.5320308715382106E+00
   0.5310303590556906E+00
   0.5561915445703550E+00
   0.5552162237512360E+00
   0.4401002193309940E+00
   0.5282987900687456E+00
   0.5807279514858256E+00
   0.3397137642263669E+00
   0.4812260888144415E+00
   0.5510167694717290E+00
   0.4924432162905071E+00
   0.3108743821987905E+00
   0.5051822137673039E+00
   0.5043571578918153E+00
   0.5129609029631153E+00
   0.5385848847188165E+00
   0.3519686046135653E+00
   0.3560462392996506E+00
   0.3308149880667269E+00
   0.5084554916821409E+00
   0.5125571842447388E+00
   0.5314307608686141E+00
   0.5857978383112415E+00
   0.4640824863249605E+00
   0.3627235462949153E+00
SCALARS v double 1
LOOKUP_TABLE default
   0.0000000000000000E+00
   0.0000000000000000E+00
   0.0000000000000000E+00
   0.0000000000000000E+00
   0.0000000000000000E+00
   0.0000000000000000E+00
   0.0000000000000000E+00
   0.0000000000000000E+00
   0.0000000000000000E+00
   0.0000000000000000E+00
   0.0000000000000000E+00
   0.0000000000000000E+00
   0.0000000000000000E+00
   0.0000000000000000E+00
   0.0000000000000000E+00
   0.0000000000000000E+00
   0.0000000000000000E+00
   0.0000000000000000E+00
   0.0000000000000000E+00
   0.0000000000000000E+00
   0.0000000000000000E+00
   0.0000000000000000E+00
   0.0000000000000000E+00
   0.0000000000000000E+00
   0.0000000000000000E+00
   0.0000000000000000E+00
   0.0000000000000000E+00
   0.0000000000000000E+00
   0.0000000000000000E+00
   0.0000000000000000E+00
   0.0000000000000000E+00
   0.0000000000000000E+00
   0.0000000000000000E+00
   0.0000000000000000E+00
   0.0000000000000000E+00
   0.0000000000000000E+00
   0.0000000000000000E+00
   0.0000000000000000E+00
   0.0000000000000000E+00
   0.0000000000000000E+00
   0.0000000000000000E+00
   0.0000000000000000E+00
   0.0000000000000000E+00
   0.0000000000000000E+00
   0.0000000000000000E+00
   0.0000000000000000E+00
   0.0000000000000000E+00
   0.0000000000000000E+00
   0.0000000000000000E+00
   0.0000000000000000E+00
   0.0000000000000000E+00
   0.0000000000000000E+00
   0.0000000000000000E+00
   0.0000000000000000E+00
   0.0000000000000000E+00
   0.0000000000000000E+00
   0.0000000000000000E+00
   0.0000000000000000E+00
   0.0000000000000000E+00
   0.0000000000000000E+00
   0.0000000000000000E+00
   0.6334645480656140E-03
  -0.1412023336229288E-02
  -0.1391627427145359E-02
   0.0000000000000000E+00
   0.0000000000000000E+00
   0.0000000000000000E+00
   0.0000000000000000E+00
  -0.1867979530034837E-01
   0.2777767580901791E-03
   0.2206630275592628E-02
   0.1490283298544729E-01
  -0.5368509439064853E-02
  -0.6641958407202665E-02
  -0.1142206788295950E-01
   0.4788841407515444E-02
   0.5372166733286195E-03
   0.3195635653881066E-02
   0.1530303789531556E-02
   0.3473835098326147E-02
   0.1704943452603528E-02
  -0.6356099897425682E-02
   0.7681936133660659E-03
   0.4869169338076772E-02
   0.6122153269064700E-03
   0.6958777351630008E-04
  -0.1767224010118040E-03
   0.6082867011540205E-03
   0.0000000000000000E+00
   0.0000000000000000E+00
   0.0000000000000000E+00
   0.0000000000000000E+00
   0.1212794123966461E-03
   0.1423644780957901E-02
  -0.1108792463875809E-02
  -0.9188552502457104E-03
  -0.2101442240139420E-02
  -0.1220442314575232E-02
  -0.8985895723965571E-03
  -0.6448250574931063E-03
  -0.2472778136116610E-04
  -0.5341826069009978E-03
   0.7240145223024919E-03
  -0.1570797785253493E-02
   0.1025901895203191E-03
  -0.1214557173124735E-03
  -0.8743109693936762E-03
  -0.8884843929658236E-03
   0.0000000000000000E+00
   0.0000000000000000E+00
   0.0000000000000000E+00
  -0.1091315550274702E-02
  -0.8502785618188293E-02
   0.1568983831052098E-01
   0.2148716647319195E-03
  -0.1053397236702643E-02
  -0.1673620312010305E-02
  -0.5281080656962635E-02
  -0.1235966162752445E-02
  -0.3701170625509335E-02
  -0.3032633082561554E-02
   0.2127160757183482E-02
   0.2880597755633567E-01
  -0.1724489613425922E-03
  -0.4260469523889432E-02
   0.2498503372257159E-02
   0.9550986627020783E-03
   0.0000000000000000E+00
   0.0000000000000000E+00
   0.0000000000000000E+00
   0.0000000000000000E+00
   0.0000000000000000E+00
   0.0000000000000000E+00
   0.0000000000000000E+00
   0.0000000000000000E+00
   0.0000000000000000E+00
   0.0000000000000000E+00
   0.0000000000000000E+00
   0.0000000000000000E+00
   0.0000000000000000E+00
   0.0000000000000000E+00
   0.0000000000000000E+00
   0.0000000000000000E+00
   0.0000000000000000E+00
   0.4670193585331237E-02
   0.2763280335985015E-02
   0.6893733732382189E-02
   0.5630436875795968E-02
   0.8687043755267288E-02
   0.1244112708481960E-01
   0.4866761488138132E-03
   0.4364176451801915E-02
   0.2406597648562656E-02
   0.2332205064034353E-02
   0.3176365714699137E-02
  -0.1059582433099554E-01
  -0.4893791486510664E-03
   0.6038344562439641E-02
   0.2600394341189077E-02
   0.2269787528101478E-02
   0.3837925311482558E-02
  -0.2020246059613481E-02
   0.9170013535102842E-03
   0.2371048023204052E-02
   0.1154934985436065E-02
   0.2686138824103228E-02
   0.1739852848483417E-02
   0.1798796515073113E-02
   0.8007127047389236E-02
  -0.3375969014758087E-02
   0.5470404468116447E-02
   0.6506703853526843E-04
  -0.3120713474067917E-04
  -0.1328425115208825E-01
  -0.3290595263965587E-02
  -0.3547667365375646E-02
   0.3675144359414061E-02
  -0.3988156273084042E-02
   0.8943780832021107E-03
  -0.2587598034341105E-01
  -0.3070936371885875E-02
   0.4167740625647689E-02
   0.7177338577990084E-03
   0.1825211645440334E-02
   0.4437749306469264E-02
   0.2300333597450285E-02
   0.3389548407419411E-02
   0.5068272730626864E-02
   0.1856653637249521E-02
   0.5820202458458683E-03
  -0.3347069655323711E-03
  -0.4621579467710333E-02
  -0.5498354668251748E-02
   0.4519183958950701E-03
   0.9429367905959960E-03
  -0.7332937090297950E-03
  -0.3869845820739144E-02
  -0.1215937112970619E-02
  -0.3656389750264221E-02
  -0.6898463762655417E-02
  -0.1708647880413495E-02
   0.5357586240575323E-03
  -0.3546434740744737E-03
   0.1111777265207021E-02
  -0.1832549688722078E-02
   0.6956205232931644E-02
  -0.9774589638151457E-02
  -0.1545434572589849E-04
  -0.4080206466263249E-03
   0.2409198595321153E-02
   0.1123360828542037E-02
   0.1298598449138364E-02
  -0.3828978005034306E-02
SCALARS w double 1
LOOKUP_TABLE default
   0.0000000000000000E+00
   0.0000000000000000E+00
   0.0000000000000000E+00
   0.0000000000000000E+00
   0.0000000000000000E+00
   0.0000000000000000E+00
   0.0000000000000000E+00
   0.0000000000000000E+00
   0.0000000000000000E+00
   0.0000000000000000E+00
   0.0000000000000000E+00
   0.0000000000000000E+00
   0.0000000000000000E+00
   0.0000000000000000E+00
   0.0000000000000000E+00
   0.0000000000000000E+00
   0.0000000000000000E+00
   0.0000000000000000E+00
   0.0000000000000000E+00
   0.0000000000000000E+00
   0.0000000000000000E+00
   0.0000000000000000E+00
   0.0000000000000000E+00
   0.0000000000000000E+00
   0.0000000000000000E+00
   0.0000000000000000E+00
   0.0000000000000000E+00
   0.0000000000000000E+00
   0.0000000000000000E+00
   0.0000000000000000E+00
   0.0000000000000000E+00
   0.0000000000000000E+00
   0.0000000000000000E+00
  -0.1144740496735645E+00
  -0.5028450828112806E-01
  -0.2218626494845346E-02
   0.5066076468325841E-02
  -0.6958309344735864E-03
  -0.6076358824716342E-03
   0.5805771634361091E-03
   0.1144804508154633E-02
   0.2440754619026300E-03
   0.3422554112634606E-02
   0.3884463601894735E-01
   0.5360740268335551E-01
  -0.1493566896335796E-02
  -0.2790739522505421E-01
   0.2079825985297079E-02
   0.1059655463000411E-01
   0.8042753136566223E-02
   0.4393891385285986E-01
  -0.4043480092369987E-03
  -0.1058030208653564E-01
  -0.3671485691520709E-02
  -0.2102249212364965E-02
   0.4820001021506346E-03
  -0.4609512864715840E-01
   0.1623620296049418E-01
   0.1240678356871561E-01
   0.2994630149991633E-01
   0.5073351904760330E-02
   0.4321198684516470E-02
   0.4383255654949328E-02
   0.4018299919514598E-02
   0.5466057052532856E-02
  -0.1704506964572636E-03
  -0.4834020748803111E-01
  -0.1122167609873931E+00
  -0.1279823846356558E+00
   0.2784465150492300E-02
   0.1930975359123556E-02
  -0.1150880016550128E+00
  -0.1133078759826983E+00
  -0.1132666623419028E+00
  -0.1072901987482435E+00
  -0.7748702681830810E-01
   0.3027783969173295E-02
  -0.2451872704573247E-01
  -0.2041359630525256E-01
  -0.9927786546016145E-02
   0.5241383229489870E-02
  -0.9129642224758326E-01
  -0.3406072394700084E-01
  -0.9180576269605403E-01
  -0.6776875030198114E-01
   0.1807789003445784E-02
   0.1559381710492750E-02
   0.1426790355701564E-02
   0.2118633835452629E-02
   0.1358287958328398E-02
  -0.1241613084306048E-02
  -0.1475190367160398E-02
   0.1114759246317148E-02
   0.2218151048984724E-02
   0.1202561918001162E-02
  -0.7062816345832563E-04
   0.1918632549730059E-03
   0.8214440501155602E-03
  -0.1576168939796522E-02
  -0.1943035305672876E-02
   0.1965356622856546E-02
  -0.4390466932300181E-04
  -0.4390485622475615E-03
   0.2228743719958119E-02
  -0.1071769568365889E-02
  -0.2024399474279445E-03
  -0.4923176891398070E-03
  -0.1804033939259555E-02
   0.6879534479608443E-01
   0.2330703460015566E-02
  -0.1105209837763465E-02
  -0.7920381487839469E-03
   0.1156184546337455E+00
   0.1039170656311653E+00
  -0.1771013093094336E-02
  -0.4421119435778774E-02
  -0.7493456808850549E-03
  -0.7086036075940263E-02
  -0.2645568687256176E-02
   0.1269923181720709E+00
   0.6360345706528148E-01
   0.2237140306051028E-01
   0.1353417681720944E+00