title="tecplot geometry and solution file"
variables = x y z rho u v w p mach temperature
zone t="boundary 1 bc-1", solutiontime= 0.6000000E+02, strandid=1001, i=32, j=46, f=feblock
 -0.547454789457E-02  0.000000000000E+00 -0.567596495155E-02  0.000000000000E+00  0.000000000000E+00  0.000000000000E+00 -0.525081104812E-02
 -0.425695585107E-02  0.000000000000E+00  0.000000000000E+00  0.000000000000E+00  0.000000000000E+00  0.000000000000E+00  0.000000000000E+00
  0.000000000000E+00  0.000000000000E+00 -0.338306800861E-02  0.000000000000E+00  0.000000000000E+00  0.000000000000E+00  0.000000000000E+00
  0.000000000000E+00  0.000000000000E+00  0.000000000000E+00  0.000000000000E+00  0.000000000000E+00  0.000000000000E+00  0.000000000000E+00
  0.000000000000E+00  0.000000000000E+00  0.000000000000E+00  0.000000000000E+00
  0.250494205109E+01  0.250494205109E+01  0.127822176491E+01  0.146289271009E+01  0.157686156160E+01  0.308372018325E+00  0.261953807315E-01
 -0.122573392194E+01 -0.600232012419E+00  0.250494205109E+01  0.477386199275E+00  0.742988685424E+00 -0.739814786992E+00  0.177790177481E+01
  0.155830813274E+01  0.250494205109E+01 -0.249658898644E+01 -0.154800130438E+01 -0.487811078581E+00  0.250494205109E+01  0.627766083140E+00
 -0.345533899378E+00 -0.178862290564E+01 -0.158811787973E+01  0.125000000000E+01 -0.249658898644E+01 -0.144524380962E+01  0.000000000000E+00
 -0.125000000000E+01 -0.249658898644E+01 -0.249658898644E+01 -0.249658898644E+01
  0.811177949225E-04  0.125000000000E+01  0.829429528721E-04  0.103724302461E+01  0.219251206392E+01  0.922061490191E+00  0.104283509303E-03
  0.346902148094E-04  0.715990576545E+00  0.250000000000E+01  0.202479342020E+01  0.324151231464E+01  0.175434191980E+01  0.310152362409E+01
  0.404200324774E+01  0.375000000000E+01  0.815052046199E-04  0.930412228790E+00  0.299062775774E+01  0.500000000000E+01  0.429310310915E+01
  0.409252726285E+01  0.187029682677E+01  0.284428995242E+01  0.500000000000E+01  0.125000000000E+01  0.394624082883E+01  0.500000000000E+01
  0.500000000000E+01  0.250000000000E+01  0.375000000000E+01  0.500000000000E+01
  0.134610784377E+01  0.106375546419E+01  0.142661132888E+01  0.108602670089E+01  0.103229749341E+01  0.120170179694E+01  0.164672942986E+01
  0.149542048071E+01  0.123512313744E+01  0.102386943410E+01  0.102822217246E+01  0.101305387478E+01  0.103253555394E+01  0.101467213370E+01
  0.100662698310E+01  0.100826832563E+01  0.144847522033E+01  0.116396752862E+01  0.101464051831E+01  0.100424995926E+01  0.100679645268E+01
  0.100725182247E+01  0.104656548645E+01  0.101934079412E+01  0.100423991984E+01  0.106448523837E+01  0.100790708434E+01  0.100288596729E+01
  0.100335006119E+01  0.102844206159E+01  0.100960587065E+01  0.100399794252E+01
  0.000000000000E+00  0.444887292117E+00  0.000000000000E+00  0.468180340738E+00  0.462186792797E+00  0.443238651274E+00  0.000000000000E+00
  0.000000000000E+00  0.379439085670E+00  0.471807267413E+00  0.466360650526E+00  0.479394561915E+00  0.490363710466E+00  0.484571645962E+00
  0.488597469318E+00  0.489900744763E+00  0.000000000000E+00  0.451029502215E+00  0.474778703085E+00  0.495800903757E+00  0.490926844335E+00
  0.486826279079E+00  0.448796906961E+00  0.465790673216E+00  0.496535899966E+00  0.444910714476E+00  0.487666694061E+00  0.497536487403E+00
  0.496381521702E+00  0.470013287199E+00  0.489177494442E+00  0.495515502825E+00
  0.000000000000E+00  0.000000000000E+00  0.000000000000E+00  0.182111941236E-01 -0.276668093602E-02  0.330008797591E-01  0.000000000000E+00
  0.000000000000E+00 -0.635883276219E-02  0.000000000000E+00  0.362940826291E-02 -0.561333568487E-02 -0.432752686106E-02  0.439690335898E-04
 -0.103547477990E-02  0.000000000000E+00  0.000000000000E+00 -0.779177415047E-02  0.391748779358E-03  0.000000000000E+00 -0.202831517157E-02
 -0.137699788685E-02  0.151652719382E-02 -0.162047709680E-02 -0.665396556585E-04  0.000000000000E+00 -0.290734442850E-04 -0.202432858206E-03
  0.805362280234E-03  0.000000000000E+00  0.000000000000E+00  0.000000000000E+00
  0.000000000000E+00  0.453283647331E-01  0.000000000000E+00  0.123658675628E+00  0.245692576484E-01  0.166125850509E+00  0.000000000000E+00
  0.000000000000E+00  0.155960029776E+00  0.352703257923E-02  0.259078535052E-01 -0.647805410756E-02  0.752821057989E-01  0.371570011318E-02
 -0.127529830628E-03  0.471453908891E-03  0.000000000000E+00  0.141096946826E+00 -0.806996385445E-02  0.236433387488E-02 -0.280389005589E-03
 -0.438302884250E-02  0.256769936026E-01 -0.189363940048E-02  0.307401331637E-02  0.838612198246E-01 -0.122860329001E-02  0.268490866434E-02
  0.264424737798E-02  0.283393492418E-02 -0.846588953941E-03  0.345684916615E-02
  0.961496278544E+00  0.782491126590E+00  0.101899868003E+01  0.808635925921E+00  0.746113327223E+00  0.879959801411E+00  0.117622521800E+01
  0.106814912534E+01  0.916484241694E+00  0.737375265473E+00  0.743650970035E+00  0.725792787071E+00  0.757479357726E+00  0.729144499799E+00
  0.720777566931E+00  0.722747146819E+00  0.103461763162E+01  0.858092915825E+00  0.728072572785E+00  0.718602762081E+00  0.721012354278E+00
  0.721154298432E+00  0.759934146176E+00  0.732618494265E+00  0.718521953940E+00  0.790948763159E+00  0.722118115067E+00  0.717197477952E+00
  0.717641995128E+00  0.741773499645E+00  0.724071786218E+00  0.718406368851E+00
  0.000000000000E+00  0.440666223983E+00  0.000000000000E+00  0.474617242166E+00  0.460123134786E+00  0.468636756705E+00  0.000000000000E+00
  0.000000000000E+00  0.402549853147E+00  0.469884099824E+00  0.464193463327E+00  0.478749622800E+00  0.489549443329E+00  0.483128674667E+00
  0.488002265951E+00  0.489034110002E+00  0.000000000000E+00  0.465240598618E+00  0.473760503435E+00  0.495364299993E+00  0.490293375373E+00
  0.486277602227E+00  0.445854511222E+00  0.464358875697E+00  0.496127935866E+00  0.443900379809E+00  0.486930059960E+00  0.497248724487E+00
  0.496055923646E+00  0.467744048262E+00  0.488189261017E+00  0.495091102020E+00
  0.999990302555E+00  0.102983027031E+01  0.999990763541E+00  0.104241479088E+01  0.101187754962E+01  0.102516591480E+01  0.999991422600E+00
  0.999992172611E+00  0.103882592713E+01  0.100825880457E+01  0.101253540911E+01  0.100301664817E+01  0.102705528809E+01  0.100604152397E+01
  0.100244540494E+01  0.100354834108E+01  0.999992726105E+00  0.103209930914E+01  0.100459382757E+01  0.100178631588E+01  0.100260315112E+01
  0.100234717405E+01  0.101657069569E+01  0.100620508654E+01  0.100168367702E+01  0.104024765070E+01  0.100303428442E+01  0.100118707598E+01
  0.100134422874E+01  0.100976315369E+01  0.100405567180E+01  0.100176392181E+01
        12        19        11        11
        11         5        12        12
        10        14         5         5
        19        13        11        11
        19        24        13        13
        30        23        24        24
        19        12        22        22
        28        22        21        21
        11        13         6         6
         7         6         9         9
        15        12        14        14
        18        13        23        23
        15        25        21        21
        27        19        22        22
        18         8         9         9
        27        31        24        24
         4        11         6         6
         5        14        12        12
         4         2         5         5
        21        12        15        15
        14        16        15        15
        24        19        27        27
        22        29        27        27
        23        26        18        18
        17         8        18        18
         5        11         4         4
         6         3         4         4
        26        23        30        30
         5         2        10        10
        16        14        10        10
         3         6         7         7
        21        25        28        28
        29        22        28        28
         6        13         9         9
         2         4         1         1
        31        27        32        32
        25        15        20        20
        24        23        13        13
         8         7         9         9
        13        18         9         9
        31        30        24        24
        12        21        22        22
        29        32        27        27
         3         1         4         4
        26        17        18        18
        16        20        15        15
zone t="boundary 2 bc-2", solutiontime= 0.6000000E+02, strandid=1002, i=33, j=48, f=feblock
  0.500195297846E+01  0.375034879869E+01  0.249861160855E+01  0.288036697933E+01  0.124717543368E+01  0.190856734555E+01  0.326577208358E+01
  0.201394882191E+01 -0.338306800861E-02  0.962374580515E+00  0.500000000000E+01  0.403430219970E+01  0.423029575644E+01  0.500000000000E+01
  0.385439197114E+01  0.500000000000E+01  0.398133436456E+01  0.315200087393E+01  0.266958040931E+01  0.154798038680E+01  0.218327863841E+01
  0.893688554177E+00  0.000000000000E+00  0.699009794583E+00  0.964460912828E+00  0.310303674226E+01  0.000000000000E+00  0.000000000000E+00
  0.125000000000E+01  0.500000000000E+01  0.375000000000E+01  0.250000000000E+01  0.000000000000E+00
 -0.249658898644E+01 -0.249658898644E+01 -0.249658898644E+01 -0.249658898644E+01 -0.249658898644E+01 -0.249658898644E+01 -0.249658898644E+01
 -0.249658898644E+01 -0.249658898644E+01 -0.249658898644E+01 -0.249658898644E+01 -0.249658898644E+01 -0.249658898644E+01 -0.249658898644E+01
 -0.249658898644E+01 -0.249658898644E+01 -0.249658898644E+01 -0.249658898644E+01 -0.249658898644E+01 -0.249658898644E+01 -0.249658898644E+01
 -0.249658898644E+01 -0.249658898644E+01 -0.249658898644E+01 -0.249658898644E+01 -0.249658898644E+01 -0.249658898644E+01 -0.249658898644E+01
 -0.249658898644E+01 -0.249658898644E+01 -0.249658898644E+01 -0.249658898644E+01 -0.249658898644E+01
  0.108951811956E-03  0.146841511908E-03  0.100939937681E-03  0.901663569978E+00  0.111188885151E-03  0.714928506180E+00  0.188140663357E+01
  0.175892185999E+01  0.815052046199E-04  0.957504584123E+00  0.125000000000E+01  0.100596734432E+01  0.191313533770E+01  0.250000000000E+01
  0.292898108478E+01  0.375000000000E+01  0.406883374833E+01  0.363389299144E+01  0.284756875487E+01  0.292582319278E+01  0.395754061536E+01
  0.205027270663E+01  0.125000000000E+01  0.306703277861E+01  0.397155769864E+01  0.433068626773E+01  0.250000000000E+01  0.375000000000E+01
  0.500000000000E+01  0.500000000000E+01  0.500000000000E+01  0.500000000000E+01  0.500000000000E+01
  0.831049001990E+00  0.935354923163E+00  0.934389783599E+00  0.968094437619E+00  0.961616765449E+00  0.964874020990E+00  0.984210069809E+00
  0.991408411435E+00  0.144847522033E+01  0.102898689969E+01  0.956112540987E+00  0.960814763441E+00  0.981522835955E+00  0.100650794942E+01
  0.997935782237E+00  0.100981608919E+01  0.100200366697E+01  0.998069049501E+00  0.991091305345E+00  0.100132489671E+01  0.100093956732E+01
  0.101223133465E+01  0.106448523837E+01  0.101079825990E+01  0.100685806922E+01  0.100119203864E+01  0.102844206159E+01  0.100960587065E+01
  0.100511534111E+01  0.100179357871E+01  0.100266912135E+01  0.100322320621E+01  0.100399794252E+01
  0.000000000000E+00  0.000000000000E+00  0.000000000000E+00  0.378615092469E+00  0.000000000000E+00  0.340329976605E+00  0.582178233225E+00
  0.575334655028E+00  0.000000000000E+00  0.489381119723E+00  0.495137409614E+00  0.430537261195E+00  0.569176916301E+00  0.536367073921E+00
  0.569065100189E+00  0.516259718365E+00  0.508563869831E+00  0.527499059049E+00  0.566854331495E+00  0.532032732006E+00  0.506130940164E+00
  0.520947374001E+00  0.444910714476E+00  0.491385542659E+00  0.492729807009E+00  0.501502416563E+00  0.470013287199E+00  0.489177494442E+00
  0.490417259669E+00  0.491396777612E+00  0.486161134219E+00  0.490250027022E+00  0.495515502825E+00
  0.000000000000E+00  0.000000000000E+00  0.000000000000E+00  0.000000000000E+00  0.000000000000E+00  0.000000000000E+00  0.000000000000E+00
  0.000000000000E+00  0.000000000000E+00  0.000000000000E+00  0.000000000000E+00  0.000000000000E+00  0.000000000000E+00  0.000000000000E+00
  0.000000000000E+00  0.000000000000E+00  0.000000000000E+00  0.000000000000E+00  0.000000000000E+00  0.000000000000E+00  0.000000000000E+00
  0.000000000000E+00  0.000000000000E+00  0.000000000000E+00  0.000000000000E+00  0.000000000000E+00  0.000000000000E+00  0.000000000000E+00
  0.000000000000E+00  0.000000000000E+00  0.000000000000E+00  0.000000000000E+00  0.000000000000E+00
  0.000000000000E+00  0.000000000000E+00  0.000000000000E+00 -0.232902896107E-02  0.000000000000E+00  0.182353430371E-01  0.121236173273E-01
  0.453891474595E-01  0.000000000000E+00  0.867492987878E-01 -0.992592146508E-01 -0.210120994785E-01 -0.304697091301E-01 -0.412644342804E-01
 -0.132004430327E-02  0.269956414573E-02  0.637122839434E-03  0.535255324457E-03  0.151134144213E-01  0.283971516005E-01  0.565019973764E-02
  0.553958468939E-01  0.838612198246E-01  0.110560478379E-01  0.679114856688E-02 -0.740734516645E-03  0.283393492418E-02 -0.846588953941E-03
  0.399773536064E-02  0.605665331335E-02 -0.135625337964E-03  0.119915282024E-02  0.345684916615E-02
  0.593602565984E+00  0.668106445296E+00  0.667416966565E+00  0.684291440336E+00  0.686864406699E+00  0.679258566658E+00  0.695864190603E+00
  0.702291791355E+00  0.103461763162E+01  0.723389830793E+00  0.672789499542E+00  0.675870598890E+00  0.694123990501E+00  0.721038064293E+00
  0.712711427497E+00  0.724812421262E+00  0.716595368181E+00  0.713312881256E+00  0.706427911925E+00  0.717741411717E+00  0.715380854161E+00
  0.730906768782E+00  0.790948763159E+00  0.724365790085E+00  0.721017446071E+00  0.715471809496E+00  0.741773499645E+00  0.724071786218E+00
  0.719322137288E+00  0.715894733404E+00  0.716614381980E+00  0.717376651809E+00  0.718406368851E+00
  0.000000000000E+00  0.000000000000E+00  0.000000000000E+00  0.380610205874E+00  0.000000000000E+00  0.343302099028E+00  0.585285482962E+00
  0.579523878868E+00  0.000000000000E+00  0.500979744958E+00  0.508782807235E+00  0.434361558987E+00  0.572843965381E+00  0.537166654315E+00
  0.569106490810E+00  0.515013352647E+00  0.508252452784E+00  0.527349035125E+00  0.567655258559E+00  0.531857862952E+00  0.506012448741E+00
  0.521051135494E+00  0.443900379809E+00  0.490706187674E+00  0.492149790015E+00  0.501385668909E+00  0.467744048262E+00  0.488189261017E+00
  0.489961996095E+00  0.491321546172E+00  0.486017934999E+00  0.489981940713E+00  0.495091102020E+00
  0.999993490622E+00  0.999993692504E+00  0.999993546154E+00  0.989581159899E+00  0.999993140646E+00  0.985581508709E+00  0.989839361258E+00
  0.991729035740E+00  0.999992726105E+00  0.984216381579E+00  0.985140617847E+00  0.984808804412E+00  0.990067221162E+00  0.100292629640E+01
  0.999859927118E+00  0.100487346224E+01  0.100122738921E+01  0.100057008506E+01  0.997888964782E+00  0.100350843138E+01  0.100059307127E+01
  0.101090476186E+01  0.104024765070E+01  0.100327844472E+01  0.100254887492E+01  0.100046793686E+01  0.100976315369E+01  0.100405567180E+01
  0.100192579997E+01  0.100045822619E+01  0.100058944014E+01  0.100110055900E+01  0.100176392181E+01
        15         7        19        19
         8        20        19        19
        18        19        21        21
         7         4         8         8
         3         6         4         4
        19         7         8         8
        19        18        15        15
        14        13        15        15
         8        22        20        20
        27        24        22        22
        19        20        21        21
        32        26        21        21
        17        18        26        26
        17        16        15        15
        25        29        21        21
        12         7        13        13
        10         8         6         6
        25        20        24        24
         4         6         8         8
        12         2         4         4
        10        23        22        22
        26        31        17        17
        30        16        17        17
         4         7        12        12
        13        11        12        12
        21        20        25        25
        24        28        25        25
        22         8        10        10
         6         5        10        10
        31        26        32        32
         4         2         3         3
         5         6         3         3
        11        13        14        14
        22        23        27        27
        28        24        27        27
        15        13         7         7
         2        12         1         1
        29        25        33        33
        23        10         9         9
        21        26        18        18
        16        14        15        15
        18        17        15        15
        29        32        21        21
        22        24        20        20
        28        33        25        25
        11         1        12        12
        31        30        17        17
         5         9        10        10
zone t="boundary 3 bc-3", solutiontime= 0.6000000E+02, strandid=1003, i=33, j=48, f=feblock
  0.375059159829E+01  0.249769623668E+01  0.500322215753E+01  0.403612265425E+01  0.287976811604E+01  0.124541983852E+01  0.190552277536E+01
  0.500000000000E+01  0.326671125795E+01  0.423253772263E+01  0.201271159438E+01 -0.547454789457E-02  0.958896057123E+00  0.500000000000E+01
  0.266968157739E+01  0.385584498196E+01  0.890374308422E+00  0.154654020440E+01  0.000000000000E+00  0.500000000000E+01  0.315261143133E+01
  0.218304201496E+01  0.398195312396E+01  0.000000000000E+00  0.697379970105E+00  0.963757272160E+00  0.125000000000E+01  0.000000000000E+00
  0.500000000000E+01  0.310330741486E+01  0.250000000000E+01  0.375000000000E+01  0.000000000000E+00
  0.250494205109E+01  0.250494205109E+01  0.250494205109E+01  0.250494205109E+01  0.250494205109E+01  0.250494205109E+01  0.250494205109E+01
  0.250494205109E+01  0.250494205109E+01  0.250494205109E+01  0.250494205109E+01  0.250494205109E+01  0.250494205109E+01  0.250494205109E+01
  0.250494205109E+01  0.250494205109E+01  0.250494205109E+01  0.250494205109E+01  0.250494205109E+01  0.250494205109E+01  0.250494205109E+01
  0.250494205109E+01  0.250494205109E+01  0.250494205109E+01  0.250494205109E+01  0.250494205109E+01  0.250494205109E+01  0.250494205109E+01
  0.250494205109E+01  0.250494205109E+01  0.250494205109E+01  0.250494205109E+01  0.250494205109E+01
  0.136583964942E-03  0.110549738900E-03  0.970966005368E-04  0.101756818401E+01  0.908095282726E+00  0.104109038369E-03  0.722629465269E+00
  0.125000000000E+01  0.188965709564E+01  0.191862728898E+01  0.176708277179E+01  0.811177949225E-04  0.969652977846E+00  0.250000000000E+01
  0.285339465291E+01  0.293325084262E+01  0.205656245254E+01  0.293157039419E+01  0.125000000000E+01  0.375000000000E+01  0.363766858432E+01
  0.396069459095E+01  0.407056395705E+01  0.250000000000E+01  0.307032006010E+01  0.397359827757E+01  0.500000000000E+01  0.375000000000E+01
  0.500000000000E+01  0.433260791223E+01  0.500000000000E+01  0.500000000000E+01  0.500000000000E+01
  0.942172382104E+00  0.946117453614E+00  0.843607469146E+00  0.964577369863E+00  0.979032734374E+00  0.957203883618E+00  0.983413628459E+00
  0.963701339034E+00  0.982803921030E+00  0.984389956832E+00  0.990475732739E+00  0.134610784377E+01  0.101939404144E+01  0.100835626232E+01
  0.993519346425E+00  0.998019549362E+00  0.100803794788E+01  0.100074573528E+01  0.106375546419E+01  0.100671242831E+01  0.100059276757E+01
  0.100235385834E+01  0.100177791009E+01  0.102386943410E+01  0.100869654311E+01  0.100526332346E+01  0.100520806039E+01  0.100826832563E+01
  0.100195892926E+01  0.100162063837E+01  0.100412011090E+01  0.100321751842E+01  0.100424995926E+01
  0.000000000000E+00  0.000000000000E+00  0.000000000000E+00  0.440186065824E+00  0.400364000797E+00  0.000000000000E+00  0.375219165632E+00
  0.494597355716E+00  0.572920168531E+00  0.569359293814E+00  0.559938967735E+00  0.000000000000E+00  0.484436980968E+00  0.533624799407E+00
  0.556225884926E+00  0.564433687535E+00  0.522383220941E+00  0.522300353571E+00  0.444887292117E+00  0.518274036787E+00  0.524589458834E+00
  0.503816827629E+00  0.509770333411E+00  0.471807267413E+00  0.496274709303E+00  0.494958715724E+00  0.489143082704E+00  0.489900744763E+00
  0.493071426021E+00  0.499098513883E+00  0.486813275823E+00  0.484775428838E+00  0.495800903757E+00
  0.000000000000E+00  0.000000000000E+00  0.000000000000E+00  0.000000000000E+00  0.000000000000E+00  0.000000000000E+00  0.000000000000E+00
  0.000000000000E+00  0.000000000000E+00  0.000000000000E+00  0.000000000000E+00  0.000000000000E+00  0.000000000000E+00  0.000000000000E+00
  0.000000000000E+00  0.000000000000E+00  0.000000000000E+00  0.000000000000E+00  0.000000000000E+00  0.000000000000E+00  0.000000000000E+00
  0.000000000000E+00  0.000000000000E+00  0.000000000000E+00  0.000000000000E+00  0.000000000000E+00  0.000000000000E+00  0.000000000000E+00
  0.000000000000E+00  0.000000000000E+00  0.000000000000E+00  0.000000000000E+00  0.000000000000E+00
  0.000000000000E+00  0.000000000000E+00  0.000000000000E+00 -0.226594449073E-01  0.112194836892E-01  0.000000000000E+00  0.181895808721E-01
 -0.100732388338E+00  0.385290273400E-02 -0.389417113535E-01  0.339611219068E-01  0.000000000000E+00  0.656426756372E-01 -0.424642496873E-01
  0.838411257942E-02 -0.653604217877E-02  0.487155149808E-01  0.134268380374E-01  0.453283647331E-01  0.711320017236E-03 -0.736126734318E-03
  0.238397510430E-02  0.837560699382E-03  0.352703257923E-02  0.103006274686E-01  0.427267806664E-02  0.337245547836E-02  0.471453908891E-03
  0.570390143541E-02  0.305979598551E-03  0.160645067198E-02  0.567795802300E-03  0.236433387488E-02
  0.672973103034E+00  0.675791029147E+00  0.602570517249E+00  0.676155616412E+00  0.691393398256E+00  0.683710109464E+00  0.689988573842E+00
  0.677395926540E+00  0.695267859888E+00  0.696328672302E+00  0.703514410758E+00  0.961496278544E+00  0.719946029600E+00  0.722885115754E+00
  0.709495718077E+00  0.713707846618E+00  0.726005207924E+00  0.716614508810E+00  0.782491126590E+00  0.722258491651E+00  0.716132745906E+00
  0.716553859961E+00  0.716542443217E+00  0.737375265473E+00  0.722640579140E+00  0.719421876911E+00  0.719547975830E+00  0.722747146819E+00
  0.716025292976E+00  0.715847806545E+00  0.718137409597E+00  0.717062205027E+00  0.718602762081E+00
  0.000000000000E+00  0.000000000000E+00  0.000000000000E+00  0.444930451249E+00  0.402807412341E+00  0.000000000000E+00  0.379033733677E+00
  0.508818741431E+00  0.575701388639E+00  0.573472086359E+00  0.562547796229E+00  0.000000000000E+00  0.491637770089E+00  0.534336810347E+00
  0.556352166078E+00  0.564140543531E+00  0.522485305754E+00  0.521817732490E+00  0.440666223983E+00  0.517132974675E+00  0.524068290215E+00
  0.503616124148E+00  0.509419882565E+00  0.469884099824E+00  0.495645021048E+00  0.494503349887E+00  0.488630220816E+00  0.489034110002E+00
  0.492987210641E+00  0.498957578654E+00  0.486507811015E+00  0.484614067485E+00  0.495364299993E+00
  0.999989346051E+00  0.999989416950E+00  0.999989633807E+00  0.981380957664E+00  0.988680688166E+00  0.999989834592E+00  0.982276404784E+00
  0.984074898253E+00  0.990406105445E+00  0.990319064571E+00  0.994391020907E+00  0.999990302555E+00  0.988748609921E+00  0.100365237949E+01
  0.999773188999E+00  0.100117376048E+01  0.100830260729E+01  0.100251270324E+01  0.102983027031E+01  0.100441979246E+01  0.100199189597E+01
  0.100081961634E+01  0.100137905857E+01  0.100825880457E+01  0.100297440068E+01  0.100191721330E+01  0.100214791928E+01  0.100354834108E+01
  0.100047554934E+01  0.100056537453E+01  0.100126704218E+01  0.100066742117E+01  0.100178631588E+01
        15         9        16        16
        15        18        11        11
        22        15        21        21
        11         5         9         9
         5         7         2         2
        11         9        15        15
        16        21        15        15
        16        10        14        14
        18        17        11        11
        17        25        24        24
        22        18        15        15
        22        30        31        31
        30        21        23        23
        16        20        23        23
        22        27        26        26
        10         9         4         4
         7        11        13        13
        25        18        26        26
        11         7         5         5
         5         1         4         4
        17        19        13        13
        23        32        30        30
        23        20        29        29
         4         9         5         5
         4         8        10        10
        26        18        22        22
        26        28        25        25
        13        11        17        17
        13         6         7         7
        31        30        32        32
         2         1         5         5
         2         7         6         6
        14        10         8         8
        24        19        17        17
        24        25        28        28
         9        10        16        16
         3         4         1         1
        33        26        27        27
        12        13        19        19
        21        30        22        22
        16        14        20        20
        16        23        21        21
        22        31        27        27
        18        25        17        17
        26        33        28        28
         4         3         8         8
        23        29        32        32
        13        12         6         6
zone t="boundary 4 bc-4", solutiontime= 0.6000000E+02, strandid=1004, i=32, j=46, f=feblock
  0.125000000000E+01  0.219251206392E+01  0.103724302461E+01  0.500000000000E+01  0.250000000000E+01  0.375000000000E+01  0.404200324774E+01
  0.500000000000E+01  0.000000000000E+00  0.310152362409E+01  0.202479342020E+01  0.324151231464E+01  0.922061490191E+00  0.000000000000E+00
  0.299062775774E+01  0.394624082883E+01  0.500000000000E+01  0.409252726285E+01  0.500000000000E+01  0.429310310915E+01  0.175434191980E+01
  0.284428995242E+01  0.000000000000E+00  0.000000000000E+00  0.715990576545E+00  0.930412228790E+00  0.125000000000E+01  0.187029682677E+01
  0.500000000000E+01  0.375000000000E+01  0.250000000000E+01  0.000000000000E+00
  0.250494205109E+01  0.157686156160E+01  0.146289271009E+01  0.250494205109E+01  0.250494205109E+01  0.250494205109E+01  0.155830813274E+01
  0.125000000000E+01  0.250494205109E+01  0.177790177481E+01  0.477386199275E+00  0.742988685424E+00  0.308372018325E+00  0.125000000000E+01
 -0.487811078581E+00 -0.144524380962E+01 -0.125000000000E+01 -0.345533899378E+00  0.000000000000E+00  0.627766083140E+00 -0.739814786992E+00
 -0.158811787973E+01  0.000000000000E+00 -0.125000000000E+01 -0.600232012419E+00 -0.154800130438E+01 -0.249658898644E+01 -0.178862290564E+01
 -0.249658898644E+01 -0.249658898644E+01 -0.249658898644E+01 -0.249658898644E+01
  0.500000000000E+01  0.500000000000E+01  0.500000000000E+01  0.500000000000E+01  0.500000000000E+01  0.500000000000E+01  0.500000000000E+01
  0.500000000000E+01  0.500000000000E+01  0.500000000000E+01  0.500000000000E+01  0.500000000000E+01  0.500000000000E+01  0.500000000000E+01
  0.500000000000E+01  0.500000000000E+01  0.500000000000E+01  0.500000000000E+01  0.500000000000E+01  0.500000000000E+01  0.500000000000E+01
  0.500000000000E+01  0.500000000000E+01  0.500000000000E+01  0.500000000000E+01  0.500000000000E+01  0.500000000000E+01  0.500000000000E+01
  0.500000000000E+01  0.500000000000E+01  0.500000000000E+01  0.500000000000E+01
  0.100520806039E+01  0.100431923855E+01  0.100430498736E+01  0.100195892926E+01  0.100412011090E+01  0.100321751842E+01  0.100258950481E+01
  0.100200889381E+01  0.100424995926E+01  0.100371855659E+01  0.100446255860E+01  0.100347199661E+01  0.100365301523E+01  0.100423991984E+01
  0.100362939231E+01  0.100164315537E+01  0.100227308849E+01  0.100227913391E+01  0.100213224055E+01  0.100254677937E+01  0.100442989570E+01
  0.100338023697E+01  0.100288596729E+01  0.100335006119E+01  0.100323313486E+01  0.100406903773E+01  0.100511534111E+01  0.100432403586E+01
  0.100179357871E+01  0.100266912135E+01  0.100322320621E+01  0.100399794252E+01
  0.489143082704E+00  0.489273560325E+00  0.491032973431E+00  0.493071426021E+00  0.486813275823E+00  0.484775428838E+00  0.485406763345E+00
  0.494264082999E+00  0.495800903757E+00  0.486819185166E+00  0.488146801116E+00  0.487231247027E+00  0.494435307438E+00  0.496535899966E+00
  0.487825246142E+00  0.483167754169E+00  0.492561906220E+00  0.487246885230E+00  0.494865195685E+00  0.488002432204E+00  0.490072122680E+00
  0.488216390099E+00  0.497536487403E+00  0.496381521702E+00  0.495257685513E+00  0.493195603331E+00  0.490417259669E+00  0.490359933388E+00
  0.491396777612E+00  0.486161134219E+00  0.490250027022E+00  0.495515502825E+00
  0.000000000000E+00 -0.578636202442E-04 -0.127351895563E-02  0.000000000000E+00  0.000000000000E+00  0.000000000000E+00  0.474018913740E-03
  0.850810197411E-03  0.000000000000E+00  0.314096107711E-03 -0.890188211777E-03 -0.751269323692E-03 -0.173054569692E-02 -0.665396556585E-04
 -0.105319423252E-02 -0.998841513878E-03 -0.129445855737E-02 -0.207760197933E-02 -0.126376452274E-02 -0.997050650297E-03 -0.597641214624E-03
 -0.743088962277E-03 -0.202432858206E-03  0.805362280234E-03  0.601393721487E-04  0.162347648251E-02  0.000000000000E+00  0.803300309494E-03
  0.000000000000E+00  0.000000000000E+00  0.000000000000E+00  0.000000000000E+00