title="tecplot geometry and solution file"
variables = x y z rho u v w p mach temperature
zone t="boundary 1 bc-1", solutiontime= 0.3000000E+02, strandid=1001, i=32, j=46, f=feblock
 -0.547454789457E-02  0.000000000000E+00 -0.567596495155E-02  0.000000000000E+00  0.000000000000E+00  0.000000000000E+00 -0.525081104812E-02
 -0.425695585107E-02  0.000000000000E+00  0.000000000000E+00  0.000000000000E+00  0.000000000000E+00  0.000000000000E+00  0.000000000000E+00
  0.000000000000E+00  0.000000000000E+00 -0.338306800861E-02  0.000000000000E+00  0.000000000000E+00  0.000000000000E+00  0.000000000000E+00
  0.000000000000E+00  0.000000000000E+00  0.000000000000E+00  0.000000000000E+00  0.000000000000E+00  0.000000000000E+00  0.000000000000E+00
  0.000000000000E+00  0.000000000000E+00  0.000000000000E+00  0.000000000000E+00
  0.250494205109E+01  0.250494205109E+01  0.127822176491E+01  0.146289271009E+01  0.157686156160E+01  0.308372018325E+00  0.261953807315E-01
 -0.122573392194E+01 -0.600232012419E+00  0.250494205109E+01  0.477386199275E+00  0.742988685424E+00 -0.739814786992E+00  0.177790177481E+01
  0.155830813274E+01  0.250494205109E+01 -0.249658898644E+01 -0.154800130438E+01 -0.487811078581E+00  0.250494205109E+01  0.627766083140E+00
 -0.345533899378E+00 -0.178862290564E+01 -0.158811787973E+01  0.125000000000E+01 -0.249658898644E+01 -0.144524380962E+01  0.000000000000E+00
 -0.125000000000E+01 -0.249658898644E+01 -0.249658898644E+01 -0.249658898644E+01
  0.811177949225E-04  0.125000000000E+01  0.829429528721E-04  0.103724302461E+01  0.219251206392E+01  0.922061490191E+00  0.104283509303E-03
  0.346902148094E-04  0.715990576545E+00  0.250000000000E+01  0.202479342020E+01  0.324151231464E+01  0.175434191980E+01  0.310152362409E+01
  0.404200324774E+01  0.375000000000E+01  0.815052046199E-04  0.930412228790E+00  0.299062775774E+01  0.500000000000E+01  0.429310310915E+01
  0.409252726285E+01  0.187029682677E+01  0.284428995242E+01  0.500000000000E+01  0.125000000000E+01  0.394624082883E+01  0.500000000000E+01
  0.500000000000E+01  0.250000000000E+01  0.375000000000E+01  0.500000000000E+01
  0.134610759963E+01  0.106375488778E+01  0.142661110664E+01  0.108602634554E+01  0.103229694212E+01  0.120170153334E+01  0.164672901879E+01
  0.149541997395E+01  0.123512284714E+01  0.102386896876E+01  0.102822161195E+01  0.101305341377E+01  0.103253529394E+01  0.101467168738E+01
  0.100662661824E+01  0.100826794791E+01  0.144847479294E+01  0.116396705345E+01  0.101463996139E+01  0.100424962649E+01  0.100679614331E+01
  0.100725138633E+01  0.104656488461E+01  0.101934023964E+01  0.100423957366E+01  0.106448523668E+01  0.100790667551E+01  0.100288574703E+01
  0.100334986303E+01  0.102844157084E+01  0.100960554273E+01  0.100399815268E+01
  0.000000000000E+00  0.444887883266E+00  0.000000000000E+00  0.468180239773E+00  0.462187464797E+00  0.443239134160E+00  0.000000000000E+00
  0.000000000000E+00  0.379439458502E+00  0.471807696884E+00  0.466361398330E+00  0.479395124269E+00  0.490363808665E+00  0.484572116130E+00
  0.488597098187E+00  0.489901391430E+00  0.000000000000E+00  0.451030424090E+00  0.474779411554E+00  0.495801252181E+00  0.490926757530E+00
  0.486826471019E+00  0.448797488836E+00  0.465791400253E+00  0.496536241875E+00  0.444910473851E+00  0.487666756094E+00  0.497536741303E+00
  0.496381590639E+00  0.470013807612E+00  0.489177813067E+00  0.495515593699E+00
  0.000000000000E+00  0.000000000000E+00  0.000000000000E+00  0.182112489004E-01 -0.276670875517E-02  0.330007431457E-01  0.000000000000E+00
  0.000000000000E+00 -0.635894161201E-02  0.000000000000E+00  0.362933041112E-02 -0.561328335084E-02 -0.432762619690E-02  0.439856095408E-04
 -0.103537542527E-02  0.000000000000E+00  0.000000000000E+00 -0.779186100890E-02  0.391814282585E-03  0.000000000000E+00 -0.202812517009E-02
 -0.137704350902E-02  0.151649695573E-02 -0.162047086390E-02 -0.661800388456E-04  0.000000000000E+00 -0.290993160210E-04 -0.202416681947E-03
  0.805476948691E-03  0.000000000000E+00  0.000000000000E+00  0.000000000000E+00
  0.000000000000E+00  0.453286452625E-01  0.000000000000E+00  0.123658358043E+00  0.245691965962E-01  0.166125782112E+00  0.000000000000E+00
  0.000000000000E+00  0.155959951842E+00  0.352700190356E-02  0.259079433752E-01 -0.647808340987E-02  0.752820154690E-01  0.371562470339E-02
 -0.127629340350E-03  0.471083023502E-03  0.000000000000E+00  0.141096864680E+00 -0.806999361540E-02  0.236416092250E-02 -0.280160173555E-03
 -0.438297185620E-02  0.256771033634E-01 -0.189361782316E-02  0.307388334167E-02  0.838611104105E-01 -0.122859384988E-02  0.268465303639E-02
  0.264399430192E-02  0.283397952346E-02 -0.846807278332E-03  0.345589162768E-02
  0.961496104162E+00  0.782490697830E+00  0.101899852129E+01  0.808635495132E+00  0.746112814908E+00  0.879959482012E+00  0.117622492439E+01
  0.106814876337E+01  0.916483901791E+00  0.737374781544E+00  0.743650479211E+00  0.725792312797E+00  0.757478929501E+00  0.729144043888E+00
  0.720777136036E+00  0.722746827315E+00  0.103461732635E+01  0.858092554720E+00  0.728072053789E+00  0.718602388224E+00  0.721011954077E+00
  0.721153876160E+00  0.759933633459E+00  0.732618003679E+00  0.718521620676E+00  0.790948462072E+00  0.722117717989E+00  0.717197247725E+00
  0.717641775486E+00  0.741773000408E+00  0.724071462514E+00  0.718406391387E+00
  0.000000000000E+00  0.440666832868E+00  0.000000000000E+00  0.474617118038E+00  0.460123833927E+00  0.468637202827E+00  0.000000000000E+00
  0.000000000000E+00  0.402550191371E+00  0.469884574702E+00  0.464194236341E+00  0.478750231490E+00  0.489549603172E+00  0.483129187619E+00
  0.488001952516E+00  0.489034771660E+00  0.000000000000E+00  0.465241444738E+00  0.473761249576E+00  0.495364694063E+00  0.490293348509E+00
  0.486277830642E+00  0.445855115716E+00  0.464359629548E+00  0.496128306174E+00  0.443900212234E+00  0.486930156998E+00  0.497249002054E+00
  0.496056018302E+00  0.467744612215E+00  0.488189609217E+00  0.495091230190E+00
  0.999990302555E+00  0.102983026405E+01  0.999990763541E+00  0.104241457662E+01  0.101187739521E+01  0.102516576757E+01  0.999991422600E+00
  0.999992172611E+00  0.103882578602E+01  0.100825860111E+01  0.101253529278E+01  0.100301644919E+01  0.102705496609E+01  0.100604133745E+01
  0.100244516901E+01  0.100354827340E+01  0.999992726105E+00  0.103209929615E+01  0.100459366286E+01  0.100178612666E+01  0.100260290270E+01
  0.100234702114E+01  0.101657059441E+01  0.100620496009E+01  0.100168355772E+01  0.104024725636E+01  0.100303413972E+01  0.100118697447E+01
  0.100134412003E+01  0.100976295593E+01  0.100405554904E+01  0.100176374355E+01
        12        19        11        11
        11         5        12        12
        10        14         5         5
        19        13        11        11
        19        24        13        13
        30        23        24        24
        19        12        22        22
        28        22        21        21
        11        13         6         6
         7         6         9         9
        15        12        14        14
        18        13        23        23
        15        25        21        21
        27        19        22        22
        18         8         9         9
        27        31        24        24
         4        11         6         6
         5        14        12        12
         4         2         5         5
        21        12        15        15
        14        16        15        15
        24        19        27        27
        22        29        27        27
        23        26        18        18
        17         8        18        18
         5        11         4         4
         6         3         4         4
        26        23        30        30
         5         2        10        10
        16        14        10        10
         3         6         7         7
        21        25        28        28
        29        22        28        28
         6        13         9         9
         2         4         1         1
        31        27        32        32
        25        15        20        20
        24        23        13        13
         8         7         9         9
        13        18         9         9
        31        30        24        24
        12        21        22        22
        29        32        27        27
         3         1         4         4
        26        17        18        18
        16        20        15        15
zone t="boundary 2 bc-2", solutiontime= 0.3000000E+02, strandid=1002, i=33, j=48, f=feblock
  0.500195297846E+01  0.375034879869E+01  0.249861160855E+01  0.288036697933E+01  0.124717543368E+01  0.190856734555E+01  0.326577208358E+01
  0.201394882191E+01 -0.338306800861E-02  0.962374580515E+00  0.500000000000E+01  0.403430219970E+01  0.423029575644E+01  0.500000000000E+01
  0.385439197114E+01  0.500000000000E+01  0.398133436456E+01  0.315200087393E+01  0.266958040931E+01  0.154798038680E+01  0.218327863841E+01
  0.893688554177E+00  0.000000000000E+00  0.699009794583E+00  0.964460912828E+00  0.310303674226E+01  0.000000000000E+00  0.000000000000E+00
  0.125000000000E+01  0.500000000000E+01  0.375000000000E+01  0.250000000000E+01  0.000000000000E+00
 -0.249658898644E+01 -0.249658898644E+01 -0.249658898644E+01 -0.249658898644E+01 -0.249658898644E+01 -0.249658898644E+01 -0.249658898644E+01
 -0.249658898644E+01 -0.249658898644E+01 -0.249658898644E+01 -0.249658898644E+01 -0.249658898644E+01 -0.249658898644E+01 -0.249658898644E+01
 -0.249658898644E+01 -0.249658898644E+01 -0.249658898644E+01 -0.249658898644E+01 -0.249658898644E+01 -0.249658898644E+01 -0.249658898644E+01
 -0.249658898644E+01 -0.249658898644E+01 -0.249658898644E+01 -0.249658898644E+01 -0.249658898644E+01 -0.249658898644E+01 -0.249658898644E+01
 -0.249658898644E+01 -0.249658898644E+01 -0.249658898644E+01 -0.249658898644E+01 -0.249658898644E+01
  0.108951811956E-03  0.146841511908E-03  0.100939937681E-03  0.901663569978E+00  0.111188885151E-03  0.714928506180E+00  0.188140663357E+01
  0.175892185999E+01  0.815052046199E-04  0.957504584123E+00  0.125000000000E+01  0.100596734432E+01  0.191313533770E+01  0.250000000000E+01
  0.292898108478E+01  0.375000000000E+01  0.406883374833E+01  0.363389299144E+01  0.284756875487E+01  0.292582319278E+01  0.395754061536E+01
  0.205027270663E+01  0.125000000000E+01  0.306703277861E+01  0.397155769864E+01  0.433068626773E+01  0.250000000000E+01  0.375000000000E+01
  0.500000000000E+01  0.500000000000E+01  0.500000000000E+01  0.500000000000E+01  0.500000000000E+01
  0.831048661523E+00  0.935354806003E+00  0.934389257727E+00  0.968093993159E+00  0.961616114132E+00  0.964873772340E+00  0.984209571314E+00
  0.991408104764E+00  0.144847479294E+01  0.102898645120E+01  0.956112383042E+00  0.960815435293E+00  0.981522526025E+00  0.100650762390E+01
  0.997935517637E+00  0.100981783897E+01  0.100200416576E+01  0.998068418130E+00  0.991090989890E+00  0.100132441688E+01  0.100093907435E+01
  0.101223091049E+01  0.106448523668E+01  0.101079762704E+01  0.100685747882E+01  0.100119129513E+01  0.102844157084E+01  0.100960554273E+01
  0.100511486287E+01  0.100179139747E+01  0.100266692896E+01  0.100322279407E+01  0.100399815268E+01
  0.000000000000E+00  0.000000000000E+00  0.000000000000E+00  0.378614901805E+00  0.000000000000E+00  0.340330194920E+00  0.582177962105E+00
  0.575334957056E+00  0.000000000000E+00  0.489381456884E+00  0.495136476895E+00  0.430537091584E+00  0.569175990458E+00  0.536367168748E+00
  0.569065983084E+00  0.516260833066E+00  0.508569176612E+00  0.527501697876E+00  0.566854823796E+00  0.532033422202E+00  0.506133346687E+00
  0.520947704669E+00  0.444910473851E+00  0.491386218768E+00  0.492730514678E+00  0.501505696334E+00  0.470013807612E+00  0.489177813067E+00
  0.490417879716E+00  0.491395725058E+00  0.486158648616E+00  0.490251366249E+00  0.495515593699E+00
  0.000000000000E+00  0.000000000000E+00  0.000000000000E+00  0.000000000000E+00  0.000000000000E+00  0.000000000000E+00  0.000000000000E+00
  0.000000000000E+00  0.000000000000E+00  0.000000000000E+00  0.000000000000E+00  0.000000000000E+00  0.000000000000E+00  0.000000000000E+00
  0.000000000000E+00  0.000000000000E+00  0.000000000000E+00  0.000000000000E+00  0.000000000000E+00  0.000000000000E+00  0.000000000000E+00
  0.000000000000E+00  0.000000000000E+00  0.000000000000E+00  0.000000000000E+00  0.000000000000E+00  0.000000000000E+00  0.000000000000E+00
  0.000000000000E+00  0.000000000000E+00  0.000000000000E+00  0.000000000000E+00  0.000000000000E+00
  0.000000000000E+00  0.000000000000E+00  0.000000000000E+00 -0.232898321932E-02  0.000000000000E+00  0.182354571313E-01  0.121237849665E-01
  0.453891561933E-01  0.000000000000E+00  0.867493748996E-01 -0.992585077101E-01 -0.210122976578E-01 -0.304690444079E-01 -0.412642040254E-01
 -0.131904208765E-02  0.270132677531E-02  0.638006980790E-03  0.536000415081E-03  0.151138505048E-01  0.283972571778E-01  0.565028060097E-02
  0.553959593104E-01  0.838611104105E-01  0.110561133811E-01  0.679094256502E-02 -0.740864068183E-03  0.283397952346E-02 -0.846807278332E-03
  0.399670235715E-02  0.605903748384E-02 -0.134903986920E-03  0.119824913045E-02  0.345589162768E-02
  0.593602322795E+00  0.668106361612E+00  0.667416590945E+00  0.684291149752E+00  0.686863941477E+00  0.679258135575E+00  0.695863862574E+00
  0.702291314054E+00  0.103461732635E+01  0.723389460889E+00  0.672789289314E+00  0.675870456649E+00  0.694123787289E+00  0.721037877160E+00
  0.712711191419E+00  0.724813426095E+00  0.716594808905E+00  0.713312069412E+00  0.706427490070E+00  0.717740964030E+00  0.715380157898E+00
  0.730906309878E+00  0.790948462072E+00  0.724365231766E+00  0.721016869371E+00  0.715470739823E+00  0.741773000408E+00  0.724071462514E+00
  0.719321627185E+00  0.715893093121E+00  0.716613090799E+00  0.717376270137E+00  0.718406391387E+00
  0.000000000000E+00  0.000000000000E+00  0.000000000000E+00  0.380610007373E+00  0.000000000000E+00  0.343302389469E+00  0.585285203751E+00
  0.579524289203E+00  0.000000000000E+00  0.500980111895E+00  0.508781783308E+00  0.434361595581E+00  0.572842993935E+00  0.537166713930E+00
  0.569107390248E+00  0.515014563033E+00  0.508258082258E+00  0.527351807254E+00  0.567655841994E+00  0.531858595019E+00  0.506014976941E+00
  0.521051528755E+00  0.443900212234E+00  0.490706899475E+00  0.492150546410E+00  0.501389136733E+00  0.467744612215E+00  0.488189609217E+00
  0.489962664277E+00  0.491320551303E+00  0.486015356425E+00  0.489983306692E+00  0.495091230190E+00
  0.999993490622E+00  0.999993692504E+00  0.999993546154E+00  0.989581193998E+00  0.999993140646E+00  0.985581137209E+00  0.989839395996E+00
  0.991728668497E+00  0.999992726105E+00  0.984216307281E+00  0.985140472758E+00  0.984807908525E+00  0.990067243939E+00  0.100292636047E+01
  0.999859861035E+00  0.100487311411E+01  0.100122610938E+01  0.100056957924E+01  0.997888686495E+00  0.100350828632E+01  0.100059259022E+01
  0.101090455076E+01  0.104024725636E+01  0.100327829958E+01  0.100254866091E+01  0.100046718407E+01  0.100976295593E+01  0.100405554904E+01
  0.100192556618E+01  0.100045811223E+01  0.100058982514E+01  0.100110043763E+01  0.100176374355E+01
        15         7        19        19
         8        20        19        19
        18        19        21        21
         7         4         8         8
         3         6         4         4
        19         7         8         8
        19        18        15        15
        14        13        15        15
         8        22        20        20
        27        24        22        22
        19        20        21        21
        32        26        21        21
        17        18        26        26
        17        16        15        15
        25        29        21        21
        12         7        13        13
        10         8         6         6
        25        20        24        24
         4         6         8         8
        12         2         4         4
        10        23        22        22
        26        31        17        17
        30        16        17        17
         4         7        12        12
        13        11        12        12
        21        20        25        25
        24        28        25        25
        22         8        10        10
         6         5        10        10
        31        26        32        32
         4         2         3         3
         5         6         3         3
        11        13        14        14
        22        23        27        27
        28        24        27        27
        15        13         7         7
         2        12         1         1
        29        25        33        33
        23        10         9         9
        21        26        18        18
        16        14        15        15
        18        17        15        15
        29        32        21        21
        22        24        20        20
        28        33        25        25
        11         1        12        12
        31        30        17        17
         5         9        10        10
zone t="boundary 3 bc-3", solutiontime= 0.3000000E+02, strandid=1003, i=33, j=48, f=feblock
  0.375059159829E+01  0.249769623668E+01  0.500322215753E+01  0.403612265425E+01  0.287976811604E+01  0.124541983852E+01  0.190552277536E+01
  0.500000000000E+01  0.326671125795E+01  0.423253772263E+01  0.201271159438E+01 -0.547454789457E-02  0.958896057123E+00  0.500000000000E+01
  0.266968157739E+01  0.385584498196E+01  0.890374308422E+00  0.154654020440E+01  0.000000000000E+00  0.500000000000E+01  0.315261143133E+01
  0.218304201496E+01  0.398195312396E+01  0.000000000000E+00  0.697379970105E+00  0.963757272160E+00  0.125000000000E+01  0.000000000000E+00
  0.500000000000E+01  0.310330741486E+01  0.250000000000E+01  0.375000000000E+01  0.000000000000E+00
  0.250494205109E+01  0.250494205109E+01  0.250494205109E+01  0.250494205109E+01  0.250494205109E+01  0.250494205109E+01  0.250494205109E+01
  0.250494205109E+01  0.250494205109E+01  0.250494205109E+01  0.250494205109E+01  0.250494205109E+01  0.250494205109E+01  0.250494205109E+01
  0.250494205109E+01  0.250494205109E+01  0.250494205109E+01  0.250494205109E+01  0.250494205109E+01  0.250494205109E+01  0.250494205109E+01
  0.250494205109E+01  0.250494205109E+01  0.250494205109E+01  0.250494205109E+01  0.250494205109E+01  0.250494205109E+01  0.250494205109E+01
  0.250494205109E+01  0.250494205109E+01  0.250494205109E+01  0.250494205109E+01  0.250494205109E+01
  0.136583964942E-03  0.110549738900E-03  0.970966005368E-04  0.101756818401E+01  0.908095282726E+00  0.104109038369E-03  0.722629465269E+00
  0.125000000000E+01  0.188965709564E+01  0.191862728898E+01  0.176708277179E+01  0.811177949225E-04  0.969652977846E+00  0.250000000000E+01
  0.285339465291E+01  0.293325084262E+01  0.205656245254E+01  0.293157039419E+01  0.125000000000E+01  0.375000000000E+01  0.363766858432E+01
  0.396069459095E+01  0.407056395705E+01  0.250000000000E+01  0.307032006010E+01  0.397359827757E+01  0.500000000000E+01  0.375000000000E+01
  0.500000000000E+01  0.433260791223E+01  0.500000000000E+01  0.500000000000E+01  0.500000000000E+01
  0.942171859500E+00  0.946116863213E+00  0.843607395962E+00  0.964583328986E+00  0.979034816611E+00  0.957203349134E+00  0.983413134476E+00
  0.963705911234E+00  0.982803423535E+00  0.984390407533E+00  0.990475025365E+00  0.134610759963E+01  0.101939371874E+01  0.100835477958E+01
  0.993518812861E+00  0.998018511370E+00  0.100803747412E+01  0.100074515907E+01  0.106375488778E+01  0.100671366605E+01  0.100059200426E+01
  0.100235312407E+01  0.100177896557E+01  0.102386896876E+01  0.100869607750E+01  0.100526282970E+01  0.100520746313E+01  0.100826794791E+01
  0.100195691057E+01  0.100162020324E+01  0.100411956527E+01  0.100321547003E+01  0.100424962649E+01
  0.000000000000E+00  0.000000000000E+00  0.000000000000E+00  0.440183661578E+00  0.400363072013E+00  0.000000000000E+00  0.375219171001E+00
  0.494590712943E+00  0.572920261217E+00  0.569357441711E+00  0.559939671378E+00  0.000000000000E+00  0.484437257767E+00  0.533625194862E+00
  0.556226331332E+00  0.564433724970E+00  0.522383762108E+00  0.522300968227E+00  0.444887883266E+00  0.518274326325E+00  0.524590251037E+00
  0.503817650993E+00  0.509775434430E+00  0.471807696884E+00  0.496275319140E+00  0.494958992413E+00  0.489144877459E+00  0.489901391430E+00
  0.493073323341E+00  0.499102254502E+00  0.486817540590E+00  0.484779157098E+00  0.495801252181E+00
  0.000000000000E+00  0.000000000000E+00  0.000000000000E+00  0.000000000000E+00  0.000000000000E+00  0.000000000000E+00  0.000000000000E+00
  0.000000000000E+00  0.000000000000E+00  0.000000000000E+00  0.000000000000E+00  0.000000000000E+00  0.000000000000E+00  0.000000000000E+00
  0.000000000000E+00  0.000000000000E+00  0.000000000000E+00  0.000000000000E+00  0.000000000000E+00  0.000000000000E+00  0.000000000000E+00
  0.000000000000E+00  0.000000000000E+00  0.000000000000E+00  0.000000000000E+00  0.000000000000E+00  0.000000000000E+00  0.000000000000E+00
  0.000000000000E+00  0.000000000000E+00  0.000000000000E+00  0.000000000000E+00  0.000000000000E+00
  0.000000000000E+00  0.000000000000E+00  0.000000000000E+00 -0.226595671734E-01  0.112195246296E-01  0.000000000000E+00  0.181896082993E-01
 -0.100731067485E+00  0.385344729131E-02 -0.389402666890E-01  0.339612147235E-01  0.000000000000E+00  0.656427160529E-01 -0.424632960828E-01
  0.838469236328E-02 -0.653454181848E-02  0.487154693433E-01  0.134266786483E-01  0.453286452625E-01  0.712703437035E-03 -0.734598476713E-03
  0.238426660190E-02  0.838225928386E-03  0.352700190356E-02  0.103003859081E-01  0.427250060555E-02  0.337146068163E-02  0.471083023502E-03
  0.570894089059E-02  0.306154279592E-03  0.160419563640E-02  0.568083129823E-03  0.236416092250E-02
  0.672972729749E+00  0.675790607436E+00  0.602570464975E+00  0.676155329794E+00  0.691392987117E+00  0.683709727694E+00  0.689988322589E+00
  0.677397486399E+00  0.695267582427E+00  0.696328630753E+00  0.703514013630E+00  0.961496104162E+00  0.719945608214E+00  0.722884203638E+00
  0.709495158913E+00  0.713707645700E+00  0.726004730294E+00  0.716613983482E+00  0.782490697830E+00  0.722259060141E+00  0.716132024879E+00
  0.716553203230E+00  0.716541708495E+00  0.737374781544E+00  0.722640095539E+00  0.719421389916E+00  0.719547268912E+00  0.722746827315E+00
  0.716024434331E+00  0.715846764823E+00  0.718136601797E+00  0.717061146821E+00  0.718602388224E+00
  0.000000000000E+00  0.000000000000E+00  0.000000000000E+00  0.444929502531E+00  0.402807027890E+00  0.000000000000E+00  0.379033714241E+00
  0.508812535281E+00  0.575701454614E+00  0.573470278896E+00  0.562548464092E+00  0.000000000000E+00  0.491638117455E+00  0.534337072578E+00
  0.556352691065E+00  0.564140349620E+00  0.522485887227E+00  0.521818383120E+00  0.440666832868E+00  0.517133379856E+00  0.524069143421E+00
  0.503616994867E+00  0.509425510695E+00  0.469884574702E+00  0.495645676297E+00  0.494503670697E+00  0.488632101619E+00  0.489034771660E+00
  0.492988964655E+00  0.498961572994E+00  0.486512207071E+00  0.484617657670E+00  0.495364694063E+00
  0.999989346051E+00  0.999989416950E+00  0.999989633807E+00  0.981374478767E+00  0.988677997495E+00  0.999989834592E+00  0.982276540510E+00
  0.984072495462E+00  0.990406211546E+00  0.990318552065E+00  0.994391169751E+00  0.999990302555E+00  0.988748344208E+00  0.100365258894E+01
  0.999772937986E+00  0.100117451991E+01  0.100830241783E+01  0.100251254556E+01  0.102983026405E+01  0.100441934812E+01  0.100199165150E+01
  0.100081943223E+01  0.100137697673E+01  0.100825860111E+01  0.100297419244E+01  0.100191702720E+01  0.100214753016E+01  0.100354827340E+01
  0.100047636529E+01  0.100056435314E+01  0.100126645998E+01  0.100066798763E+01  0.100178612666E+01
        15         9        16        16
        15        18        11        11
        22        15        21        21
        11         5         9         9
         5         7         2         2
        11         9        15        15
        16        21        15        15
        16        10        14        14
        18        17        11        11
        17        25        24        24
        22        18        15        15
        22        30        31        31
        30        21        23        23
        16        20        23        23
        22        27        26        26
        10         9         4         4
         7        11        13        13
        25        18        26        26
        11         7         5         5
         5         1         4         4
        17        19        13        13
        23        32        30        30
        23        20        29        29
         4         9         5         5
         4         8        10        10
        26        18        22        22
        26        28        25        25
        13        11        17        17
        13         6         7         7
        31        30        32        32
         2         1         5         5
         2         7         6         6
        14        10         8         8
        24        19        17        17
        24        25        28        28
         9        10        16        16
         3         4         1         1
        33        26        27        27
        12        13        19        19
        21        30        22        22
        16        14        20        20
        16        23        21        21
        22        31        27        27
        18        25        17        17
        26        33        28        28
         4         3         8         8
        23        29        32        32
        13        12         6         6
zone t="boundary 4 bc-4", solutiontime= 0.3000000E+02, strandid=1004, i=32, j=46, f=feblock
  0.125000000000E+01  0.219251206392E+01  0.103724302461E+01  0.500000000000E+01  0.250000000000E+01  0.375000000000E+01  0.404200324774E+01
  0.500000000000E+01  0.000000000000E+00  0.310152362409E+01  0.202479342020E+01  0.324151231464E+01  0.922061490191E+00  0.000000000000E+00
  0.299062775774E+01  0.394624082883E+01  0.500000000000E+01  0.409252726285E+01  0.500000000000E+01  0.429310310915E+01  0.175434191980E+01
  0.284428995242E+01  0.000000000000E+00  0.000000000000E+00  0.715990576545E+00  0.930412228790E+00  0.125000000000E+01  0.187029682677E+01
  0.500000000000E+01  0.375000000000E+01  0.250000000000E+01  0.000000000000E+00
  0.250494205109E+01  0.157686156160E+01  0.146289271009E+01  0.250494205109E+01  0.250494205109E+01  0.250494205109E+01  0.155830813274E+01
  0.125000000000E+01  0.250494205109E+01  0.177790177481E+01  0.477386199275E+00  0.742988685424E+00  0.308372018325E+00  0.125000000000E+01
 -0.487811078581E+00 -0.144524380962E+01 -0.125000000000E+01 -0.345533899378E+00  0.000000000000E+00  0.627766083140E+00 -0.739814786992E+00
 -0.158811787973E+01  0.000000000000E+00 -0.125000000000E+01 -0.600232012419E+00 -0.154800130438E+01 -0.249658898644E+01 -0.178862290564E+01
 -0.249658898644E+01 -0.249658898644E+01 -0.249658898644E+01 -0.249658898644E+01
  0.500000000000E+01  0.500000000000E+01  0.500000000000E+01  0.500000000000E+01  0.500000000000E+01  0.500000000000E+01  0.500000000000E+01
  0.500000000000E+01  0.500000000000E+01  0.500000000000E+01  0.500000000000E+01  0.500000000000E+01  0.500000000000E+01  0.500000000000E+01
  0.500000000000E+01  0.500000000000E+01  0.500000000000E+01  0.500000000000E+01  0.500000000000E+01  0.500000000000E+01  0.500000000000E+01
  0.500000000000E+01  0.500000000000E+01  0.500000000000E+01  0.500000000000E+01  0.500000000000E+01  0.500000000000E+01  0.500000000000E+01
  0.500000000000E+01  0.500000000000E+01  0.500000000000E+01  0.500000000000E+01
  0.100520746313E+01  0.100431820044E+01  0.100430437998E+01  0.100195691057E+01  0.100411956527E+01  0.100321547003E+01  0.100258561415E+01
  0.100200569521E+01  0.100424962649E+01  0.100371788688E+01  0.100446171828E+01  0.100347033100E+01  0.100365273171E+01  0.100423957366E+01
  0.100362826037E+01  0.100164102236E+01  0.100227062481E+01  0.100227590669E+01  0.100212968082E+01  0.100254296997E+01  0.100442938216E+01
  0.100337933347E+01  0.100288574703E+01  0.100334986303E+01  0.100323273541E+01  0.100406864090E+01  0.100511486287E+01  0.100432381983E+01
  0.100179139747E+01  0.100266692896E+01  0.100322279407E+01  0.100399815268E+01
  0.489144877459E+00  0.489275897816E+00  0.491034106125E+00  0.493073323341E+00  0.486817540590E+00  0.484779157098E+00  0.485409047427E+00
  0.494265954529E+00  0.495801252181E+00  0.486823644031E+00  0.488148020210E+00  0.487234367108E+00  0.494435996988E+00  0.496536241875E+00
  0.487825867335E+00  0.483164745147E+00  0.492560576494E+00  0.487247178136E+00  0.494866211280E+00  0.488004712276E+00  0.490073023785E+00
  0.488215721751E+00  0.497536741303E+00  0.496381590639E+00  0.495258183751E+00  0.493196401852E+00  0.490417879716E+00  0.490360816945E+00
  0.491395725058E+00  0.486158648616E+00  0.490251366249E+00  0.495515593699E+00
  0.000000000000E+00 -0.582320795963E-04 -0.127319807659E-02  0.000000000000E+00  0.000000000000E+00  0.000000000000E+00  0.473415390867E-03
  0.851667826223E-03  0.000000000000E+00  0.313101478951E-03 -0.889806692176E-03 -0.751234036365E-03 -0.173032668859E-02 -0.661800388456E-04
 -0.105110851767E-02 -0.996945627592E-03 -0.129307531781E-02 -0.207593522471E-02 -0.126287747980E-02 -0.996604711440E-03 -0.596951667109E-03
 -0.741804508804E-03 -0.202416681947E-03  0.805476948691E-03  0.601074512489E-04  0.162369404797E-02  0.000000000000E+00  0.803387055522E-03
  0.000000000000E+00  0.000000000000E+00  0.000000000000E+00  0.000000000000E+00