# vtk DataFile Version 2.0
FUN3D:global_image_vtk
ASCII
DATASET UNSTRUCTURED_GRID
POINTS 213 double
   -0.5474238059504602E-02    0.2504942121173606E+01    0.8105550996138859E-04
    0.1245420063214956E+01    0.2504942121173606E+01    0.1051110799572808E-03
    0.2497696576329003E+01    0.2504942121173606E+01    0.1107916248165164E-03
    0.3750591986574023E+01    0.2504942121173606E+01    0.1368046305401372E-03
    0.5003221880247612E+01    0.2504942121173606E+01    0.9733523344461430E-04
    0.5004677745410214E+01    0.1281291877273527E+01    0.1649128333390527E-03
    0.5004773223164809E+01    0.2775194235895189E-01    0.1909167401678425E-03
    0.5003582213732991E+01   -0.1225852894964910E+01    0.1618071321506643E-03
    0.5001953045688033E+01   -0.2496588899954337E+01    0.1087184661237440E-03
    0.3750349114452023E+01   -0.2496588899954337E+01    0.1468710028767740E-03
    0.2498611955860786E+01   -0.2496588899954337E+01    0.1013914036254582E-03
    0.1247176253529147E+01   -0.2496588899954337E+01    0.1118597702464409E-03
   -0.3383478115785168E-02   -0.2496588899954337E+01    0.8157707488508307E-04
   -0.4256799575230424E-02   -0.1225734204378883E+01    0.3520054752117928E-04
   -0.5251137157060340E-02    0.2619598345569628E-01    0.1044613540432249E-03
   -0.5675113931366799E-02    0.1278222211771627E+01    0.8337742971856086E-04
    0.9003214086382191E+00    0.1608980275733105E+01    0.8768012080222158E-04
    0.3983173220881041E+01   -0.1561211296856023E+01    0.1767351954316810E-03
    0.4035602566125262E+01    0.1486761229513980E+01    0.1719506678095473E-03
    0.1036614696945808E+01   -0.1455625819023465E+01    0.1057538994854991E-03
    0.1094353938944835E+01   -0.2964610713744223E+00    0.1266326919438921E-03
    0.7298409754953697E+00    0.6874691188446063E+00    0.1055682047596807E-03
    0.1617019110904462E+01    0.8553219657949420E+00    0.1535917835092516E-03
    0.2143200645120234E+01   -0.1627127901290524E+01    0.1616433273473873E-03
    0.4088840970379843E+01   -0.4351036471404206E+00    0.2725522799659064E-03
    0.2977917500432660E+01   -0.8334985271277852E+00    0.2256092970106250E-03
    0.3044093736197656E+01   -0.1814360118269820E+01    0.1622179478026198E-03
    0.3427867617085304E+01    0.3813911574464904E+00    0.2947830712452793E-03
    0.4313225896320023E+01    0.5489145083257441E+00    0.2318893475642814E-03
    0.1823033699632841E+01    0.1771265881755795E+01    0.1847610807679524E-03
    0.2806311635978372E+01    0.1358630571504235E+01    0.1949713312552748E-03
    0.1891861844560957E+01   -0.8481304128925676E+00    0.1681170219251228E-03
    0.2268769663417530E+01    0.7723807075737754E-01    0.2078128221064535E-03
    0.5000000000000000E+01    0.2504942121173606E+01    0.1250000000000000E+01
    0.5000000000000000E+01    0.2504942121173606E+01    0.2500000000000000E+01
    0.5000000000000000E+01    0.2504942121173606E+01    0.3750000000000000E+01
    0.5000000000000000E+01    0.2504942121173606E+01    0.5000000000000000E+01
    0.3750000000000000E+01    0.2504942121173606E+01    0.5000000000000000E+01
    0.2500000000000000E+01    0.2504942121173606E+01    0.5000000000000000E+01
    0.1250000000000000E+01    0.2504942121173606E+01    0.5000000000000000E+01
    0.0000000000000000E+00    0.2504942121173606E+01    0.5000000000000000E+01
    0.0000000000000000E+00    0.2504942121173606E+01    0.3750000000000000E+01
    0.0000000000000000E+00    0.2504942121173606E+01    0.2500000000000000E+01
    0.0000000000000000E+00    0.2504942121173606E+01    0.1250000000000000E+01
    0.9588960232678366E+00    0.2504942121173606E+01    0.9696535532560123E+00
    0.3981953158675399E+01    0.2504942121173606E+01    0.4070564028128235E+01
    0.4036122731989218E+01    0.2504942121173606E+01    0.1017568485776355E+01
    0.9637572610381538E+00    0.2504942121173606E+01    0.3973598359643718E+01
    0.1546540203381565E+01    0.2504942121173606E+01    0.2931570647607446E+01
    0.6973799401951976E+00    0.2504942121173606E+01    0.3070320208910558E+01
    0.8903742641014867E+00    0.2504942121173606E+01    0.2056562761496198E+01
    0.2183042030268336E+01    0.2504942121173606E+01    0.3960694715225206E+01
    0.3855845062374691E+01    0.2504942121173606E+01    0.2933250999658541E+01
    0.3152611483537013E+01    0.2504942121173606E+01    0.3637668731320943E+01
    0.3103307439881851E+01    0.2504942121173606E+01    0.4332607988887994E+01
    0.3266711411018350E+01    0.2504942121173606E+01    0.1889657368794829E+01
    0.4232537829854345E+01    0.2504942121173606E+01    0.1918627448997642E+01
    0.1905523002123984E+01    0.2504942121173606E+01    0.7226301643477123E+00
    0.2879768331147496E+01    0.2504942121173606E+01    0.9080955730319548E+00
    0.2012711713120237E+01    0.2504942121173606E+01    0.1767083234625423E+01
    0.2669681657745519E+01    0.2504942121173606E+01    0.2853394900149152E+01
    0.5000000000000000E+01    0.1250000000000000E+01    0.5000000000000000E+01
    0.5000000000000000E+01    0.0000000000000000E+00    0.5000000000000000E+01
    0.5000000000000000E+01   -0.1250000000000000E+01    0.5000000000000000E+01
    0.5000000000000000E+01   -0.2496588899954337E+01    0.5000000000000000E+01
    0.5000000000000000E+01   -0.2496588899954337E+01    0.3750000000000000E+01
    0.5000000000000000E+01   -0.2496588899954337E+01    0.2500000000000000E+01
    0.5000000000000000E+01   -0.2496588899954337E+01    0.1250000000000000E+01
    0.5000000000000000E+01    0.1578994732800803E+01    0.9058375365086910E+00
    0.5000000000000000E+01   -0.1583989954232354E+01    0.3982050490726493E+01
    0.5000000000000000E+01    0.1453322699199022E+01    0.4033849428301197E+01
    0.5000000000000000E+01   -0.1479596339503735E+01    0.1040505887381675E+01
    0.5000000000000000E+01   -0.3227322616384110E+00    0.1099454400140349E+01
    0.5000000000000000E+01    0.6593508822075582E+00    0.7354504170366591E+00
    0.5000000000000000E+01    0.8256214013940779E+00    0.1622302608453282E+01
    0.5000000000000000E+01   -0.1650070333782557E+01    0.2145871574390382E+01
    0.5000000000000000E+01   -0.4612828702537229E+00    0.4086422318222992E+01
    0.5000000000000000E+01   -0.8579242121530853E+00    0.2979540174134984E+01
    0.5000000000000000E+01   -0.1836846154397680E+01    0.3045064261640043E+01
    0.5000000000000000E+01    0.3508002863614053E+00    0.3428197553792836E+01
    0.5000000000000000E+01    0.5185680230613409E+00    0.4309693860063405E+01
    0.5000000000000000E+01    0.1738996113203182E+01    0.1827272193562204E+01
    0.5000000000000000E+01    0.1325493893339706E+01    0.2808563282768077E+01
    0.5000000000000000E+01   -0.8731419609589618E+00    0.1895995683864404E+01
    0.5000000000000000E+01    0.4906150219227333E-01    0.2273179336307740E+01
    0.0000000000000000E+00    0.1250000000000000E+01    0.5000000000000000E+01
    0.0000000000000000E+00    0.0000000000000000E+00    0.5000000000000000E+01
    0.0000000000000000E+00   -0.1250000000000000E+01    0.5000000000000000E+01
    0.0000000000000000E+00   -0.2496588899954337E+01    0.5000000000000000E+01
    0.1250000000000000E+01   -0.2496588899954337E+01    0.5000000000000000E+01
    0.2500000000000000E+01   -0.2496588899954337E+01    0.5000000000000000E+01
    0.3750000000000000E+01   -0.2496588899954337E+01    0.5000000000000000E+01
    0.4042003247744892E+01    0.1558308132739014E+01    0.5000000000000000E+01
    0.9304122287900499E+00   -0.1548001304379777E+01    0.5000000000000000E+01
    0.1037243024609388E+01    0.1462892710085612E+01    0.5000000000000000E+01
    0.3946240828834967E+01   -0.1445243809615570E+01    0.5000000000000000E+01
    0.4092527262848217E+01   -0.3455338993778935E+00    0.5000000000000000E+01
    0.4293103109154542E+01    0.6277660831404320E+00    0.5000000000000000E+01
    0.3241512314643519E+01    0.7429886854239611E+00    0.5000000000000000E+01
    0.2844289952419609E+01   -0.1588117879734118E+01    0.5000000000000000E+01
    0.7159905765450471E+00   -0.6002320124191652E+00    0.5000000000000000E+01
    0.1754341919796891E+01   -0.7398147869923652E+00    0.5000000000000000E+01
    0.1870296826774691E+01   -0.1788622905643739E+01    0.5000000000000000E+01
    0.9220614901912976E+00    0.3083720183248586E+00    0.5000000000000000E+01
    0.3101523624086016E+01    0.1777901774806180E+01    0.5000000000000000E+01
    0.2192512063922564E+01    0.1576861561598471E+01    0.5000000000000000E+01
    0.2024793420196460E+01    0.4773861992750707E+00    0.5000000000000000E+01
    0.2990627757741975E+01   -0.4878110785814084E+00    0.5000000000000000E+01
    0.0000000000000000E+00   -0.2496588899954337E+01    0.1250000000000000E+01
    0.0000000000000000E+00   -0.2496588899954337E+01    0.2500000000000000E+01
    0.0000000000000000E+00   -0.2496588899954337E+01    0.3750000000000000E+01
    0.0000000000000000E+00    0.1558308132739014E+01    0.4042003247744892E+01
    0.0000000000000000E+00   -0.1548001304379777E+01    0.9304122287900499E+00
    0.0000000000000000E+00    0.1462892710085612E+01    0.1037243024609388E+01
    0.0000000000000000E+00   -0.1445243809615570E+01    0.3946240828834967E+01
    0.0000000000000000E+00   -0.3455338993778935E+00    0.4092527262848217E+01
    0.0000000000000000E+00    0.6277660831404320E+00    0.4293103109154542E+01
    0.0000000000000000E+00    0.7429886854239611E+00    0.3241512314643519E+01
    0.0000000000000000E+00   -0.1588117879734118E+01    0.2844289952419609E+01
    0.0000000000000000E+00   -0.6002320124191652E+00    0.7159905765450471E+00
    0.0000000000000000E+00   -0.7398147869923652E+00    0.1754341919796891E+01
    0.0000000000000000E+00   -0.1788622905643739E+01    0.1870296826774691E+01
    0.0000000000000000E+00    0.3083720183248586E+00    0.9220614901912976E+00
    0.0000000000000000E+00    0.1777901774806180E+01    0.3101523624086016E+01
    0.0000000000000000E+00    0.1576861561598471E+01    0.2192512063922564E+01
[...]
POINT_DATA 213
SCALARS rho double 1
LOOKUP_TABLE default
   0.1219603814204376E+01
   0.9221843797916841E+00
   0.9104573198331080E+00
   0.8967078990663101E+00
   0.7819683788700644E+00
   0.7116530671700733E+00
   0.6990696739228983E+00
   0.7029374275523419E+00
   0.7687420883246506E+00
   0.8895338860621105E+00
   0.8987468832421776E+00
   0.9249648790521924E+00
   0.1300253825825426E+01
   0.1348038886136506E+01
   0.1456336352001627E+01
   0.1286725295041078E+01
   0.9619684991296260E+00
   0.9047695574022216E+00
   0.8972531236010391E+00
   0.9249278662106126E+00
   0.9126348453484158E+00
   0.9866014833047643E+00
   0.8974360069406584E+00
   0.8999786321700931E+00
   0.9067591535658135E+00
   0.9112596256367312E+00
   0.8943886076925096E+00
   0.9125983817421780E+00
   0.8902642466514955E+00
   0.9018729401698086E+00
   0.9063719488727995E+00
   0.8624007544843761E+00
   0.9078215227276937E+00
   0.9507490360037733E+00
   0.1008490334452973E+01
   0.1006987553242849E+01
   0.1000096063426852E+01
   0.1000460166035545E+01
   0.1001007520040454E+01
   0.1002474808266301E+01
   0.1001948152433469E+01
   0.1004885730752102E+01
   0.1016626516531986E+01
   0.1058308219647189E+01
   0.1005440370674590E+01
   0.1000006880872982E+01
   0.9458693624077559E+00
   0.1002042763148601E+01
   0.9982818203522306E+00
   0.1004493520359624E+01
   0.1005369460558945E+01
   0.9993154545370276E+00
   0.9978029957921053E+00
   0.9988097961822350E+00
   0.9987291587233009E+00
   0.9780910543830915E+00
   0.9796790822218097E+00
   0.9639537869225345E+00
   0.9601880071268499E+00
   0.9867967427370279E+00
   0.9922419305691105E+00
   0.1000302985935410E+01
   0.1000503686471618E+01
   0.1000652877057260E+01
   0.9998019871043127E+00
   0.1009788807394460E+01
   0.1007164006639631E+01
   0.9448303230028872E+00
   0.9034851553841549E+00
   0.1007039421644789E+01
   0.1004191093682989E+01
   0.8965313324751977E+00
   0.8926963283148267E+00
   0.8470710182356539E+00
   0.9708211696153821E+00
   0.1000179117993658E+01
   0.1006092547372324E+01
   0.1015640446474674E+01
   0.1012991941122088E+01
   0.1012869848714983E+01
   0.1005110651928144E+01
   0.9863541385062071E+00
   0.1006594277333810E+01
   0.9849618478767822E+00
   0.1008116399853520E+01
   0.1001905528850444E+01
   0.1000777296066476E+01
   0.1001301691480272E+01
   0.1001846484827622E+01
   0.1002352460000408E+01
   0.1000288228746914E+01
   0.1000187110439153E+01
   0.9997365590442167E+00
   0.1001751883394357E+01
   0.1001912586554109E+01
   0.9986467960536468E+00
   0.9995141569248825E+00
   0.9998813124938706E+00
   0.1000193456038132E+01
   0.1000451256083153E+01
   0.1001063556985373E+01
   0.1001470374196245E+01
   0.1001336949702450E+01
   0.1001534265725541E+01
   0.1000847822615810E+01
   0.1001347161029813E+01
   0.1001119925148602E+01
   0.1000547980779535E+01
   0.1060191617644858E+01
   0.1020436802585027E+01
   0.1005934432845260E+01
   0.1003467121863556E+01
   0.1142052607781883E+01
   0.1083375909592231E+01
   0.1004376826856206E+01
   0.1003908342793608E+01
   0.1003793742121464E+01
   0.1006678302328121E+01
   0.1012237998952227E+01
   0.1193115090987788E+01
   0.1028008155412711E+01
   0.1034782740577141E+01
   0.1169414105920851E+01
   0.1009876840655083E+01
   0.1023540970283927E+01
   0.1017119876722683E+01
   0.1007875325746524E+01
   0.1013906095470018E+01
   0.1000119028543780E+01
   0.9442630509946894E+00
   0.1003514237547635E+01
   0.9988694989178170E+00
   0.1006432643063369E+01
   0.1009139132219269E+01
   0.9979444617549307E+00
   0.9977833912763996E+00
   0.9961695629269559E+00
   0.9984747144351052E+00
   0.9810070424541730E+00
   0.9780772243138801E+00
   0.9479810208040692E+00
   0.9505447966876345E+00
   0.9878062585790738E+00
   0.9899256442663183E+00
   0.9925447463371525E+00
   0.9998161711996510E+00
   0.9986044702643169E+00
   0.9946524158951991E+00
   0.1006782418265018E+01
   0.1021196207668820E+01
   0.9980076983155682E+00
   0.1004786959010484E+01
   0.1001444524047457E+01
   0.1004868531111091E+01
   0.9952915937934436E+00
   0.9853999261901417E+00
   0.1000232264157209E+01
   0.9938965714992877E+00
   0.9819611371113789E+00
   0.9943479135369695E+00
   0.9968787246695975E+00
   0.9937011326349856E+00
   0.9987068169804614E+00
   0.1000042022720958E+01
   0.9996715903709988E+00
   0.9958464629865541E+00
   0.9933650050371857E+00
   0.1001383098472078E+01
   0.1018342763164479E+01
   0.1002763652396355E+01
   0.9806508135113898E+00
   0.1001879146158535E+01
   0.1008206569303968E+01
   0.9702353193478264E+00
   0.9431386342830053E+00
   0.9846821642981408E+00
   0.9843683075528625E+00
   0.9754759712217738E+00
   0.9908396345046513E+00
   0.9779138619451168E+00
   0.1033959917125595E+01
   0.1021654489141385E+01
   0.1000029331676707E+01
   0.9991788555481481E+00
   0.9918948097323340E+00
   0.9907248832644383E+00
   0.9573904796174201E+00
   0.9930428569924841E+00
   0.1006286850261263E+01
   0.1002041848568543E+01
   0.9896495993286656E+00
   0.9652829520416718E+00
   0.9203532897101517E+00
   0.9724313042656679E+00
   0.9781828842610275E+00
   0.9559882989039221E+00
   0.9617566371732148E+00
   0.9490307964931850E+00
   0.9367077927164246E+00
   0.9303365477041461E+00
   0.9992916565390875E+00
   0.9994683610647589E+00
   0.9988045328010535E+00
   0.1002022150452724E+01
   0.9391448486248241E+00
   0.9239546376238240E+00
   0.9359511068846038E+00
   0.9984186065166966E+00
   0.9983457347173719E+00
   0.1000457294438570E+01
   0.9793894730621624E+00
   0.9713543592726639E+00
   0.9447301341604468E+00
SCALARS u double 1
LOOKUP_TABLE default
   0.0000000000000000E+00
   0.0000000000000000E+00
   0.0000000000000000E+00
   0.0000000000000000E+00
   0.0000000000000000E+00
   0.0000000000000000E+00
   0.0000000000000000E+00
   0.0000000000000000E+00
   0.0000000000000000E+00
   0.0000000000000000E+00
   0.0000000000000000E+00
   0.0000000000000000E+00
   0.0000000000000000E+00
   0.0000000000000000E+00
   0.0000000000000000E+00
   0.0000000000000000E+00
   0.0000000000000000E+00
   0.0000000000000000E+00
   0.0000000000000000E+00
   0.0000000000000000E+00
   0.0000000000000000E+00
   0.0000000000000000E+00
   0.0000000000000000E+00
   0.0000000000000000E+00
   0.0000000000000000E+00
   0.0000000000000000E+00
   0.0000000000000000E+00
   0.0000000000000000E+00
   0.0000000000000000E+00
   0.0000000000000000E+00
   0.0000000000000000E+00
   0.0000000000000000E+00
   0.0000000000000000E+00
   0.5043859635784885E+00
   0.5290143589741517E+00
   0.5145293666188406E+00
   0.4931663514690737E+00
   0.4879159283379111E+00
   0.4911223730782305E+00
   0.4931935400594034E+00
   0.4982722373268577E+00
   0.4935686594872680E+00
   0.4788819287216731E+00
   0.4518415335229236E+00
   0.4750714006041082E+00
   0.5098345067882365E+00
   0.4511704801056463E+00
   0.4980821990871575E+00
   0.5232772077066524E+00
   0.4995160195454914E+00
   0.5240009477527270E+00
   0.5062567845736571E+00
   0.5622090011313875E+00
   0.5247365287174219E+00
   0.5014472180435021E+00
   0.5724186029388287E+00
   0.5706648251418567E+00
   0.3697690294919060E+00
   0.4030091437977458E+00
   0.5558997120993004E+00
   0.5550228641452276E+00
   0.4941241473353850E+00
   0.4945891209575473E+00
   0.4922127336533297E+00
   0.4916548715147556E+00
   0.5126636398914811E+00
   0.5320112090398603E+00
   0.5051780602447983E+00
   0.4699983933099380E+00
   0.5097116655938982E+00
   0.5089975902520963E+00
   0.4954863554513863E+00
   0.5091091632104096E+00
   0.4859829137445783E+00
   0.5290375194783848E+00
   0.5277010363410111E+00
   0.5095552977081564E+00
   0.5265106519893639E+00
   0.5256040091045040E+00
   0.5249429917380527E+00
   0.5039216231428971E+00
   0.5284311772342408E+00
   0.5353892972699087E+00
   0.5371604977365517E+00
   0.5324173535435998E+00
   0.4987621212701150E+00
   0.4995724298359646E+00
   0.4985672075698185E+00
   0.4978702917980684E+00
   0.4945026871817763E+00
   0.4945454481352033E+00
   0.4893308476595636E+00
   0.4880379437567717E+00
   0.4965578828343366E+00
   0.4946398737765461E+00
   0.4859513864842859E+00
   0.4895886234071450E+00
   0.4899450452540595E+00
   0.4910921845064580E+00
   0.4924938538569779E+00
   0.4981709278635444E+00
   0.4945799895877084E+00
   0.4947858062469190E+00
   0.4976217654627852E+00
   0.4906615129038413E+00
   0.4935434158009556E+00
   0.4927137909823516E+00
   0.4919484443564585E+00
   0.4513155627219039E+00
   0.4773800016256862E+00
   0.4929600145426273E+00
   0.4921839078302078E+00
   0.4645382528118458E+00
   0.4728925579106306E+00
   0.4915203611163542E+00
   0.4906735196794842E+00
   0.4940179300568432E+00
   0.4854913765653967E+00
   0.4731541017527907E+00
   0.4017666796165583E+00
   0.4925697125175790E+00
   0.4586131258404230E+00
   0.4595065394489789E+00
   0.4895082733697088E+00
   0.4701758716596883E+00
   0.4742341269628625E+00
   0.4816375684208573E+00
   0.4809654068551924E+00
   0.5082467203304022E+00
   0.4436626418096001E+00
   0.4960920679829540E+00
   0.5314855461112740E+00
   0.4949801162505400E+00
   0.5219260088023916E+00
   0.5081636846715079E+00
   0.5664256105369546E+00
   0.5269600219162891E+00
   0.5035455538625000E+00
   0.5834270573404219E+00
   0.5720015892789021E+00
   0.3408945950564466E+00
   0.3851894850557401E+00
   0.5717499742270032E+00
   0.5645152743800417E+00
   0.5689118541958563E+00
   0.5291656430418614E+00
   0.5449115213922836E+00
   0.5701736942852940E+00
   0.5404102645037553E+00
   0.5487718682433494E+00
   0.5790020131831871E+00
   0.4955235049376292E+00
   0.5065038947731697E+00
   0.4994479380870104E+00
   0.5533044483612237E+00
   0.4597887812874762E+00
   0.4983716591017430E+00
   0.5489845462441039E+00
   0.5894137497589087E+00
   0.5821726096531545E+00
   0.5457305280006022E+00
   0.5784917190869334E+00
   0.5122194390884323E+00
   0.5055189856941593E+00
   0.5049091408715531E+00
   0.5645366789786679E+00
   0.5552329809949352E+00
   0.4977582846174882E+00
   0.5488140133715991E+00
   0.5486822141299020E+00
   0.5643293658604454E+00
   0.4955079392849542E+00
   0.4958771519920649E+00
   0.3908605688364651E+00
   0.3726106330189442E+00
   0.5584708032591320E+00
   0.5739307271586960E+00
   0.4177349310873649E+00
   0.5812879635071557E+00
   0.4186133556991414E+00
   0.5391913361332927E+00
   0.4993294980797616E+00
   0.5114136000554751E+00
   0.5070294372586165E+00
   0.5732452149637749E+00
   0.5857673052231661E+00
   0.5447951711307986E+00
   0.5656988227877685E+00
   0.5320717322712007E+00
   0.5310558053769313E+00
   0.5561836880922340E+00
   0.5551722076515296E+00
   0.4400873953294569E+00
   0.5282756900881749E+00
   0.5807100486212858E+00
   0.3397439083460035E+00
   0.4812105530005908E+00
   0.5510160410322148E+00
   0.4924426844754625E+00
   0.3108942973696846E+00
   0.5051844679322038E+00
   0.5043640823911832E+00
   0.5129785842675301E+00
   0.5386254809571207E+00
   0.3519841456497738E+00
   0.3560903322044474E+00
   0.3308100229186353E+00
   0.5084682322186490E+00
   0.5125925136026844E+00
   0.5314812260051593E+00
   0.5857902108189773E+00
   0.4640820033475081E+00
   0.3627705474907076E+00
SCALARS v double 1
LOOKUP_TABLE default
   0.0000000000000000E+00
   0.0000000000000000E+00
   0.0000000000000000E+00
   0.0000000000000000E+00
   0.0000000000000000E+00
   0.0000000000000000E+00
   0.0000000000000000E+00
   0.0000000000000000E+00
   0.0000000000000000E+00
   0.0000000000000000E+00
   0.0000000000000000E+00
   0.0000000000000000E+00
   0.0000000000000000E+00
   0.0000000000000000E+00
   0.0000000000000000E+00
   0.0000000000000000E+00
   0.0000000000000000E+00
   0.0000000000000000E+00
   0.0000000000000000E+00
   0.0000000000000000E+00
   0.0000000000000000E+00
   0.0000000000000000E+00
   0.0000000000000000E+00
   0.0000000000000000E+00
   0.0000000000000000E+00
   0.0000000000000000E+00
   0.0000000000000000E+00
   0.0000000000000000E+00
   0.0000000000000000E+00
   0.0000000000000000E+00
   0.0000000000000000E+00
   0.0000000000000000E+00
   0.0000000000000000E+00
   0.0000000000000000E+00
   0.0000000000000000E+00
   0.0000000000000000E+00
   0.0000000000000000E+00
   0.0000000000000000E+00
   0.0000000000000000E+00
   0.0000000000000000E+00
   0.0000000000000000E+00
   0.0000000000000000E+00
   0.0000000000000000E+00
   0.0000000000000000E+00
   0.0000000000000000E+00
   0.0000000000000000E+00
   0.0000000000000000E+00
   0.0000000000000000E+00
   0.0000000000000000E+00
   0.0000000000000000E+00
   0.0000000000000000E+00
   0.0000000000000000E+00
   0.0000000000000000E+00
   0.0000000000000000E+00
   0.0000000000000000E+00
   0.0000000000000000E+00
   0.0000000000000000E+00
   0.0000000000000000E+00
   0.0000000000000000E+00
   0.0000000000000000E+00
   0.0000000000000000E+00
   0.6502953462477649E-03
  -0.1407503439012364E-02
  -0.1400376545314443E-02
   0.0000000000000000E+00
   0.0000000000000000E+00
   0.0000000000000000E+00
   0.0000000000000000E+00
  -0.1869226912551769E-01
   0.2789946214169983E-03
   0.2205759510712335E-02
   0.1489021188746921E-01
  -0.5378049209776455E-02
  -0.6637880571148834E-02
  -0.1142063317947531E-01
   0.4787329198798356E-02
   0.5352308772713199E-03
   0.3202031568172326E-02
   0.1534664893156179E-02
   0.3478745048142232E-02
   0.1706682109667913E-02
  -0.6362506857734465E-02
   0.7641767111077372E-03
   0.4864077255040389E-02
   0.6186939956024780E-03
   0.7637928470217948E-04
  -0.1733655304021513E-03
   0.6184759824245398E-03
   0.0000000000000000E+00
   0.0000000000000000E+00
   0.0000000000000000E+00
   0.0000000000000000E+00
   0.1205244466625490E-03
   0.1438289807533270E-02
  -0.1119195276546113E-02
  -0.9271244736258121E-03
  -0.2117131147234074E-02
  -0.1233296204430725E-02
  -0.9266664724766945E-03
  -0.6314017080249896E-03
  -0.1695680154288434E-04
  -0.5217154013925325E-03
   0.7299300165370217E-03
  -0.1572625910823698E-02
   0.7141292735206923E-04
  -0.1457374402870754E-03
  -0.8851221567022072E-03
  -0.8973213330839335E-03
   0.0000000000000000E+00
   0.0000000000000000E+00
   0.0000000000000000E+00
  -0.1087159320053448E-02
  -0.8504387707883471E-02
   0.1569086258167293E-01
   0.2158461287560792E-03
  -0.1054245542900308E-02
  -0.1671747145517267E-02
  -0.5287523738430798E-02
  -0.1242358437655090E-02
  -0.3704912195728522E-02
  -0.3037998168189331E-02
   0.2128483016827548E-02
   0.2880736579299390E-01
  -0.1745724665717477E-03
  -0.4260330593531550E-02
   0.2496531059911254E-02
   0.9497033485836742E-03
   0.0000000000000000E+00
   0.0000000000000000E+00
   0.0000000000000000E+00
   0.0000000000000000E+00
   0.0000000000000000E+00
   0.0000000000000000E+00
   0.0000000000000000E+00
   0.0000000000000000E+00
   0.0000000000000000E+00
   0.0000000000000000E+00
   0.0000000000000000E+00
   0.0000000000000000E+00
   0.0000000000000000E+00
   0.0000000000000000E+00
   0.0000000000000000E+00
   0.0000000000000000E+00
   0.0000000000000000E+00
   0.4678144679928282E-02
   0.2762867126701855E-02
   0.6902121942889996E-02
   0.5630346563938550E-02
   0.8689145238058783E-02
   0.1244164547317633E-01
   0.4853610516601851E-03
   0.4362198734824733E-02
   0.2413458541351716E-02
   0.2334413749026073E-02
   0.3179607684063879E-02
  -0.1060452731355776E-01
  -0.4897537723707068E-03
   0.6050070331445154E-02
   0.2602097150338890E-02
   0.2280224129417358E-02
   0.3851114668155005E-02
  -0.2005117584418007E-02
   0.9226995223528174E-03
   0.2375997365577484E-02
   0.1154485946304844E-02
   0.2699027074197502E-02
   0.1747072825562233E-02
   0.1803164945726523E-02
   0.8004648854242539E-02
  -0.3379934747233512E-02
   0.5469906497988598E-02
   0.6948491591964385E-04
  -0.3805465801780579E-04
  -0.1330523865614935E-01
  -0.3297409590883602E-02
  -0.3548297979041179E-02
   0.3677219687605740E-02
  -0.3998823843783876E-02
   0.8930534908137775E-03
  -0.2588898682444639E-01
  -0.3071229760674498E-02
   0.4170539368851281E-02
   0.7145202951332764E-03
   0.1828233270199547E-02
   0.4445839612865941E-02
   0.2301146317404457E-02
   0.3387164592323964E-02
   0.5068850970111293E-02
   0.1858051541864109E-02
   0.5819787033332246E-03
  -0.3370848901783579E-03
  -0.4622085274110870E-02
  -0.5504816848941752E-02
   0.4414226040379493E-03
   0.9504718923911951E-03
  -0.7263285870057545E-03
  -0.3864361827932159E-02
  -0.1213855595575519E-02
  -0.3665282599185152E-02
  -0.6903276242071130E-02
  -0.1717566613886679E-02
   0.5423206422503035E-03
  -0.3574827690516835E-03
   0.1118626733215081E-02
  -0.1849801630397946E-02
   0.6946343092592094E-02
  -0.9776831251702648E-02
  -0.1671118751694385E-04
  -0.4125850988314169E-03
   0.2413816620208716E-02
   0.1122186825540127E-02
   0.1300751040490812E-02
  -0.3837202584314071E-02
SCALARS w double 1
LOOKUP_TABLE default
   0.0000000000000000E+00
   0.0000000000000000E+00
   0.0000000000000000E+00
   0.0000000000000000E+00
   0.0000000000000000E+00
   0.0000000000000000E+00
   0.0000000000000000E+00
   0.0000000000000000E+00
   0.0000000000000000E+00
   0.0000000000000000E+00
   0.0000000000000000E+00
   0.0000000000000000E+00
   0.0000000000000000E+00
   0.0000000000000000E+00
   0.0000000000000000E+00
   0.0000000000000000E+00
   0.0000000000000000E+00
   0.0000000000000000E+00
   0.0000000000000000E+00
   0.0000000000000000E+00
   0.0000000000000000E+00
   0.0000000000000000E+00
   0.0000000000000000E+00
   0.0000000000000000E+00
   0.0000000000000000E+00
   0.0000000000000000E+00
   0.0000000000000000E+00
   0.0000000000000000E+00
   0.0000000000000000E+00
   0.0000000000000000E+00
   0.0000000000000000E+00
   0.0000000000000000E+00
   0.0000000000000000E+00
  -0.1144569991629919E+00
  -0.5028539872859198E-01
  -0.2203976808764466E-02
   0.5094517366912042E-02
  -0.7244733340981030E-03
  -0.6217885148946351E-03
   0.5782107847925577E-03
   0.1147789354267812E-02
   0.2410806459866557E-03
   0.3421816461051201E-02
   0.3885323195907011E-01
   0.5360271583381769E-01
  -0.1488176891024085E-02
  -0.2792945747995538E-01
   0.2077732176450341E-02
   0.1060383745940205E-01
   0.8041839292331944E-02
   0.4393951832785280E-01
  -0.4024819412608659E-03
  -0.1057949819881282E-01
  -0.3669339331028549E-02
  -0.2114031811698073E-02
   0.4779856565529935E-03
  -0.4610135323328836E-01
   0.1623424847814916E-01
   0.1240369415189706E-01
   0.2994348501684988E-01
   0.5081723602818011E-02
   0.4339624879110934E-02
   0.4396693463799125E-02
   0.4023470272741978E-02
   0.5481499544962404E-02
  -0.1668294267489845E-03
  -0.4835287530843874E-01
  -0.1122048460474737E+00
  -0.1279616264503787E+00
   0.2795133231089964E-02
   0.1958561997466306E-02
  -0.1150566002697409E+00
  -0.1132649905302341E+00
  -0.1132311195046335E+00
  -0.1072555022527521E+00
  -0.7747980639530296E-01
   0.3045054601153820E-02
  -0.2451368423358831E-01
  -0.2042296911225426E-01
  -0.9920722948940927E-02
   0.5271348704597110E-02
  -0.9128645063199582E-01
  -0.3406223521385644E-01
  -0.9177240622139828E-01
  -0.6775005664974672E-01
   0.1811393898064494E-02
   0.1567505343248452E-02
   0.1436566254872880E-02
   0.2121967220708251E-02
   0.1363996226057145E-02
  -0.1245484461023528E-02
  -0.1480399912090555E-02
   0.1128903922736931E-02
   0.2221220290410868E-02
   0.1201140218139074E-02
  -0.7423145341651568E-04
   0.1758699099554211E-03
   0.8323881997996355E-03
  -0.1602342650550459E-02
  -0.1947667554687998E-02
   0.1975022527580823E-02
  -0.4610265776618194E-04
  -0.4303458833583769E-03
   0.2230400424807163E-02
  -0.1095711566995054E-02
  -0.1929560052609332E-03
  -0.4988457420908096E-03
  -0.1820929379187751E-02
   0.6878936757754421E-01
   0.2326169851050109E-02
  -0.1106858649564241E-02
  -0.7949937595681633E-03
   0.1156146274796555E+00
   0.1039066371699971E+00
  -0.1757308702181166E-02
  -0.4421470796858888E-02
  -0.7507644742338900E-03
  -0.7085409447533746E-02
  -0.2646835542228554E-02
   0.1269945850957018E+00
   0.6359911552729974E-01
   0.2236899674241916E-01
   0.1353398652012810E+00