# vtk DataFile Version 2.0
FUN3D:global_image_vtk
ASCII
DATASET UNSTRUCTURED_GRID
POINTS 213 double
   -0.5474238059504603E-02    0.2504942121173606E+01    0.8105550996138860E-04
    0.1245420063214956E+01    0.2504942121173606E+01    0.1051110799572809E-03
    0.2497696576329003E+01    0.2504942121173606E+01    0.1107916248165164E-03
    0.3750591986574023E+01    0.2504942121173606E+01    0.1368046305401372E-03
    0.5003221880247612E+01    0.2504942121173606E+01    0.9733523344461431E-04
    0.5004677745410214E+01    0.1281291877273527E+01    0.1649128333390527E-03
    0.5004773223164809E+01    0.2775194235895190E-01    0.1909167401678425E-03
    0.5003582213732991E+01   -0.1225852894964910E+01    0.1618071321506643E-03
    0.5001953045688033E+01   -0.2496588899954337E+01    0.1087184661237440E-03
    0.3750349114452023E+01   -0.2496588899954337E+01    0.1468710028767740E-03
    0.2498611955860786E+01   -0.2496588899954337E+01    0.1013914036254582E-03
    0.1247176253529147E+01   -0.2496588899954337E+01    0.1118597702464409E-03
   -0.3383478115785169E-02   -0.2496588899954337E+01    0.8157707488508309E-04
   -0.4256799575230425E-02   -0.1225734204378883E+01    0.3520054752117929E-04
   -0.5251137157060341E-02    0.2619598345569628E-01    0.1044613540432249E-03
   -0.5675113931366800E-02    0.1278222211771627E+01    0.8337742971856088E-04
    0.9003214086382191E+00    0.1608980275733105E+01    0.8768012080222159E-04
    0.3983173220881041E+01   -0.1561211296856023E+01    0.1767351954316810E-03
    0.4035602566125262E+01    0.1486761229513980E+01    0.1719506678095473E-03
    0.1036614696945808E+01   -0.1455625819023465E+01    0.1057538994854991E-03
    0.1094353938944835E+01   -0.2964610713744223E+00    0.1266326919438921E-03
    0.7298409754953697E+00    0.6874691188446063E+00    0.1055682047596808E-03
    0.1617019110904462E+01    0.8553219657949420E+00    0.1535917835092516E-03
    0.2143200645120234E+01   -0.1627127901290524E+01    0.1616433273473873E-03
    0.4088840970379843E+01   -0.4351036471404206E+00    0.2725522799659064E-03
    0.2977917500432660E+01   -0.8334985271277852E+00    0.2256092970106250E-03
    0.3044093736197656E+01   -0.1814360118269820E+01    0.1622179478026198E-03
    0.3427867617085304E+01    0.3813911574464904E+00    0.2947830712452794E-03
    0.4313225896320023E+01    0.5489145083257441E+00    0.2318893475642814E-03
    0.1823033699632841E+01    0.1771265881755795E+01    0.1847610807679524E-03
    0.2806311635978372E+01    0.1358630571504235E+01    0.1949713312552748E-03
    0.1891861844560957E+01   -0.8481304128925676E+00    0.1681170219251228E-03
    0.2268769663417530E+01    0.7723807075737756E-01    0.2078128221064535E-03
    0.5000000000000000E+01    0.2504942121173606E+01    0.1250000000000000E+01
    0.5000000000000000E+01    0.2504942121173606E+01    0.2500000000000000E+01
    0.5000000000000000E+01    0.2504942121173606E+01    0.3750000000000000E+01
    0.5000000000000000E+01    0.2504942121173606E+01    0.5000000000000000E+01
    0.3750000000000000E+01    0.2504942121173606E+01    0.5000000000000000E+01
    0.2500000000000000E+01    0.2504942121173606E+01    0.5000000000000000E+01
    0.1250000000000000E+01    0.2504942121173606E+01    0.5000000000000000E+01
    0.0000000000000000E+00    0.2504942121173606E+01    0.5000000000000000E+01
    0.0000000000000000E+00    0.2504942121173606E+01    0.3750000000000000E+01
    0.0000000000000000E+00    0.2504942121173606E+01    0.2500000000000000E+01
    0.0000000000000000E+00    0.2504942121173606E+01    0.1250000000000000E+01
    0.9588960232678366E+00    0.2504942121173606E+01    0.9696535532560123E+00
    0.3981953158675399E+01    0.2504942121173606E+01    0.4070564028128235E+01
    0.4036122731989218E+01    0.2504942121173606E+01    0.1017568485776355E+01
    0.9637572610381538E+00    0.2504942121173606E+01    0.3973598359643718E+01
    0.1546540203381565E+01    0.2504942121173606E+01    0.2931570647607446E+01
    0.6973799401951976E+00    0.2504942121173606E+01    0.3070320208910558E+01
    0.8903742641014867E+00    0.2504942121173606E+01    0.2056562761496198E+01
    0.2183042030268336E+01    0.2504942121173606E+01    0.3960694715225206E+01
    0.3855845062374691E+01    0.2504942121173606E+01    0.2933250999658541E+01
    0.3152611483537013E+01    0.2504942121173606E+01    0.3637668731320943E+01
    0.3103307439881851E+01    0.2504942121173606E+01    0.4332607988887994E+01
    0.3266711411018350E+01    0.2504942121173606E+01    0.1889657368794829E+01
    0.4232537829854345E+01    0.2504942121173606E+01    0.1918627448997642E+01
    0.1905523002123984E+01    0.2504942121173606E+01    0.7226301643477123E+00
    0.2879768331147496E+01    0.2504942121173606E+01    0.9080955730319548E+00
    0.2012711713120237E+01    0.2504942121173606E+01    0.1767083234625423E+01
    0.2669681657745519E+01    0.2504942121173606E+01    0.2853394900149152E+01
    0.5000000000000000E+01    0.1250000000000000E+01    0.5000000000000000E+01
    0.5000000000000000E+01    0.0000000000000000E+00    0.5000000000000000E+01
    0.5000000000000000E+01   -0.1250000000000000E+01    0.5000000000000000E+01
    0.5000000000000000E+01   -0.2496588899954337E+01    0.5000000000000000E+01
    0.5000000000000000E+01   -0.2496588899954337E+01    0.3750000000000000E+01
    0.5000000000000000E+01   -0.2496588899954337E+01    0.2500000000000000E+01
    0.5000000000000000E+01   -0.2496588899954337E+01    0.1250000000000000E+01
    0.5000000000000000E+01    0.1578994732800803E+01    0.9058375365086910E+00
    0.5000000000000000E+01   -0.1583989954232354E+01    0.3982050490726493E+01
    0.5000000000000000E+01    0.1453322699199022E+01    0.4033849428301197E+01
    0.5000000000000000E+01   -0.1479596339503735E+01    0.1040505887381675E+01
    0.5000000000000000E+01   -0.3227322616384110E+00    0.1099454400140349E+01
    0.5000000000000000E+01    0.6593508822075582E+00    0.7354504170366591E+00
    0.5000000000000000E+01    0.8256214013940779E+00    0.1622302608453282E+01
    0.5000000000000000E+01   -0.1650070333782557E+01    0.2145871574390382E+01
    0.5000000000000000E+01   -0.4612828702537229E+00    0.4086422318222992E+01
    0.5000000000000000E+01   -0.8579242121530853E+00    0.2979540174134984E+01
    0.5000000000000000E+01   -0.1836846154397680E+01    0.3045064261640043E+01
    0.5000000000000000E+01    0.3508002863614053E+00    0.3428197553792836E+01
    0.5000000000000000E+01    0.5185680230613409E+00    0.4309693860063405E+01
    0.5000000000000000E+01    0.1738996113203182E+01    0.1827272193562204E+01
    0.5000000000000000E+01    0.1325493893339706E+01    0.2808563282768077E+01
    0.5000000000000000E+01   -0.8731419609589618E+00    0.1895995683864404E+01
    0.5000000000000000E+01    0.4906150219227333E-01    0.2273179336307740E+01
    0.0000000000000000E+00    0.1250000000000000E+01    0.5000000000000000E+01
    0.0000000000000000E+00    0.0000000000000000E+00    0.5000000000000000E+01
    0.0000000000000000E+00   -0.1250000000000000E+01    0.5000000000000000E+01
    0.0000000000000000E+00   -0.2496588899954337E+01    0.5000000000000000E+01
    0.1250000000000000E+01   -0.2496588899954337E+01    0.5000000000000000E+01
    0.2500000000000000E+01   -0.2496588899954337E+01    0.5000000000000000E+01
    0.3750000000000000E+01   -0.2496588899954337E+01    0.5000000000000000E+01
    0.4042003247744892E+01    0.1558308132739014E+01    0.5000000000000000E+01
    0.9304122287900499E+00   -0.1548001304379777E+01    0.5000000000000000E+01
    0.1037243024609388E+01    0.1462892710085612E+01    0.5000000000000000E+01
    0.3946240828834967E+01   -0.1445243809615570E+01    0.5000000000000000E+01
    0.4092527262848217E+01   -0.3455338993778935E+00    0.5000000000000000E+01
    0.4293103109154542E+01    0.6277660831404320E+00    0.5000000000000000E+01
    0.3241512314643519E+01    0.7429886854239611E+00    0.5000000000000000E+01
    0.2844289952419609E+01   -0.1588117879734118E+01    0.5000000000000000E+01
    0.7159905765450471E+00   -0.6002320124191652E+00    0.5000000000000000E+01
    0.1754341919796891E+01   -0.7398147869923652E+00    0.5000000000000000E+01
    0.1870296826774691E+01   -0.1788622905643739E+01    0.5000000000000000E+01
    0.9220614901912976E+00    0.3083720183248586E+00    0.5000000000000000E+01
    0.3101523624086016E+01    0.1777901774806180E+01    0.5000000000000000E+01
    0.2192512063922564E+01    0.1576861561598471E+01    0.5000000000000000E+01
    0.2024793420196460E+01    0.4773861992750707E+00    0.5000000000000000E+01
    0.2990627757741975E+01   -0.4878110785814084E+00    0.5000000000000000E+01
    0.0000000000000000E+00   -0.2496588899954337E+01    0.1250000000000000E+01
    0.0000000000000000E+00   -0.2496588899954337E+01    0.2500000000000000E+01
    0.0000000000000000E+00   -0.2496588899954337E+01    0.3750000000000000E+01
    0.0000000000000000E+00    0.1558308132739014E+01    0.4042003247744892E+01
    0.0000000000000000E+00   -0.1548001304379777E+01    0.9304122287900499E+00
    0.0000000000000000E+00    0.1462892710085612E+01    0.1037243024609388E+01
    0.0000000000000000E+00   -0.1445243809615570E+01    0.3946240828834967E+01
    0.0000000000000000E+00   -0.3455338993778935E+00    0.4092527262848217E+01
    0.0000000000000000E+00    0.6277660831404320E+00    0.4293103109154542E+01
    0.0000000000000000E+00    0.7429886854239611E+00    0.3241512314643519E+01
    0.0000000000000000E+00   -0.1588117879734118E+01    0.2844289952419609E+01
    0.0000000000000000E+00   -0.6002320124191652E+00    0.7159905765450471E+00
    0.0000000000000000E+00   -0.7398147869923652E+00    0.1754341919796891E+01
    0.0000000000000000E+00   -0.1788622905643739E+01    0.1870296826774691E+01
    0.0000000000000000E+00    0.3083720183248586E+00    0.9220614901912976E+00
    0.0000000000000000E+00    0.1777901774806180E+01    0.3101523624086016E+01
    0.0000000000000000E+00    0.1576861561598471E+01    0.2192512063922564E+01
[...]
POINT_DATA 213
SCALARS rho double 1
LOOKUP_TABLE default
   0.1219599847328914E+01
   0.9221794058829483E+00
   0.9104476022138975E+00
   0.8966768251002553E+00
   0.7819488797801663E+00
   0.7116573731553835E+00
   0.6990710581390556E+00
   0.7029547332474894E+00
   0.7687354998031806E+00
   0.8895233151692258E+00
   0.8987463242578486E+00
   0.9249601612740677E+00
   0.1300246625474585E+01
   0.1348040337874385E+01
   0.1456337811714441E+01
   0.1286719272032361E+01
   0.9619641717455643E+00
   0.9047653821842085E+00
   0.8972301344693122E+00
   0.9249192643128843E+00
   0.9126331847841231E+00
   0.9866006459574732E+00
   0.8974308226209958E+00
   0.8999717064776902E+00
   0.9067475461200835E+00
   0.9112478018730872E+00
   0.8943866254746888E+00
   0.9125850844681958E+00
   0.8902529732084312E+00
   0.9018652373106029E+00
   0.9063596966336982E+00
   0.8623951208006094E+00
   0.9078065531983059E+00
   0.9506821658264820E+00
   0.1008490981484331E+01
   0.1006976759604767E+01
   0.1000145908106590E+01
   0.1000492867754180E+01
   0.1001010367813757E+01
   0.1002467256251301E+01
   0.1001944765530274E+01
   0.1004886098331373E+01
   0.1016625229737415E+01
   0.1058313577189117E+01
   0.1005436810052721E+01
   0.1000007367967124E+01
   0.9457700116479328E+00
   0.1002042271040483E+01
   0.9982829477745544E+00
   0.1004492521980796E+01
   0.1005371620305456E+01
   0.9993111957381118E+00
   0.9978002655248226E+00
   0.9988040146771379E+00
   0.9987211948646484E+00
   0.9780928879479224E+00
   0.9796706119435920E+00
   0.9639504552785720E+00
   0.9601301107916947E+00
   0.9867991678812855E+00
   0.9922400499720412E+00
   0.1000342976883311E+01
   0.1000541450464364E+01
   0.1000671132693772E+01
   0.9998284136668172E+00
   0.1009782299617113E+01
   0.1007174226433516E+01
   0.9448363251515269E+00
   0.9034576473044003E+00
   0.1007039899884049E+01
   0.1004193124995789E+01
   0.8965165398187973E+00
   0.8926680333476069E+00
   0.8470449578341466E+00
   0.9708428976472117E+00
   0.1000202436724982E+01
   0.1006091578055550E+01
   0.1015639766118204E+01
   0.1012987276012707E+01
   0.1012861698415572E+01
   0.1005118613079338E+01
   0.9863622630585483E+00
   0.1006593490637531E+01
   0.9849764753003342E+00
   0.1008140577021762E+01
   0.1001902606762263E+01
   0.1000777963010892E+01
   0.1001300678501175E+01
   0.1001842923599127E+01
   0.1002348925293708E+01
   0.1000286868720234E+01
   0.1000192913045734E+01
   0.9997755912519261E+00
   0.1001746393751418E+01
   0.1001907943428439E+01
   0.9986523960432512E+00
   0.9995364894064286E+00
   0.9999232338566886E+00
   0.1000198765518611E+01
   0.1000442939592897E+01
   0.1001058840909460E+01
   0.1001457790994875E+01
   0.1001331326784297E+01
   0.1001525817231288E+01
   0.1000861175313642E+01
   0.1001344303716823E+01
   0.1001108533942549E+01
   0.1000543852134780E+01
   0.1060180617752981E+01
   0.1020434860589036E+01
   0.1005937368106081E+01
   0.1003463834302156E+01
   0.1142067406625613E+01
   0.1083370546394337E+01
   0.1004378518375041E+01
   0.1003909103929354E+01
   0.1003789602170081E+01
   0.1006675433928036E+01
   0.1012240643202600E+01
   0.1193114811429216E+01
   0.1028000796710945E+01
   0.1034785391640572E+01
   0.1169417193264142E+01
   0.1009874388389502E+01
   0.1023546154041532E+01
   0.1017121970421468E+01
   0.1007875022970348E+01
   0.1013904373655810E+01
   0.1000120418634493E+01
   0.9442367417324324E+00
   0.1003512213706991E+01
   0.9988676218486395E+00
   0.1006433379429666E+01
   0.1009136817055500E+01
   0.9979418388929170E+00
   0.9977846781476241E+00
   0.9961676187233705E+00
   0.9984778139065585E+00
   0.9810175218275744E+00
   0.9780877491817574E+00
   0.9479693444938367E+00
   0.9505423761057680E+00
   0.9877989959041438E+00
   0.9899199047795200E+00
   0.9925444319445910E+00
   0.9998150142216363E+00
   0.9986044228532098E+00
   0.9946495905347543E+00
   0.1006783296200984E+01
   0.1021195787488545E+01
   0.9979991438160409E+00
   0.1004785936415589E+01
   0.1001443252698214E+01
   0.1004870016025442E+01
   0.9952898755710656E+00
   0.9853957206020360E+00
   0.1000226005432326E+01
   0.9938930093951046E+00
   0.9819631277387334E+00
   0.9943515123259381E+00
   0.9968775124993395E+00
   0.9937161304808023E+00
   0.9987031064089344E+00
   0.1000033242056009E+01
   0.9996686256200323E+00
   0.9958480415126151E+00
   0.9933618021980349E+00
   0.1001379812093505E+01
   0.1018342564314753E+01
   0.1002761159239517E+01
   0.9806466549531809E+00
   0.1001874256719139E+01
   0.1008205820120710E+01
   0.9702345875542734E+00
   0.9431323785609753E+00
   0.9846786244948632E+00
   0.9843645533556359E+00
   0.9754696395261785E+00
   0.9908380286788933E+00
   0.9779133238322926E+00
   0.1033958399193056E+01
   0.1021656809015566E+01
   0.1000033003594633E+01
   0.9991734263248251E+00
   0.9919055309459883E+00
   0.9907248469474005E+00
   0.9574014470120363E+00
   0.9930506894499966E+00
   0.1006289132936875E+01
   0.1002044037296624E+01
   0.9896477851414700E+00
   0.9652799764878693E+00
   0.9203406739367369E+00
   0.9724368585811873E+00
   0.9781836941241218E+00
   0.9559726742709492E+00
   0.9617645522363660E+00
   0.9490309777934238E+00
   0.9366912156302118E+00
   0.9303104428312180E+00
   0.9992919116710095E+00
   0.9994619460587872E+00
   0.9988025026849056E+00
   0.1002017073512443E+01
   0.9391477751828979E+00
   0.9239054545563349E+00
   0.9359217308649233E+00
   0.9984137870391979E+00
   0.9983444517807309E+00
   0.1000450519095267E+01
   0.9793848401498078E+00
   0.9713545770544225E+00
   0.9447096424441418E+00
SCALARS u double 1
LOOKUP_TABLE default
   0.0000000000000000E+00
   0.0000000000000000E+00
   0.0000000000000000E+00
   0.0000000000000000E+00
   0.0000000000000000E+00
   0.0000000000000000E+00
   0.0000000000000000E+00
   0.0000000000000000E+00
   0.0000000000000000E+00
   0.0000000000000000E+00
   0.0000000000000000E+00
   0.0000000000000000E+00
   0.0000000000000000E+00
   0.0000000000000000E+00
   0.0000000000000000E+00
   0.0000000000000000E+00
   0.0000000000000000E+00
   0.0000000000000000E+00
   0.0000000000000000E+00
   0.0000000000000000E+00
   0.0000000000000000E+00
   0.0000000000000000E+00
   0.0000000000000000E+00
   0.0000000000000000E+00
   0.0000000000000000E+00
   0.0000000000000000E+00
   0.0000000000000000E+00
   0.0000000000000000E+00
   0.0000000000000000E+00
   0.0000000000000000E+00
   0.0000000000000000E+00
   0.0000000000000000E+00
   0.0000000000000000E+00
   0.5044656903981725E+00
   0.5290124930419443E+00
   0.5144832572911375E+00
   0.4932265017001586E+00
   0.4881035012765844E+00
   0.4912132747426295E+00
   0.4932012166379280E+00
   0.4982359617728794E+00
   0.4935755422819494E+00
   0.4788817863086156E+00
   0.4518340336700509E+00
   0.4750762525899843E+00
   0.5097784007486588E+00
   0.4511936249291586E+00
   0.4980813360592307E+00
   0.5232695211731211E+00
   0.4995198830535943E+00
   0.5239976506052952E+00
   0.5062462138453511E+00
   0.5621720071315455E+00
   0.5246973149725196E+00
   0.5014415373184145E+00
   0.5724415335638033E+00
   0.5707004861063486E+00
   0.3697809147332474E+00
   0.4030359400029371E+00
   0.5559039502517668E+00
   0.5550071819471324E+00
   0.4941866650667380E+00
   0.4946225565987905E+00
   0.4922550862781538E+00
   0.4916952747437128E+00
   0.5126203631786801E+00
   0.5320037788135094E+00
   0.5051851625304796E+00
   0.4700274067098633E+00
   0.5096958299810360E+00
   0.5089633501799209E+00
   0.4955096564955307E+00
   0.5091188830143494E+00
   0.4859970910602247E+00
   0.5290197060877090E+00
   0.5276939232846798E+00
   0.5095384273638467E+00
   0.5265023598508933E+00
   0.5255836758270881E+00
   0.5249264251172179E+00
   0.5039105664233962E+00
   0.5284460063773244E+00
   0.5353830962954825E+00
   0.5371546784765413E+00
   0.5324039289522201E+00
   0.4987533150743882E+00
   0.4995693369483545E+00
   0.4985678139370152E+00
   0.4978564012346034E+00
   0.4945363857937339E+00
   0.4946354305939784E+00
   0.4894932224022216E+00
   0.4881854190489643E+00
   0.4965709397757605E+00
   0.4946579517673411E+00
   0.4860622945633323E+00
   0.4896816146709811E+00
   0.4900401266289690E+00
   0.4911767803617835E+00
   0.4926166693329670E+00
   0.4981835109475866E+00
   0.4946289712240366E+00
   0.4948395049684043E+00
   0.4976378124739568E+00
   0.4907933211661233E+00
   0.4936012185505482E+00
   0.4927628989755208E+00
   0.4920515022132697E+00
   0.4513309363045270E+00
   0.4773809535964103E+00
   0.4929577584575120E+00
   0.4922016469186585E+00
   0.4645164809367334E+00
   0.4729120201248727E+00
   0.4915211041518319E+00
   0.4906741972585740E+00
   0.4940153722179953E+00
   0.4854929932458499E+00
   0.4731445423363775E+00
   0.4017685471900253E+00
   0.4925810694405652E+00
   0.4586089220905099E+00
   0.4595049385639849E+00
   0.4895104425761114E+00
   0.4701583226224768E+00
   0.4742234730781403E+00
   0.4816343180283367E+00
   0.4809632103271154E+00
   0.5081955858807712E+00
   0.4436620753428192E+00
   0.4960916971667094E+00
   0.5314783312835070E+00
   0.4949806814815881E+00
   0.5219301812089002E+00
   0.5081293875021287E+00
   0.5664001800935866E+00
   0.5269142316678743E+00
   0.5035387254424114E+00
   0.5834535547901201E+00
   0.5720240708532215E+00
   0.3408860850616388E+00
   0.3851958193981178E+00
   0.5717595527736234E+00
   0.5645095919122675E+00
   0.5689243656796376E+00
   0.5291696344229376E+00
   0.5449155646839249E+00
   0.5701880074197732E+00
   0.5404097087771723E+00
   0.5487779277249494E+00
   0.5790108245112179E+00
   0.4955235659400801E+00
   0.5064965485247760E+00
   0.4994484932758287E+00
   0.5533092780491556E+00
   0.4597902255497424E+00
   0.4983751361479054E+00
   0.5489762877903175E+00
   0.5894376704477519E+00
   0.5821700686365343E+00
   0.5457059854081523E+00
   0.5785146415283643E+00
   0.5122043889153096E+00
   0.5055088200029924E+00
   0.5048980713292807E+00
   0.5645297534820263E+00
   0.5552265529361431E+00
   0.4977583770673167E+00
   0.5488209132205886E+00
   0.5486892393525757E+00
   0.5643387883274686E+00
   0.4955121596271468E+00
   0.4958798377285555E+00
   0.3908414082390919E+00
   0.3725910136965498E+00
   0.5584900730672927E+00
   0.5739392830334689E+00
   0.4177439141144545E+00
   0.5813083292471636E+00
   0.4186000555943972E+00
   0.5391903660057099E+00
   0.4993239713524166E+00
   0.5113858610699401E+00
   0.5070195031031217E+00
   0.5732639955685351E+00
   0.5857709372025931E+00
   0.5448206114408501E+00
   0.5657063047774713E+00
   0.5320308531616162E+00
   0.5310303352125137E+00
   0.5561915822945152E+00
   0.5552162283787059E+00
   0.4401002077389164E+00
   0.5282987991566734E+00
   0.5807280150196745E+00
   0.3397138445743867E+00
   0.4812261833272535E+00
   0.5510168073100637E+00
   0.4924432660620183E+00
   0.3108744811394565E+00
   0.5051822071247517E+00
   0.5043571406830245E+00
   0.5129608745714060E+00
   0.5385848727302117E+00
   0.3519685692572946E+00
   0.3560463096689883E+00
   0.3308150954454390E+00
   0.5084554631852363E+00
   0.5125571449068207E+00
   0.5314307725013261E+00
   0.5857979184956190E+00
   0.4640826204498485E+00
   0.3627236060008114E+00
SCALARS v double 1
LOOKUP_TABLE default
   0.0000000000000000E+00
   0.0000000000000000E+00
   0.0000000000000000E+00
   0.0000000000000000E+00
   0.0000000000000000E+00
   0.0000000000000000E+00
   0.0000000000000000E+00
   0.0000000000000000E+00
   0.0000000000000000E+00
   0.0000000000000000E+00
   0.0000000000000000E+00
   0.0000000000000000E+00
   0.0000000000000000E+00
   0.0000000000000000E+00
   0.0000000000000000E+00
   0.0000000000000000E+00
   0.0000000000000000E+00
   0.0000000000000000E+00
   0.0000000000000000E+00
   0.0000000000000000E+00
   0.0000000000000000E+00
   0.0000000000000000E+00
   0.0000000000000000E+00
   0.0000000000000000E+00
   0.0000000000000000E+00
   0.0000000000000000E+00
   0.0000000000000000E+00
   0.0000000000000000E+00
   0.0000000000000000E+00
   0.0000000000000000E+00
   0.0000000000000000E+00
   0.0000000000000000E+00
   0.0000000000000000E+00
   0.0000000000000000E+00
   0.0000000000000000E+00
   0.0000000000000000E+00
   0.0000000000000000E+00
   0.0000000000000000E+00
   0.0000000000000000E+00
   0.0000000000000000E+00
   0.0000000000000000E+00
   0.0000000000000000E+00
   0.0000000000000000E+00
   0.0000000000000000E+00
   0.0000000000000000E+00
   0.0000000000000000E+00
   0.0000000000000000E+00
   0.0000000000000000E+00
   0.0000000000000000E+00
   0.0000000000000000E+00
   0.0000000000000000E+00
   0.0000000000000000E+00
   0.0000000000000000E+00
   0.0000000000000000E+00
   0.0000000000000000E+00
   0.0000000000000000E+00
   0.0000000000000000E+00
   0.0000000000000000E+00
   0.0000000000000000E+00
   0.0000000000000000E+00
   0.0000000000000000E+00
   0.6334718125705180E-03
  -0.1412099382533812E-02
  -0.1391682314138241E-02
   0.0000000000000000E+00
   0.0000000000000000E+00
   0.0000000000000000E+00
   0.0000000000000000E+00
  -0.1867976116604648E-01
   0.2777572206777859E-03
   0.2206620938192128E-02
   0.1490279323353438E-01
  -0.5368581302473290E-02
  -0.6642072487106565E-02
  -0.1142209583500289E-01
   0.4788839761015635E-02
   0.5371999438065120E-03
   0.3195638698898822E-02
   0.1530304081762925E-02
   0.3473816444154332E-02
   0.1704917237439157E-02
  -0.6356075000603095E-02
   0.7681777560902681E-03
   0.4869150637617095E-02
   0.6121851183367901E-03
   0.6959001206330980E-04
  -0.1767234187490206E-03
   0.6082840856398065E-03
   0.0000000000000000E+00
   0.0000000000000000E+00
   0.0000000000000000E+00
   0.0000000000000000E+00
   0.1212938566289484E-03
   0.1423635159642779E-02
  -0.1108799093981623E-02
  -0.9188931830841110E-03
  -0.2101544770025312E-02
  -0.1220496594262084E-02
  -0.8986449883004982E-03
  -0.6448413761034304E-03
  -0.2472688497694313E-04
  -0.5341986127392843E-03
   0.7240122115785131E-03
  -0.1570798846053978E-02
   0.1025651299255109E-03
  -0.1214700842481304E-03
  -0.8743259020299299E-03
  -0.8885258560878265E-03
   0.0000000000000000E+00
   0.0000000000000000E+00
   0.0000000000000000E+00
  -0.1091309526268387E-02
  -0.8502815690770812E-02
   0.1568985767614776E-01
   0.2148691185006710E-03
  -0.1053392362755418E-02
  -0.1673614064190826E-02
  -0.5281082648777703E-02
  -0.1235969565364244E-02
  -0.3701279612755476E-02
  -0.3032656229488666E-02
   0.2127153996398774E-02
   0.2880603328355131E-01
  -0.1724499618945881E-03
  -0.4260465253262492E-02
   0.2498516951899058E-02
   0.9550992355788808E-03
   0.0000000000000000E+00
   0.0000000000000000E+00
   0.0000000000000000E+00
   0.0000000000000000E+00
   0.0000000000000000E+00
   0.0000000000000000E+00
   0.0000000000000000E+00
   0.0000000000000000E+00
   0.0000000000000000E+00
   0.0000000000000000E+00
   0.0000000000000000E+00
   0.0000000000000000E+00
   0.0000000000000000E+00
   0.0000000000000000E+00
   0.0000000000000000E+00
   0.0000000000000000E+00
   0.0000000000000000E+00
   0.4670202132516419E-02
   0.2763278147326126E-02
   0.6893741607909170E-02
   0.5630442559630699E-02
   0.8687055483849300E-02
   0.1244114692315107E-01
   0.4866778793687389E-03
   0.4364182680345021E-02
   0.2406603537271721E-02
   0.2332211071456878E-02
   0.3176373710279556E-02
  -0.1059585764521975E-01
  -0.4893827834836341E-03
   0.6038349871018651E-02
   0.2600382306105871E-02
   0.2269793785594594E-02
   0.3837924333262283E-02
  -0.2020265191363913E-02
   0.9170004728731831E-03
   0.2371044817969916E-02
   0.1154922383712241E-02
   0.2686129643923666E-02
   0.1739854191889900E-02
   0.1798802572294681E-02
   0.8007125038167587E-02
  -0.3375974813867645E-02
   0.5470411164794566E-02
   0.6506742009468326E-04
  -0.3120971972329533E-04
  -0.1328421085530576E-01
  -0.3290558004355367E-02
  -0.3547652338815463E-02
   0.3675146190316459E-02
  -0.3988160131930537E-02
   0.8943884467259581E-03
  -0.2587595523328131E-01
  -0.3070952177363437E-02
   0.4167732909736222E-02
   0.7177101074681906E-03
   0.1825203748993477E-02
   0.4437743653513807E-02
   0.2300336744671575E-02
   0.3389533499069607E-02
   0.5068277793938644E-02
   0.1856652213776705E-02
   0.5820199676423085E-03
  -0.3347065593688839E-03
  -0.4621574814961026E-02
  -0.5498379757808660E-02
   0.4519077247394119E-03
   0.9429294457323102E-03
  -0.7332944365127446E-03
  -0.3869863533811720E-02
  -0.1215987616292317E-02
  -0.3656430657424822E-02
  -0.6898510377277309E-02
  -0.1708647957693113E-02
   0.5357626280155363E-03
  -0.3546521069974186E-03
   0.1111767027616275E-02
  -0.1832587661720224E-02
   0.6956117150445947E-02
  -0.9774614280739962E-02
  -0.1544923424547833E-04
  -0.4080132421679218E-03
   0.2409197586742849E-02
   0.1123359240621083E-02
   0.1298598746476200E-02
  -0.3829000284420622E-02
SCALARS w double 1
LOOKUP_TABLE default
   0.0000000000000000E+00
   0.0000000000000000E+00
   0.0000000000000000E+00
   0.0000000000000000E+00
   0.0000000000000000E+00
   0.0000000000000000E+00
   0.0000000000000000E+00
   0.0000000000000000E+00
   0.0000000000000000E+00
   0.0000000000000000E+00
   0.0000000000000000E+00
   0.0000000000000000E+00
   0.0000000000000000E+00
   0.0000000000000000E+00
   0.0000000000000000E+00
   0.0000000000000000E+00
   0.0000000000000000E+00
   0.0000000000000000E+00
   0.0000000000000000E+00
   0.0000000000000000E+00
   0.0000000000000000E+00
   0.0000000000000000E+00
   0.0000000000000000E+00
   0.0000000000000000E+00
   0.0000000000000000E+00
   0.0000000000000000E+00
   0.0000000000000000E+00
   0.0000000000000000E+00
   0.0000000000000000E+00
   0.0000000000000000E+00
   0.0000000000000000E+00
   0.0000000000000000E+00
   0.0000000000000000E+00
  -0.1144740662582716E+00
  -0.5028453811946985E-01
  -0.2218638980620556E-02
   0.5066013921261699E-02
  -0.6957813342266636E-03
  -0.6076409525120539E-03
   0.5805995234919849E-03
   0.1144807655275776E-02
   0.2440779968667031E-03
   0.3422554557966685E-02
   0.3884463964579920E-01
   0.5360745733950254E-01
  -0.1493570837986151E-02
  -0.2790728420442054E-01
   0.2079827714084269E-02
   0.1059655733438476E-01
   0.8042752794542257E-02
   0.4393892034953646E-01
  -0.4043421978882718E-03
  -0.1058031248855560E-01
  -0.3671503956728026E-02
  -0.2102263040949267E-02
   0.4819758000612081E-03
  -0.4609514486489277E-01
   0.1623618198035611E-01
   0.1240675031029398E-01
   0.2994629252939843E-01
   0.5073340839068552E-02
   0.4321078079394252E-02
   0.4383197544326677E-02
   0.4018273120695534E-02
   0.5466031240744598E-02
  -0.1704969436269901E-03
  -0.4834025067415567E-01
  -0.1122168936446204E+00
  -0.1279822901893440E+00
   0.2784415388396853E-02
   0.1930920250154868E-02
  -0.1150881691337510E+00
  -0.1133080249524622E+00
  -0.1132666420379535E+00
  -0.1072902218400686E+00
  -0.7748709733564539E-01
   0.3027728192074265E-02
  -0.2451875992483583E-01
  -0.2041362445176955E-01
  -0.9927809915661846E-02
   0.5241304084110928E-02
  -0.9129646555949844E-01
  -0.3406073304267303E-01
  -0.9180585731037180E-01
  -0.6776880052058677E-01
   0.1807790374116560E-02
   0.1559385925914612E-02
   0.1426788052975550E-02
   0.2118646043736759E-02
   0.1358295069601707E-02
  -0.1241622773657956E-02
  -0.1475161132470926E-02
   0.1114705429391795E-02
   0.2218159672126626E-02
   0.1202567569907601E-02
  -0.7056145253897998E-04
   0.1919560445034412E-03
   0.8213686028742514E-03
  -0.1576105319646977E-02
  -0.1943018905407893E-02
   0.1965357207845588E-02
  -0.4390927319727614E-04
  -0.4390438444322772E-03
   0.2228746908718591E-02
  -0.1071760766060250E-02
  -0.2024445975894113E-03
  -0.4923311208801322E-03
  -0.1804017664536929E-02
   0.6879534463708746E-01
   0.2330701342496157E-02
  -0.1105205140169032E-02
  -0.7920407575377123E-03
   0.1156184615571046E+00
   0.1039170540398615E+00
  -0.1771013197896362E-02
  -0.4421112934099068E-02
  -0.7493433830674075E-03
  -0.7086036267619231E-02
  -0.2645570610725455E-02
   0.1269924683611039E+00
   0.6360351661475719E-01
   0.2237139358397401E-01
   0.1353419472442058E+00