# vtk DataFile Version 2.0
FUN3D:global_image_vtk
ASCII
DATASET UNSTRUCTURED_GRID
POINTS 213 double
   -0.5474034791479812E-02    0.2504942076728992E+01    0.8150159399027680E-04
    0.1245419672959591E+01    0.2504942076728992E+01    0.1047277729471704E-03
    0.2497696577848839E+01    0.2504942076728992E+01    0.1110014622885641E-03
    0.3750591292531816E+01    0.2504942076728992E+01    0.1361998216059221E-03
    0.5003222305639440E+01    0.2504942076728992E+01    0.9710345422873592E-04
    0.5004677133222702E+01    0.1281292234626102E+01    0.1639225351491613E-03
    0.5004773639246594E+01    0.2775173908448856E-01    0.1910821770931607E-03
    0.5003582089737773E+01   -0.1225853078888782E+01    0.1617189504222013E-03
    0.5001953411348048E+01   -0.2496588976783356E+01    0.1090487764229120E-03
    0.3750349101294953E+01   -0.2496588976783356E+01    0.1460008005054494E-03
    0.2498611702424044E+01   -0.2496588976783356E+01    0.1009821411355215E-03
    0.1247175496632721E+01   -0.2496588976783356E+01    0.1112724912602214E-03
   -0.3383749369537953E-02   -0.2496588976783356E+01    0.8138799078189274E-04
   -0.4257368130220664E-02   -0.1225733816484489E+01    0.3495143506717267E-04
   -0.5250758842340433E-02    0.2619544496978931E-01    0.1049334725945922E-03
   -0.5676037539326675E-02    0.1278221945526992E+01    0.8256165600122595E-04
    0.9003215589602365E+00    0.1608979751742938E+01    0.8772925883107235E-04
    0.3983172550220766E+01   -0.1561211228563867E+01    0.1764035284144421E-03
    0.4035602434919056E+01    0.1486760979478153E+01    0.1722531803772464E-03
    0.1036614150179919E+01   -0.1455625621879872E+01    0.1056282748720346E-03
    0.1094353548258011E+01   -0.2964613435486003E+00    0.1264352964523109E-03
    0.7298406890792656E+00    0.6874692508675623E+00    0.1049285511396338E-03
    0.1617019060610020E+01    0.8553219512469192E+00    0.1531967691650307E-03
    0.2143200455099061E+01   -0.1627127781400796E+01    0.1606680274588256E-03
    0.4088841364403756E+01   -0.4351044105779334E+00    0.2721382244297130E-03
    0.2977917458254878E+01   -0.8334986102062707E+00    0.2247618513699503E-03
    0.3044093457651864E+01   -0.1814360830151587E+01    0.1623026668864033E-03
    0.3427866976848817E+01    0.3813906796016652E+00    0.2942746620253756E-03
    0.4313226140670545E+01    0.5489141099514474E+00    0.2315169160803521E-03
    0.1823033630301312E+01    0.1771266266707696E+01    0.1839668676665383E-03
    0.2806311221746753E+01    0.1358629805466062E+01    0.1953827602410102E-03
    0.1891861776913194E+01   -0.8481301166731644E+00    0.1679010941653158E-03
    0.2268770140783121E+01    0.7723713258746442E-01    0.2074544044361199E-03
    0.5000000000000000E+01    0.2504942076728992E+01    0.1250000000000000E+01
    0.5000000000000000E+01    0.2504942076728992E+01    0.2500000000000000E+01
    0.5000000000000000E+01    0.2504942076728992E+01    0.3750000000000000E+01
    0.5000000000000000E+01    0.2504942076728992E+01    0.5000000000000000E+01
    0.3750000000000000E+01    0.2504942076728992E+01    0.5000000000000000E+01
    0.2500000000000000E+01    0.2504942076728992E+01    0.5000000000000000E+01
    0.1250000000000000E+01    0.2504942076728992E+01    0.5000000000000000E+01
    0.0000000000000000E+00    0.2504942076728992E+01    0.5000000000000000E+01
    0.0000000000000000E+00    0.2504942076728992E+01    0.3750000000000000E+01
    0.0000000000000000E+00    0.2504942076728992E+01    0.2500000000000000E+01
    0.0000000000000000E+00    0.2504942076728992E+01    0.1250000000000000E+01
    0.9588960109950324E+00    0.2504942076728992E+01    0.9696534358518428E+00
    0.3981953135987070E+01    0.2504942076728992E+01    0.4070563977153090E+01
    0.4036122603048257E+01    0.2504942076728992E+01    0.1017568077737450E+01
    0.9637572680007634E+00    0.2504942076728992E+01    0.3973598317790697E+01
    0.1546540199868994E+01    0.2504942076728992E+01    0.2931570534639772E+01
    0.6973799501976604E+00    0.2504942076728992E+01    0.3070320151581353E+01
    0.8903742721114463E+00    0.2504942076728992E+01    0.2056562668050395E+01
    0.2183042025106090E+01    0.2504942076728992E+01    0.3960694642612455E+01
    0.3855845009130144E+01    0.2504942076728992E+01    0.2933250881705245E+01
    0.3152611453431021E+01    0.2504942076728992E+01    0.3637668634452495E+01
    0.3103307426069629E+01    0.2504942076728992E+01    0.4332607938454372E+01
    0.3266711307513308E+01    0.2504942076728992E+01    0.1889657179902316E+01
    0.4232537751899896E+01    0.2504942076728992E+01    0.1918627312011273E+01
    0.1905522748341233E+01    0.2504942076728992E+01    0.7226299945004641E+00
    0.2879768099364311E+01    0.2504942076728992E+01    0.9080953672824156E+00
    0.2012711620229818E+01    0.2504942076728992E+01    0.1767083060146361E+01
    0.2669681613978136E+01    0.2504942076728992E+01    0.2853394753424857E+01
    0.5000000000000000E+01    0.1250000000000000E+01    0.5000000000000000E+01
    0.5000000000000000E+01    0.0000000000000000E+00    0.5000000000000000E+01
    0.5000000000000000E+01   -0.1250000000000000E+01    0.5000000000000000E+01
    0.5000000000000000E+01   -0.2496588976783356E+01    0.5000000000000000E+01
    0.5000000000000000E+01   -0.2496588976783356E+01    0.3750000000000000E+01
    0.5000000000000000E+01   -0.2496588976783356E+01    0.2500000000000000E+01
    0.5000000000000000E+01   -0.2496588976783356E+01    0.1250000000000000E+01
    0.5000000000000000E+01    0.1578994732800803E+01    0.9058375365086910E+00
    0.5000000000000000E+01   -0.1583989954232354E+01    0.3982050490726493E+01
    0.5000000000000000E+01    0.1453322699199022E+01    0.4033849428301197E+01
    0.5000000000000000E+01   -0.1479596339503735E+01    0.1040505887381675E+01
    0.5000000000000000E+01   -0.3227322616384110E+00    0.1099454400140349E+01
    0.5000000000000000E+01    0.6593508822075582E+00    0.7354504170366591E+00
    0.5000000000000000E+01    0.8256214013940779E+00    0.1622302608453282E+01
    0.5000000000000000E+01   -0.1650070333782557E+01    0.2145871574390382E+01
    0.5000000000000000E+01   -0.4612828702537229E+00    0.4086422318222992E+01
    0.5000000000000000E+01   -0.8579242121530853E+00    0.2979540174134984E+01
    0.5000000000000000E+01   -0.1836846154397680E+01    0.3045064261640043E+01
    0.5000000000000000E+01    0.3508002863614053E+00    0.3428197553792836E+01
    0.5000000000000000E+01    0.5185680230613409E+00    0.4309693860063405E+01
    0.5000000000000000E+01    0.1738996113203182E+01    0.1827272193562204E+01
    0.5000000000000000E+01    0.1325493893339706E+01    0.2808563282768077E+01
    0.5000000000000000E+01   -0.8731419609589618E+00    0.1895995683864404E+01
    0.5000000000000000E+01    0.4906150219227333E-01    0.2273179336307740E+01
    0.0000000000000000E+00    0.1250000000000000E+01    0.5000000000000000E+01
    0.0000000000000000E+00    0.0000000000000000E+00    0.5000000000000000E+01
    0.0000000000000000E+00   -0.1250000000000000E+01    0.5000000000000000E+01
    0.0000000000000000E+00   -0.2496588976783356E+01    0.5000000000000000E+01
    0.1250000000000000E+01   -0.2496588976783356E+01    0.5000000000000000E+01
    0.2500000000000000E+01   -0.2496588976783356E+01    0.5000000000000000E+01
    0.3750000000000000E+01   -0.2496588976783356E+01    0.5000000000000000E+01
    0.4042003247744892E+01    0.1558308132739014E+01    0.5000000000000000E+01
    0.9304122287900499E+00   -0.1548001304379777E+01    0.5000000000000000E+01
    0.1037243024609388E+01    0.1462892710085612E+01    0.5000000000000000E+01
    0.3946240828834967E+01   -0.1445243809615570E+01    0.5000000000000000E+01
    0.4092527262848217E+01   -0.3455338993778935E+00    0.5000000000000000E+01
    0.4293103109154542E+01    0.6277660831404320E+00    0.5000000000000000E+01
    0.3241512314643519E+01    0.7429886854239611E+00    0.5000000000000000E+01
    0.2844289952419609E+01   -0.1588117879734118E+01    0.5000000000000000E+01
    0.7159905765450471E+00   -0.6002320124191652E+00    0.5000000000000000E+01
    0.1754341919796891E+01   -0.7398147869923652E+00    0.5000000000000000E+01
    0.1870296826774691E+01   -0.1788622905643739E+01    0.5000000000000000E+01
    0.9220614901912976E+00    0.3083720183248586E+00    0.5000000000000000E+01
    0.3101523624086016E+01    0.1777901774806180E+01    0.5000000000000000E+01
    0.2192512063922564E+01    0.1576861561598471E+01    0.5000000000000000E+01
    0.2024793420196460E+01    0.4773861992750707E+00    0.5000000000000000E+01
    0.2990627757741975E+01   -0.4878110785814084E+00    0.5000000000000000E+01
    0.0000000000000000E+00   -0.2496588976783356E+01    0.1250000000000000E+01
    0.0000000000000000E+00   -0.2496588976783356E+01    0.2500000000000000E+01
    0.0000000000000000E+00   -0.2496588976783356E+01    0.3750000000000000E+01
    0.0000000000000000E+00    0.1558308132739014E+01    0.4042003247744892E+01
    0.0000000000000000E+00   -0.1548001304379777E+01    0.9304122287900499E+00
    0.0000000000000000E+00    0.1462892710085612E+01    0.1037243024609388E+01
    0.0000000000000000E+00   -0.1445243809615570E+01    0.3946240828834967E+01
    0.0000000000000000E+00   -0.3455338993778935E+00    0.4092527262848217E+01
    0.0000000000000000E+00    0.6277660831404320E+00    0.4293103109154542E+01
    0.0000000000000000E+00    0.7429886854239611E+00    0.3241512314643519E+01
    0.0000000000000000E+00   -0.1588117879734118E+01    0.2844289952419609E+01
    0.0000000000000000E+00   -0.6002320124191652E+00    0.7159905765450471E+00
    0.0000000000000000E+00   -0.7398147869923652E+00    0.1754341919796891E+01
    0.0000000000000000E+00   -0.1788622905643739E+01    0.1870296826774691E+01
    0.0000000000000000E+00    0.3083720183248586E+00    0.9220614901912976E+00
    0.0000000000000000E+00    0.1777901774806180E+01    0.3101523624086016E+01
    0.0000000000000000E+00    0.1576861561598471E+01    0.2192512063922564E+01
[...]
POINT_DATA 213
SCALARS rho double 1
LOOKUP_TABLE default
   0.1219603679682181E+01
   0.9221842572006077E+00
   0.9104574803226174E+00
   0.8967077217464061E+00
   0.7819681727630300E+00
   0.7116526368979077E+00
   0.6990698407927353E+00
   0.7029376155380259E+00
   0.7687423320434663E+00
   0.8895339509677195E+00
   0.8987470463386104E+00
   0.9249648530158868E+00
   0.1300253881301814E+01
   0.1348039016543378E+01
   0.1456335483796428E+01
   0.1286725647657752E+01
   0.9619684734812366E+00
   0.9047697287327520E+00
   0.8972529186145775E+00
   0.9249278659382406E+00
   0.9126348446939123E+00
   0.9866014347901810E+00
   0.8974361353248114E+00
   0.8999786893856873E+00
   0.9067592836312500E+00
   0.9112597266369343E+00
   0.8943887592844694E+00
   0.9125983747590679E+00
   0.8902641663862388E+00
   0.9018730573093713E+00
   0.9063720201516112E+00
   0.8624007171964901E+00
   0.9078215179759773E+00
   0.9507490503917779E+00
   0.1008490328748255E+01
   0.1006987550843485E+01
   0.1000096063633296E+01
   0.1000460167632797E+01
   0.1001007521269668E+01
   0.1002474808223323E+01
   0.1001948151794215E+01
   0.1004885728641743E+01
   0.1016626511381249E+01
   0.1058308206261044E+01
   0.1005440340485710E+01
   0.1000006881815755E+01
   0.9458693614610822E+00
   0.1002042762899938E+01
   0.9982818211716227E+00
   0.1004493519647443E+01
   0.1005369459703791E+01
   0.9993154562801821E+00
   0.9978029950111610E+00
   0.9988097981111655E+00
   0.9987291605150568E+00
   0.9780910478033972E+00
   0.9796790683443476E+00
   0.9639538424359019E+00
   0.9601880149253574E+00
   0.9867967530491927E+00
   0.9922419336740221E+00
   0.1000302985915444E+01
   0.1000503686788100E+01
   0.1000652877870290E+01
   0.9998019878803344E+00
   0.1009788803950824E+01
   0.1007164004758168E+01
   0.9448303466261038E+00
   0.9034851624419342E+00
   0.1007039420008437E+01
   0.1004191092350896E+01
   0.8965313676751916E+00
   0.8926963766807675E+00
   0.8470710483193131E+00
   0.9708211764682125E+00
   0.1000179115969895E+01
   0.1006092546954371E+01
   0.1015640442966355E+01
   0.1012991936095056E+01
   0.1012869847491730E+01
   0.1005110650908683E+01
   0.9863541322096410E+00
   0.1006594274824583E+01
   0.9849618530325456E+00
   0.1008116405198365E+01
   0.1001905528124255E+01
   0.1000777295370528E+01
   0.1001301689980370E+01
   0.1001846483471202E+01
   0.1002352460131416E+01
   0.1000288231650080E+01
   0.1000187113289851E+01
   0.9997365606006265E+00
   0.1001751883362369E+01
   0.1001912586593256E+01
   0.9986467993844639E+00
   0.9995141592120037E+00
   0.9998813140393614E+00
   0.1000193458215257E+01
   0.1000451258586828E+01
   0.1001063556731482E+01
   0.1001470375132714E+01
   0.1001336951272767E+01
   0.1001534265709447E+01
   0.1000847824233733E+01
   0.1001347162142017E+01
   0.1001119926243389E+01
   0.1000547983212190E+01
   0.1060191596219392E+01
   0.1020436791279434E+01
   0.1005934428575146E+01
   0.1003467120162843E+01
   0.1142052569654606E+01
   0.1083375898555566E+01
   0.1004376823505504E+01
   0.1003908339797746E+01
   0.1003793739912721E+01
   0.1006678295559018E+01
   0.1012237984784112E+01
   0.1193114957177607E+01
   0.1028008124657970E+01
   0.1034782719836331E+01
   0.1169413941250972E+01
   0.1009876837421760E+01
   0.1023540963310075E+01
   0.1017119856011788E+01
   0.1007875312959380E+01
   0.1013906081834527E+01
   0.1000119032371349E+01
   0.9442631100017265E+00
   0.1003514236412310E+01
   0.9988695038776163E+00
   0.1006432638845984E+01
   0.1009139129061850E+01
   0.9979444664391105E+00
   0.9977834003240706E+00
   0.9961695705393034E+00
   0.9984747188360805E+00
   0.9810070740583577E+00
   0.9780772429034404E+00
   0.9479810130333630E+00
   0.9505448773938163E+00
   0.9878062726258581E+00
   0.9899256553540428E+00
   0.9925447547598149E+00
   0.9998161745912024E+00
   0.9986044736522661E+00
   0.9946524235206803E+00
   0.1006782414586834E+01
   0.1021196195301403E+01
   0.9980077097355884E+00
   0.1004786957715233E+01
   0.1001444524051324E+01
   0.1004868529685388E+01
   0.9952915982069506E+00
   0.9853998941285141E+00
   0.1000232266402480E+01
   0.9938965754886585E+00
   0.9819611382079831E+00
   0.9943479158734831E+00
   0.9968787297511270E+00
   0.9937011373153195E+00
   0.9987068203757071E+00
   0.1000042024592823E+01
   0.9996715924326995E+00
   0.9958464694118169E+00
   0.9933650117186503E+00
   0.1001383099351469E+01
   0.1018342762033045E+01
   0.1002763656590039E+01
   0.9806508368710030E+00
   0.1001879146376077E+01
   0.1008206564747251E+01
   0.9702353752080244E+00
   0.9431386742082144E+00
   0.9846821874098129E+00
   0.9843683178091140E+00
   0.9754760327033798E+00
   0.9908396513903861E+00
   0.9779138994948814E+00
   0.1033959912472983E+01
   0.1021654492014532E+01
   0.1000029333957560E+01
   0.9991788573258485E+00
   0.9918948238345844E+00
   0.9907248994775092E+00
   0.9573905060036740E+00
   0.9930428649120443E+00
   0.1006286849964748E+01
   0.1002041850684844E+01
   0.9896496113551033E+00
   0.9652829409578636E+00
   0.9203532836534152E+00
   0.9724313022054991E+00
   0.9781829083924913E+00
   0.9559883177964688E+00
   0.9617566978850641E+00
   0.9490308159283063E+00
   0.9367078223984940E+00
   0.9303366103369968E+00
   0.9992916597783336E+00
   0.9994683638153812E+00
   0.9988045364024999E+00
   0.1002022151875986E+01
   0.9391448536106295E+00
   0.9239546880044893E+00
   0.9359511667436249E+00
   0.9984186102989200E+00
   0.9983457395508397E+00
   0.1000457295570902E+01
   0.9793894936021780E+00
   0.9713543612260380E+00
   0.9447301688187786E+00
SCALARS u double 1
LOOKUP_TABLE default
   0.0000000000000000E+00
   0.0000000000000000E+00
   0.0000000000000000E+00
   0.0000000000000000E+00
   0.0000000000000000E+00
   0.0000000000000000E+00
   0.0000000000000000E+00
   0.0000000000000000E+00
   0.0000000000000000E+00
   0.0000000000000000E+00
   0.0000000000000000E+00
   0.0000000000000000E+00
   0.0000000000000000E+00
   0.0000000000000000E+00
   0.0000000000000000E+00
   0.0000000000000000E+00
   0.0000000000000000E+00
   0.0000000000000000E+00
   0.0000000000000000E+00
   0.0000000000000000E+00
   0.0000000000000000E+00
   0.0000000000000000E+00
   0.0000000000000000E+00
   0.0000000000000000E+00
   0.0000000000000000E+00
   0.0000000000000000E+00
   0.0000000000000000E+00
   0.0000000000000000E+00
   0.0000000000000000E+00
   0.0000000000000000E+00
   0.0000000000000000E+00
   0.0000000000000000E+00
   0.0000000000000000E+00
   0.5043859669767771E+00
   0.5290143608199651E+00
   0.5145293649519337E+00
   0.4931663509708485E+00
   0.4879159261713269E+00
   0.4911223714619162E+00
   0.4931935402896417E+00
   0.4982722382205284E+00
   0.4935686608789923E+00
   0.4788819351715258E+00
   0.4518415636314601E+00
   0.4750713611575452E+00
   0.5098345026010499E+00
   0.4511704368656029E+00
   0.4980821990807476E+00
   0.5232771978130747E+00
   0.4995160195900586E+00
   0.5240009428141363E+00
   0.5062567799051613E+00
   0.5622089986165000E+00
   0.5247365210168466E+00
   0.5014472134070593E+00
   0.5724186024578953E+00
   0.5706648326403146E+00
   0.3697689329061668E+00
   0.4030091319102650E+00
   0.5558996659691523E+00
   0.5550228492371244E+00
   0.4941241476059667E+00
   0.4945891213153809E+00
   0.4922127356485591E+00
   0.4916548740508825E+00
   0.5126636352505772E+00
   0.5320111955246852E+00
   0.5051780654286645E+00
   0.4699983885103068E+00
   0.5097116610041299E+00
   0.5089975885637656E+00
   0.4954863621833643E+00
   0.5091091735183306E+00
   0.4859829207543728E+00
   0.5290375320947910E+00
   0.5277010303287675E+00
   0.5095552942923074E+00
   0.5265106431020032E+00
   0.5256039986544778E+00
   0.5249429867394780E+00
   0.5039216218952119E+00
   0.5284311799796321E+00
   0.5353892968746171E+00
   0.5371604927989247E+00
   0.5324173495046313E+00
   0.4987621223179256E+00
   0.4995724308096265E+00
   0.4985672092112365E+00
   0.4978702938849337E+00
   0.4945026848197352E+00
   0.4945454424499838E+00
   0.4893308446730122E+00
   0.4880379416240883E+00
   0.4965578817686396E+00
   0.4946398736002793E+00
   0.4859513858060228E+00
   0.4895886205851356E+00
   0.4899450431562678E+00
   0.4910921803005293E+00
   0.4924938489198930E+00
   0.4981709274078913E+00
   0.4945799862559565E+00
   0.4947858017978196E+00
   0.4976217645820199E+00
   0.4906615103468361E+00
   0.4935434140516775E+00
   0.4927137878344193E+00
   0.4919484390743351E+00
   0.4513155892473625E+00
   0.4773800141805455E+00
   0.4929600186493642E+00
   0.4921839096950348E+00
   0.4645382605247422E+00
   0.4728925691234114E+00
   0.4915203650931980E+00
   0.4906735235273618E+00
   0.4940179320682674E+00
   0.4854913826901458E+00
   0.4731541176841865E+00
   0.4017667398429318E+00
   0.4925697339098405E+00
   0.4586131504915182E+00
   0.4595065862022000E+00
   0.4895082766819879E+00
   0.4701758850610842E+00
   0.4742341490691204E+00
   0.4816375813341837E+00
   0.4809653567525451E+00
   0.5082467123463373E+00
   0.4436625963768247E+00
   0.4960920672330475E+00
   0.5314855417806640E+00
   0.4949801204168400E+00
   0.5219260084707236E+00
   0.5081636776118600E+00
   0.5664255721378902E+00
   0.5269600051909125E+00
   0.5035455460480701E+00
   0.5834269723467237E+00
   0.5720015399279306E+00
   0.3408943614601214E+00
   0.3851894304715991E+00
   0.5717498835919420E+00
   0.5645152360312644E+00
   0.5689118347194374E+00
   0.5291656315256350E+00
   0.5449115092626357E+00
   0.5701736654842510E+00
   0.5404102681683646E+00
   0.5487718475655400E+00
   0.5790019751635758E+00
   0.4955235067494587E+00
   0.5065038917820532E+00
   0.4994479410211949E+00
   0.5533044194748499E+00
   0.4597887804164658E+00
   0.4983716547146982E+00
   0.5489845335578002E+00
   0.5894137410965162E+00
   0.5821726027044185E+00
   0.5457305152044670E+00
   0.5784917123594379E+00
   0.5122194312389363E+00
   0.5055189807966071E+00
   0.5049091356803368E+00
   0.5645366598139023E+00
   0.5552329582128684E+00
   0.4977582827351157E+00
   0.5488139986462396E+00
   0.5486821931990881E+00
   0.5643293031115719E+00
   0.4955079378475746E+00
   0.4958771545066036E+00
   0.3908606095870159E+00
   0.3726105988011870E+00
   0.5584707620923195E+00
   0.5739307040855637E+00
   0.4177348833975396E+00
   0.5812879484780613E+00
   0.4186133228857937E+00
   0.5391913325097382E+00
   0.4993294834603288E+00
   0.5114135940654438E+00
   0.5070294316836377E+00
   0.5732451777406995E+00
   0.5857672470493592E+00
   0.5447951146076649E+00
   0.5656987849113908E+00
   0.5320717157502022E+00
   0.5310557918140012E+00
   0.5561836563062799E+00
   0.5551722141049480E+00
   0.4400874407984683E+00
   0.5282756827070739E+00
   0.5807099881612698E+00
   0.3397438230232770E+00
   0.4812104563638437E+00
   0.5510160095341274E+00
   0.4924426403690799E+00
   0.3108941971941033E+00
   0.5051844647757011E+00
   0.5043640763167199E+00
   0.5129785758467721E+00
   0.5386254736275672E+00
   0.3519841998009048E+00
   0.3560902557948410E+00
   0.3308099105629430E+00
   0.5084682235875415E+00
   0.5125925032574659E+00
   0.5314812197260382E+00
   0.5857901345047838E+00
   0.4640818625975204E+00
   0.3627704884620399E+00
SCALARS v double 1
LOOKUP_TABLE default
   0.0000000000000000E+00
   0.0000000000000000E+00
   0.0000000000000000E+00
   0.0000000000000000E+00
   0.0000000000000000E+00
   0.0000000000000000E+00
   0.0000000000000000E+00
   0.0000000000000000E+00
   0.0000000000000000E+00
   0.0000000000000000E+00
   0.0000000000000000E+00
   0.0000000000000000E+00
   0.0000000000000000E+00
   0.0000000000000000E+00
   0.0000000000000000E+00
   0.0000000000000000E+00
   0.0000000000000000E+00
   0.0000000000000000E+00
   0.0000000000000000E+00
   0.0000000000000000E+00
   0.0000000000000000E+00
   0.0000000000000000E+00
   0.0000000000000000E+00
   0.0000000000000000E+00
   0.0000000000000000E+00
   0.0000000000000000E+00
   0.0000000000000000E+00
   0.0000000000000000E+00
   0.0000000000000000E+00
   0.0000000000000000E+00
   0.0000000000000000E+00
   0.0000000000000000E+00
   0.0000000000000000E+00
   0.0000000000000000E+00
   0.0000000000000000E+00
   0.0000000000000000E+00
   0.0000000000000000E+00
   0.0000000000000000E+00
   0.0000000000000000E+00
   0.0000000000000000E+00
   0.0000000000000000E+00
   0.0000000000000000E+00
   0.0000000000000000E+00
   0.0000000000000000E+00
   0.0000000000000000E+00
   0.0000000000000000E+00
   0.0000000000000000E+00
   0.0000000000000000E+00
   0.0000000000000000E+00
   0.0000000000000000E+00
   0.0000000000000000E+00
   0.0000000000000000E+00
   0.0000000000000000E+00
   0.0000000000000000E+00
   0.0000000000000000E+00
   0.0000000000000000E+00
   0.0000000000000000E+00
   0.0000000000000000E+00
   0.0000000000000000E+00
   0.0000000000000000E+00
   0.0000000000000000E+00
   0.6502968021869344E-03
  -0.1407500720432909E-02
  -0.1400373892624567E-02
   0.0000000000000000E+00
   0.0000000000000000E+00
   0.0000000000000000E+00
   0.0000000000000000E+00
  -0.1869221293381134E-01
   0.2789964299021535E-03
   0.2205762039742834E-02
   0.1489024452061318E-01
  -0.5377974017606510E-02
  -0.6637715258212440E-02
  -0.1142057394049369E-01
   0.4787334968271790E-02
   0.5352339444456000E-03
   0.3202036626631171E-02
   0.1534666507540257E-02
   0.3478751791186663E-02
   0.1706684807000824E-02
  -0.6362489541443266E-02
   0.7641885689623182E-03
   0.4864099221726168E-02
   0.6187242444809488E-03
   0.7637928996010966E-04
  -0.1733655114948374E-03
   0.6184754547618013E-03
   0.0000000000000000E+00
   0.0000000000000000E+00
   0.0000000000000000E+00
   0.0000000000000000E+00
   0.1205255700062802E-03
   0.1438289170226068E-02
  -0.1119195007133987E-02
  -0.9271215355952948E-03
  -0.2117128556066849E-02
  -0.1233294182749638E-02
  -0.9266651411769523E-03
  -0.6314001579570827E-03
  -0.1695725096194970E-04
  -0.5217153254274134E-03
   0.7299302651879004E-03
  -0.1572625891342705E-02
   0.7141399348041500E-04
  -0.1457370612455776E-03
  -0.8851218840044067E-03
  -0.8973196982931138E-03
   0.0000000000000000E+00
   0.0000000000000000E+00
   0.0000000000000000E+00
  -0.1087159505786160E-02
  -0.8504360465899393E-02
   0.1569083954762690E-01
   0.2158466384320927E-03
  -0.1054246024062626E-02
  -0.1671746977240808E-02
  -0.5287523950334090E-02
  -0.1242351411256961E-02
  -0.3704799951112682E-02
  -0.3037971533469712E-02
   0.2128488628746433E-02
   0.2880731031233350E-01
  -0.1745728590163344E-03
  -0.4260336028568839E-02
   0.2496516786991961E-02
   0.9497024055827134E-03
   0.0000000000000000E+00
   0.0000000000000000E+00
   0.0000000000000000E+00
   0.0000000000000000E+00
   0.0000000000000000E+00
   0.0000000000000000E+00
   0.0000000000000000E+00
   0.0000000000000000E+00
   0.0000000000000000E+00
   0.0000000000000000E+00
   0.0000000000000000E+00
   0.0000000000000000E+00
   0.0000000000000000E+00
   0.0000000000000000E+00
   0.0000000000000000E+00
   0.0000000000000000E+00
   0.0000000000000000E+00
   0.4678141284690348E-02
   0.2762869432516914E-02
   0.6902115991695393E-02
   0.5630341140309261E-02
   0.8689131839346153E-02
   0.1244162481959342E-01
   0.4853588507092713E-03
   0.4362193864218145E-02
   0.2413456866542776E-02
   0.2334409246447007E-02
   0.3179598742738127E-02
  -0.1060449423370304E-01
  -0.4897523027426073E-03
   0.6050066758575196E-02
   0.2602106351213704E-02
   0.2280224718260450E-02
   0.3851114594750730E-02
  -0.2005100581217508E-02
   0.9226997603697215E-03
   0.2375996903113293E-02
   0.1154486697576865E-02
   0.2699036747877795E-02
   0.1747074479638038E-02
   0.1803163767634106E-02
   0.8004652005892494E-02
  -0.3379928758073883E-02
   0.5469898999487873E-02
   0.6948475855066454E-04
  -0.3805077486303747E-04
  -0.1330528089612017E-01
  -0.3297447264833509E-02
  -0.3548313505645123E-02
   0.3677218748784085E-02
  -0.3998822695258170E-02
   0.8930431664536422E-03
  -0.2588901139456824E-01
  -0.3071212598133233E-02
   0.4170546656976249E-02
   0.7145220891701642E-03
   0.1828232761514934E-02
   0.4445850050759132E-02
   0.2301148247907122E-02
   0.3387176472195767E-02
   0.5068853162898611E-02
   0.1858052341395739E-02
   0.5819828046576003E-03
  -0.3370816386371232E-03
  -0.4622076397530582E-02
  -0.5504755169088488E-02
   0.4414235608000519E-03
   0.9504801166174263E-03
  -0.7263314052774620E-03
  -0.3864346014653300E-02
  -0.1213809274409457E-02
  -0.3665247300989677E-02
  -0.6903234925489664E-02
  -0.1717564001564243E-02
   0.5423219823853473E-03
  -0.3574804512555170E-03
   0.1118630670353959E-02
  -0.1849754165202626E-02
   0.6946440224126137E-02
  -0.9776810456950736E-02
  -0.1670794332342504E-04
  -0.4125821920690019E-03
   0.2413817759649784E-02
   0.1122188202775690E-02
   0.1300751717891483E-02
  -0.3837179220879373E-02
SCALARS w double 1
LOOKUP_TABLE default
   0.0000000000000000E+00
   0.0000000000000000E+00
   0.0000000000000000E+00
   0.0000000000000000E+00
   0.0000000000000000E+00
   0.0000000000000000E+00
   0.0000000000000000E+00
   0.0000000000000000E+00
   0.0000000000000000E+00
   0.0000000000000000E+00
   0.0000000000000000E+00
   0.0000000000000000E+00
   0.0000000000000000E+00
   0.0000000000000000E+00
   0.0000000000000000E+00
   0.0000000000000000E+00
   0.0000000000000000E+00
   0.0000000000000000E+00
   0.0000000000000000E+00
   0.0000000000000000E+00
   0.0000000000000000E+00
   0.0000000000000000E+00
   0.0000000000000000E+00
   0.0000000000000000E+00
   0.0000000000000000E+00
   0.0000000000000000E+00
   0.0000000000000000E+00
   0.0000000000000000E+00
   0.0000000000000000E+00
   0.0000000000000000E+00
   0.0000000000000000E+00
   0.0000000000000000E+00
   0.0000000000000000E+00
  -0.1144570501321307E+00
  -0.5028540195722739E-01
  -0.2203976085292304E-02
   0.5094517007613408E-02
  -0.7244718860742501E-03
  -0.6217873734268897E-03
   0.5782106446718776E-03
   0.1147788673768404E-02
   0.2410801639868286E-03
   0.3421817321498565E-02
   0.3885322762898150E-01
   0.5360266006467189E-01
  -0.1488175551387785E-02
  -0.2792954751990805E-01
   0.2077731136666708E-02
   0.1060383394498672E-01
   0.8041839416332968E-02
   0.4393951139709091E-01
  -0.4024825465512631E-03
  -0.1057949489524468E-01
  -0.3669337314334840E-02
  -0.2114031439242083E-02
   0.4780089728253896E-03
  -0.4610136055501037E-01
   0.1623426952253376E-01
   0.1240373631972355E-01
   0.2994349427623384E-01
   0.5081729697015456E-02
   0.4339625384186322E-02
   0.4396694429519448E-02
   0.4023471618209156E-02
   0.5481500978804982E-02
  -0.1668161410210480E-03
  -0.4835282572688097E-01
  -0.1122047210470646E+00
  -0.1279617301755244E+00
   0.2795141590551143E-02
   0.1958564191411039E-02
  -0.1150564444539464E+00
  -0.1132648581045574E+00
  -0.1132311476837759E+00
  -0.1072555086320033E+00
  -0.7747974075498146E-01
   0.3045060145380001E-02
  -0.2451365955596191E-01
  -0.2042294182826843E-01
  -0.9920712633975941E-02
   0.5271351640052087E-02
  -0.9128646216138983E-01
  -0.3406223115636628E-01
  -0.9177232578215901E-01
  -0.6775001988545265E-01
   0.1811393248257737E-02
   0.1567504595527965E-02
   0.1436565451650174E-02
   0.2121966008598590E-02
   0.1363995272847451E-02
  -0.1245481059967540E-02
  -0.1480395794377390E-02
   0.1128905051170094E-02
   0.2221218921020516E-02
   0.1201139492634422E-02
  -0.7422967902839093E-04
   0.1758720358162769E-03
   0.8323899770196963E-03
  -0.1602340120063796E-02
  -0.1947664060328543E-02
   0.1975021700460424E-02
  -0.4610165827129977E-04
  -0.4303443585572491E-03
   0.2230399735462451E-02
  -0.1095709822493700E-02
  -0.1929551025355440E-03
  -0.4988444291561678E-03
  -0.1820926304030924E-02
   0.6878938358042735E-01
   0.2326172754323638E-02
  -0.1106860686271411E-02
  -0.7949945655481265E-03
   0.1156146217907124E+00
   0.1039066498963399E+00
  -0.1757312602101374E-02
  -0.4421471964368574E-02
  -0.7507655381275852E-03
  -0.7085408524476893E-02
  -0.2646835886988432E-02
   0.1269944350784775E+00
   0.6359905736260364E-01
   0.2236900427873074E-01
   0.1353396853097193E+00