title="tecplot geometry and solution file"
variables = x y z rho u v w p mach temperature
zone t="boundary 1 bc-1", solutiontime= 0.3000000E+02, strandid=1001, i=32, j=46, f=feblock
 -0.547403479148E-02  0.000000000000E+00 -0.567603753933E-02  0.000000000000E+00  0.000000000000E+00  0.000000000000E+00 -0.525075884234E-02
 -0.425736813022E-02  0.000000000000E+00  0.000000000000E+00  0.000000000000E+00  0.000000000000E+00  0.000000000000E+00  0.000000000000E+00
  0.000000000000E+00  0.000000000000E+00 -0.338374936954E-02  0.000000000000E+00  0.000000000000E+00  0.000000000000E+00  0.000000000000E+00
  0.000000000000E+00  0.000000000000E+00  0.000000000000E+00  0.000000000000E+00  0.000000000000E+00  0.000000000000E+00  0.000000000000E+00
  0.000000000000E+00  0.000000000000E+00  0.000000000000E+00  0.000000000000E+00
  0.250494207673E+01  0.250494207673E+01  0.127822194553E+01  0.146289271009E+01  0.157686156160E+01  0.308372018325E+00  0.261954449698E-01
 -0.122573381648E+01 -0.600232012419E+00  0.250494207673E+01  0.477386199275E+00  0.742988685424E+00 -0.739814786992E+00  0.177790177481E+01
  0.155830813274E+01  0.250494207673E+01 -0.249658897678E+01 -0.154800130438E+01 -0.487811078581E+00  0.250494207673E+01  0.627766083140E+00
 -0.345533899378E+00 -0.178862290564E+01 -0.158811787973E+01  0.125000000000E+01 -0.249658897678E+01 -0.144524380962E+01  0.000000000000E+00
 -0.125000000000E+01 -0.249658897678E+01 -0.249658897678E+01 -0.249658897678E+01
  0.815015939903E-04  0.125000000000E+01  0.825616560012E-04  0.103724302461E+01  0.219251206392E+01  0.922061490191E+00  0.104933472595E-03
  0.349514350672E-04  0.715990576545E+00  0.250000000000E+01  0.202479342020E+01  0.324151231464E+01  0.175434191980E+01  0.310152362409E+01
  0.404200324774E+01  0.375000000000E+01  0.813879907819E-04  0.930412228790E+00  0.299062775774E+01  0.500000000000E+01  0.429310310915E+01
  0.409252726285E+01  0.187029682677E+01  0.284428995242E+01  0.500000000000E+01  0.125000000000E+01  0.394624082883E+01  0.500000000000E+01
  0.500000000000E+01  0.250000000000E+01  0.375000000000E+01  0.500000000000E+01
  0.121959977515E+01  0.105831335223E+01  0.128671964786E+01  0.108337041293E+01  0.102354605754E+01  0.116941698896E+01  0.145633688082E+01
  0.134804031110E+01  0.119311465260E+01  0.101662519663E+01  0.101712183054E+01  0.100667536740E+01  0.102800087812E+01  0.100987436111E+01
  0.100346383633E+01  0.100488596317E+01  0.130024668863E+01  0.114206685277E+01  0.100787484933E+01  0.100194483650E+01  0.100378967617E+01
  0.100390904999E+01  0.103478516817E+01  0.101224046244E+01  0.100190253509E+01  0.106018108743E+01  0.100437845013E+01  0.100077785354E+01
  0.100130063717E+01  0.102043469652E+01  0.100593731616E+01  0.100184311392E+01
  0.000000000000E+00  0.451834285797E+00  0.000000000000E+00  0.472911881692E+00  0.470158593336E+00  0.459504964957E+00  0.000000000000E+00
  0.000000000000E+00  0.401768602434E+00  0.478881823882E+00  0.474223767496E+00  0.485493047720E+00  0.492580843826E+00  0.489510525269E+00
  0.492201262798E+00  0.493575701632E+00  0.000000000000E+00  0.464517374398E+00  0.481634528935E+00  0.498236670713E+00  0.494015424543E+00
  0.490674417328E+00  0.458609153014E+00  0.473144887396E+00  0.498753691369E+00  0.451330060911E+00  0.491521074813E+00  0.499569590300E+00
  0.498567757460E+00  0.477381158087E+00  0.492957797988E+00  0.497856595555E+00
  0.000000000000E+00  0.000000000000E+00  0.000000000000E+00  0.156899333535E-01 -0.426051813389E-02  0.288059551850E-01  0.000000000000E+00
  0.000000000000E+00 -0.370129354745E-02  0.000000000000E+00  0.249841731031E-02 -0.528112743233E-02 -0.303275461410E-02 -0.172441021965E-03
 -0.109128674819E-02  0.000000000000E+00  0.000000000000E+00 -0.850279496651E-02  0.955097155871E-03  0.000000000000E+00 -0.167363212309E-02
 -0.105347553794E-02  0.212716661581E-02 -0.123600268964E-02  0.695696477596E-04  0.000000000000E+00  0.214876693716E-03 -0.176753539198E-03
  0.608336425554E-03  0.000000000000E+00  0.000000000000E+00  0.000000000000E+00
  0.000000000000E+00  0.388447757423E-01  0.000000000000E+00  0.103916929501E+00  0.224193249549E-01  0.135341752631E+00  0.000000000000E+00
  0.000000000000E+00  0.126992325415E+00  0.342250601768E-02  0.213554335293E-01 -0.708605133244E-02  0.636033956133E-01  0.292761293630E-02
 -0.792188438409E-03  0.243873164635E-03  0.000000000000E+00  0.115618405695E+00 -0.829815015961E-02  0.114450513999E-02 -0.749466715011E-03
 -0.442126083165E-02  0.223714884852E-01 -0.264547749217E-02  0.180769819493E-02  0.687950901132E-01 -0.177093322870E-02  0.155939080498E-02
  0.142678920989E-02  0.233072216207E-02 -0.110529414760E-02  0.211826469893E-02
  0.908102151021E+00  0.774899588643E+00  0.958078956547E+00  0.800622114235E+00  0.737948983324E+00  0.857914731322E+00  0.108437430134E+01
  0.100373772702E+01  0.887195851425E+00  0.730580289054E+00  0.733315251910E+00  0.720299264418E+00  0.748106613347E+00  0.724222032505E+00
  0.717576272507E+00  0.719224693778E+00  0.968151059766E+00  0.840784158295E+00  0.722225637445E+00  0.716319849959E+00  0.717948030419E+00
  0.717912490283E+00  0.749167851582E+00  0.726422593536E+00  0.716249764935E+00  0.782033746024E+00  0.718602022107E+00  0.715132438937E+00
  0.715579016963E+00  0.734165449138E+00  0.720297793071E+00  0.716213231403E+00
  0.000000000000E+00  0.447918122548E+00  0.000000000000E+00  0.476275759365E+00  0.468524029731E+00  0.473519677762E+00  0.000000000000E+00
  0.000000000000E+00  0.412988893717E+00  0.477443391071E+00  0.472504939796E+00  0.485153506202E+00  0.492070319889E+00  0.488543924785E+00
  0.491923039666E+00  0.493078313215E+00  0.000000000000E+00  0.471587449425E+00  0.480934301178E+00  0.498013630644E+00  0.493690012443E+00
  0.490410158900E+00  0.456073672203E+00  0.472047366456E+00  0.498546249482E+00  0.449257183881E+00  0.491117558881E+00  0.499470362507E+00
  0.498443251736E+00  0.475665955766E+00  0.492352596139E+00  0.497648691963E+00
  0.104242640687E+01  0.102508337612E+01  0.104242640687E+01  0.103461470477E+01  0.100936207906E+01  0.102707642799E+01  0.104242640687E+01
  0.104242640687E+01  0.104103506674E+01  0.100608602666E+01  0.100935927423E+01  0.100173204077E+01  0.101882136580E+01  0.100399701642E+01
  0.100113899987E+01  0.100201874461E+01  0.104242640687E+01  0.103067330845E+01  0.100321571979E+01  0.100090120076E+01  0.100133251661E+01
  0.100116388671E+01  0.101357752747E+01  0.100469371526E+01  0.100084552717E+01  0.103269833561E+01  0.100165712518E+01  0.100040724419E+01
  0.100050932413E+01  0.100724880514E+01  0.100246495890E+01  0.100085383633E+01
        12        19        11        11
        11         5        12        12
        10        14         5         5
        19        13        11        11
        19        24        13        13
        30        23        24        24
        19        12        22        22
        28        22        21        21
        11        13         6         6
         7         6         9         9
        15        12        14        14
        18        13        23        23
        15        25        21        21
        27        19        22        22
        18         8         9         9
        27        31        24        24
         4        11         6         6
         5        14        12        12
         4         2         5         5
        21        12        15        15
        14        16        15        15
        24        19        27        27
        22        29        27        27
        23        26        18        18
        17         8        18        18
         5        11         4         4
         6         3         4         4
        26        23        30        30
         5         2        10        10
        16        14        10        10
         3         6         7         7
        21        25        28        28
        29        22        28        28
         6        13         9         9
         2         4         1         1
        31        27        32        32
        25        15        20        20
        24        23        13        13
         8         7         9         9
        13        18         9         9
        31        30        24        24
        12        21        22        22
        29        32        27        27
         3         1         4         4
        26        17        18        18
        16        20        15        15
zone t="boundary 2 bc-2", solutiontime= 0.3000000E+02, strandid=1002, i=33, j=48, f=feblock
  0.500195341135E+01  0.375034910129E+01  0.249861170242E+01  0.288036698845E+01  0.124717549663E+01  0.190856748382E+01  0.326577206104E+01
  0.201394882463E+01 -0.338374936954E-02  0.962374532454E+00  0.500000000000E+01  0.403430207908E+01  0.423029574132E+01  0.500000000000E+01
  0.385439196956E+01  0.500000000000E+01  0.398133436420E+01  0.315200086795E+01  0.266958039312E+01  0.154798037926E+01  0.218327863071E+01
  0.893688549420E+00  0.000000000000E+00  0.699009795070E+00  0.964460910475E+00  0.310303673914E+01  0.000000000000E+00  0.000000000000E+00
  0.125000000000E+01  0.500000000000E+01  0.375000000000E+01  0.250000000000E+01  0.000000000000E+00
 -0.249658897678E+01 -0.249658897678E+01 -0.249658897678E+01 -0.249658897678E+01 -0.249658897678E+01 -0.249658897678E+01 -0.249658897678E+01
 -0.249658897678E+01 -0.249658897678E+01 -0.249658897678E+01 -0.249658897678E+01 -0.249658897678E+01 -0.249658897678E+01 -0.249658897678E+01
 -0.249658897678E+01 -0.249658897678E+01 -0.249658897678E+01 -0.249658897678E+01 -0.249658897678E+01 -0.249658897678E+01 -0.249658897678E+01
 -0.249658897678E+01 -0.249658897678E+01 -0.249658897678E+01 -0.249658897678E+01 -0.249658897678E+01 -0.249658897678E+01 -0.249658897678E+01
 -0.249658897678E+01 -0.249658897678E+01 -0.249658897678E+01 -0.249658897678E+01 -0.249658897678E+01
  0.109048776423E-03  0.146000800505E-03  0.100982141136E-03  0.901663553469E+00  0.111272491260E-03  0.714928384187E+00  0.188140665818E+01
  0.175892180762E+01  0.813879907819E-04  0.957504577548E+00  0.125000000000E+01  0.100596727486E+01  0.191313533373E+01  0.250000000000E+01
  0.292898109395E+01  0.375000000000E+01  0.406883375261E+01  0.363389299802E+01  0.284756876624E+01  0.292582316470E+01  0.395754061536E+01
  0.205027268305E+01  0.125000000000E+01  0.306703276451E+01  0.397155769281E+01  0.433068627066E+01  0.250000000000E+01  0.375000000000E+01
  0.500000000000E+01  0.500000000000E+01  0.500000000000E+01  0.500000000000E+01  0.500000000000E+01
  0.768735801544E+00  0.889523527722E+00  0.898746454808E+00  0.950542423401E+00  0.924960099020E+00  0.947969562702E+00  0.981017360306E+00
  0.987799130999E+00  0.130024668863E+01  0.101390427741E+01  0.944836079932E+00  0.944237411724E+00  0.978087595944E+00  0.100717415418E+01
  0.997784741028E+00  0.100978313970E+01  0.100012093374E+01  0.996167607042E+00  0.989919958770E+00  0.998867513327E+00  0.997941972523E+00
  0.100913679991E+01  0.106018108743E+01  0.100643323682E+01  0.100351212914E+01  0.998477970939E+00  0.102043469652E+01  0.100593731616E+01
  0.100234900885E+01  0.999825671087E+00  0.100019152980E+01  0.100028719510E+01  0.100184311392E+01
  0.000000000000E+00  0.000000000000E+00  0.000000000000E+00  0.385195695543E+00  0.000000000000E+00  0.340886012459E+00  0.583452918035E+00
  0.571759298788E+00  0.000000000000E+00  0.480963181985E+00  0.505184927321E+00  0.443662073266E+00  0.572023240469E+00  0.532003849874E+00
  0.566400672148E+00  0.512622141030E+00  0.508199254830E+00  0.526915724887E+00  0.564509431162E+00  0.531478419622E+00  0.508130656150E+00
  0.521930107385E+00  0.451330060911E+00  0.494980850735E+00  0.496091830407E+00  0.503539864224E+00  0.477381158087E+00  0.492957797988E+00
  0.494536200622E+00  0.491694450232E+00  0.489488890980E+00  0.494634508008E+00  0.497856595555E+00
  0.000000000000E+00  0.000000000000E+00  0.000000000000E+00  0.000000000000E+00  0.000000000000E+00  0.000000000000E+00  0.000000000000E+00
  0.000000000000E+00  0.000000000000E+00  0.000000000000E+00  0.000000000000E+00  0.000000000000E+00  0.000000000000E+00  0.000000000000E+00
  0.000000000000E+00  0.000000000000E+00  0.000000000000E+00  0.000000000000E+00  0.000000000000E+00  0.000000000000E+00  0.000000000000E+00
  0.000000000000E+00  0.000000000000E+00  0.000000000000E+00  0.000000000000E+00  0.000000000000E+00  0.000000000000E+00  0.000000000000E+00
  0.000000000000E+00  0.000000000000E+00  0.000000000000E+00  0.000000000000E+00  0.000000000000E+00
  0.000000000000E+00  0.000000000000E+00  0.000000000000E+00 -0.142931763866E-02  0.000000000000E+00  0.168979004013E-01  0.875999366454E-02
  0.403963229294E-01  0.000000000000E+00  0.730722495127E-01 -0.112216412239E+00 -0.262900629851E-01 -0.368281379261E-01 -0.483403761921E-01
 -0.588567590993E-02 -0.169541516109E-03 -0.196005352844E-02 -0.317068462002E-02  0.106424743268E-01  0.235148022294E-01  0.228808870356E-02
  0.486674719308E-01  0.687950901132E-01  0.868235093660E-02  0.441101121439E-02 -0.351540058205E-02  0.233072216207E-02 -0.110529414760E-02
  0.135803665977E-02  0.546682440144E-02 -0.147678256991E-02 -0.124188942109E-02  0.211826469893E-02
  0.572393213884E+00  0.662330582022E+00  0.669197883981E+00  0.681370881809E+00  0.688716308943E+00  0.681180950948E+00  0.693024450347E+00
  0.700085051153E+00  0.968151059766E+00  0.722087314884E+00  0.666760408824E+00  0.671480447706E+00  0.691232259520E+00  0.720038330886E+00
  0.710709988180E+00  0.723771199312E+00  0.714752765364E+00  0.710894056692E+00  0.704007914408E+00  0.714159189868E+00  0.712429501752E+00
  0.725804056597E+00  0.782033746024E+00  0.720438257637E+00  0.717728259343E+00  0.712837381934E+00  0.734165449138E+00  0.720297793071E+00
  0.716518368761E+00  0.714350802666E+00  0.714323191141E+00  0.714486518729E+00  0.716213231403E+00
  0.000000000000E+00  0.000000000000E+00  0.000000000000E+00  0.384515954561E+00  0.000000000000E+00  0.340285967746E+00  0.586752313266E+00
  0.575425886598E+00  0.000000000000E+00  0.487199399775E+00  0.520640699964E+00  0.445423734748E+00  0.576268344138E+00  0.533962463489E+00
  0.567225057943E+00  0.511736948254E+00  0.508067684813E+00  0.527167672759E+00  0.565842571368E+00  0.531744132575E+00  0.508273513860E+00
  0.522388394737E+00  0.449257183881E+00  0.494521619688E+00  0.495788574361E+00  0.503679684848E+00  0.475665955766E+00  0.492352596139E+00
  0.494346570933E+00  0.491659577075E+00  0.489525150583E+00  0.494637567544E+00  0.497648691963E+00
  0.104242640687E+01  0.104242640687E+01  0.104242640687E+01  0.100355250965E+01  0.104242640687E+01  0.100599572903E+01  0.989008217127E+00
  0.992225079833E+00  0.104242640687E+01  0.997058857883E+00  0.987964570978E+00  0.995589260832E+00  0.989405414547E+00  0.100087324427E+01
  0.997203046448E+00  0.100346266361E+01  0.100053287332E+01  0.999080548627E+00  0.995647245457E+00  0.100095643564E+01  0.999458214920E+00
  0.100692560149E+01  0.103269833561E+01  0.100216638699E+01  0.100130285813E+01  0.999493593002E+00  0.100724880514E+01  0.100246495890E+01
  0.100077488720E+01  0.100026549893E+01  0.999860964423E+00  0.999993932865E+00  0.100085383633E+01
        15         7        19        19
         8        20        19        19
        18        19        21        21
         7         4         8         8
         3         6         4         4
        19         7         8         8
        19        18        15        15
        14        13        15        15
         8        22        20        20
        27        24        22        22
        19        20        21        21
        32        26        21        21
        17        18        26        26
        17        16        15        15
        25        29        21        21
        12         7        13        13
        10         8         6         6
        25        20        24        24
         4         6         8         8
        12         2         4         4
        10        23        22        22
        26        31        17        17
        30        16        17        17
         4         7        12        12
        13        11        12        12
        21        20        25        25
        24        28        25        25
        22         8        10        10
         6         5        10        10
        31        26        32        32
         4         2         3         3
         5         6         3         3
        11        13        14        14
        22        23        27        27
        28        24        27        27
        15        13         7         7
         2        12         1         1
        29        25        33        33
        23        10         9         9
        21        26        18        18
        16        14        15        15
        18        17        15        15
        29        32        21        21
        22        24        20        20
        28        33        25        25
        11         1        12        12
        31        30        17        17
         5         9        10        10
zone t="boundary 3 bc-3", solutiontime= 0.3000000E+02, strandid=1003, i=33, j=48, f=feblock
  0.375059129253E+01  0.249769657785E+01  0.500322230564E+01  0.403612260305E+01  0.287976809936E+01  0.124541967296E+01  0.190552274834E+01
  0.500000000000E+01  0.326671130751E+01  0.423253775190E+01  0.201271162023E+01 -0.547403479148E-02  0.958896010995E+00  0.500000000000E+01
  0.266968161398E+01  0.385584500913E+01  0.890374272111E+00  0.154654019987E+01  0.000000000000E+00  0.500000000000E+01  0.315261145343E+01
  0.218304202511E+01  0.398195313599E+01  0.000000000000E+00  0.697379950198E+00  0.963757268001E+00  0.125000000000E+01  0.000000000000E+00
  0.500000000000E+01  0.310330742607E+01  0.250000000000E+01  0.375000000000E+01  0.000000000000E+00
  0.250494207673E+01  0.250494207673E+01  0.250494207673E+01  0.250494207673E+01  0.250494207673E+01  0.250494207673E+01  0.250494207673E+01
  0.250494207673E+01  0.250494207673E+01  0.250494207673E+01  0.250494207673E+01  0.250494207673E+01  0.250494207673E+01  0.250494207673E+01
  0.250494207673E+01  0.250494207673E+01  0.250494207673E+01  0.250494207673E+01  0.250494207673E+01  0.250494207673E+01  0.250494207673E+01
  0.250494207673E+01  0.250494207673E+01  0.250494207673E+01  0.250494207673E+01  0.250494207673E+01  0.250494207673E+01  0.250494207673E+01
  0.250494207673E+01  0.250494207673E+01  0.250494207673E+01  0.250494207673E+01  0.250494207673E+01
  0.136199821606E-03  0.111001462289E-03  0.971034542287E-04  0.101756807774E+01  0.908095367282E+00  0.104727772947E-03  0.722629994500E+00
  0.125000000000E+01  0.188965717990E+01  0.191862731201E+01  0.176708306015E+01  0.815015939903E-04  0.969653435852E+00  0.250000000000E+01
  0.285339475342E+01  0.293325088171E+01  0.205656266805E+01  0.293157053464E+01  0.125000000000E+01  0.375000000000E+01  0.363766863445E+01
  0.396069464261E+01  0.407056397715E+01  0.250000000000E+01  0.307032015158E+01  0.397359831779E+01  0.500000000000E+01  0.375000000000E+01
  0.500000000000E+01  0.433260793845E+01  0.500000000000E+01  0.500000000000E+01  0.500000000000E+01
  0.896676977465E+00  0.910447651239E+00  0.781949518202E+00  0.945776170898E+00  0.960132594354E+00  0.922179235138E+00  0.963950281395E+00
  0.950686506306E+00  0.978092527149E+00  0.979671006661E+00  0.986798782856E+00  0.121959977515E+01  0.100543680330E+01  0.100849024167E+01
  0.992239992188E+00  0.997799901071E+00  0.100537153407E+01  0.998282833664E+00  0.105831335223E+01  0.100697752523E+01  0.998803918811E+00
  0.999311181029E+00  0.100000777796E+01  0.101662519663E+01  0.100449241821E+01  0.100204217019E+01  0.100246737933E+01  0.100488596317E+01
  0.100014287434E+01  0.998721601139E+00  0.100101031178E+01  0.100049116768E+01  0.100194483650E+01
  0.000000000000E+00  0.000000000000E+00  0.000000000000E+00  0.451192353063E+00  0.403035506631E+00  0.000000000000E+00  0.369780760676E+00
  0.504460322546E+00  0.572441341719E+00  0.570699119299E+00  0.555904061876E+00  0.000000000000E+00  0.475076243454E+00  0.529012881178E+00
  0.555007375850E+00  0.562172296415E+00  0.523997772699E+00  0.523269597385E+00  0.451834285797E+00  0.514484457924E+00  0.524698117907E+00
  0.506246644992E+00  0.509782290725E+00  0.478881823882E+00  0.499519959630E+00  0.498081380202E+00  0.493202516184E+00  0.493575701632E+00
  0.493226195973E+00  0.501443022962E+00  0.491213486209E+00  0.488100862372E+00  0.498236670713E+00
  0.000000000000E+00  0.000000000000E+00  0.000000000000E+00  0.000000000000E+00  0.000000000000E+00  0.000000000000E+00  0.000000000000E+00
  0.000000000000E+00  0.000000000000E+00  0.000000000000E+00  0.000000000000E+00  0.000000000000E+00  0.000000000000E+00  0.000000000000E+00
  0.000000000000E+00  0.000000000000E+00  0.000000000000E+00  0.000000000000E+00  0.000000000000E+00  0.000000000000E+00  0.000000000000E+00
  0.000000000000E+00  0.000000000000E+00  0.000000000000E+00  0.000000000000E+00  0.000000000000E+00  0.000000000000E+00  0.000000000000E+00
  0.000000000000E+00  0.000000000000E+00  0.000000000000E+00  0.000000000000E+00  0.000000000000E+00
  0.000000000000E+00  0.000000000000E+00  0.000000000000E+00 -0.279079136721E-01  0.124067034487E-01  0.000000000000E+00  0.162362034550E-01
 -0.114473058771E+00  0.481999761684E-03 -0.460947734233E-01  0.299463227547E-01  0.000000000000E+00  0.536074101782E-01 -0.502839447026E-01
  0.507353943092E-02 -0.105799076845E-01  0.439389083176E-01  0.105966146908E-01  0.388447757423E-01 -0.221745773535E-02 -0.367102951874E-02
 -0.404354246333E-03 -0.149341280445E-02  0.342250601768E-02  0.804267425745E-02  0.207971580718E-02  0.580178424630E-03  0.243873164635E-03
  0.506848174422E-02 -0.210229411159E-02 -0.608074161194E-03 -0.698981551414E-03  0.114450513999E-02
  0.667656971245E+00  0.677910481233E+00  0.582232019010E+00  0.670520792220E+00  0.688130420861E+00  0.686645704698E+00  0.690430271844E+00
  0.670647451676E+00  0.691903469861E+00  0.692624522116E+00  0.700947299067E+00  0.908102151021E+00  0.717683138505E+00  0.721491553723E+00
  0.706702587942E+00  0.711393824449E+00  0.721305249528E+00  0.713317539990E+00  0.774899588643E+00  0.721208145197E+00  0.713531963948E+00
  0.713574990124E+00  0.714553971249E+00  0.730580289054E+00  0.718615554844E+00  0.716240959689E+00  0.716741999134E+00  0.719224693778E+00
  0.714562987719E+00  0.713128512182E+00  0.715137050109E+00  0.714652357207E+00  0.716319849959E+00
  0.000000000000E+00  0.000000000000E+00  0.000000000000E+00  0.453748252762E+00  0.402545698422E+00  0.000000000000E+00  0.369628908351E+00
  0.520520478618E+00  0.575220484034E+00  0.575501376664E+00  0.558260220588E+00  0.000000000000E+00  0.478253047334E+00  0.530976817508E+00
  0.555831179362E+00  0.562793406511E+00  0.524675358085E+00  0.523282085601E+00  0.447918122548E+00  0.513797341751E+00  0.524673971812E+00
  0.506324382813E+00  0.509690760062E+00  0.477443391071E+00  0.499194898348E+00  0.497913036779E+00  0.492964067151E+00  0.493078313215E+00
  0.493191757897E+00  0.501533229842E+00  0.491169321647E+00  0.488095964170E+00  0.498013630644E+00
  0.104242640687E+01  0.104242640687E+01  0.104242640687E+01  0.992548911670E+00  0.100338494378E+01  0.104242640687E+01  0.100275128213E+01
  0.987608876447E+00  0.990361168211E+00  0.989795884914E+00  0.994454224856E+00  0.104242640687E+01  0.999323269853E+00  0.100158448092E+01
  0.997121292136E+00  0.998147377204E+00  0.100443200858E+01  0.100036234453E+01  0.102508337612E+01  0.100269507311E+01  0.100014099936E+01
  0.999693594085E+00  0.100036777892E+01  0.100608602666E+01  0.100156233989E+01  0.100069375660E+01  0.100096902849E+01  0.100201874461E+01
  0.100024527342E+01  0.999657878549E+00  0.100018137513E+01  0.100002212154E+01  0.100090120076E+01
        15         9        16        16
        15        18        11        11
        22        15        21        21
        11         5         9         9
         5         7         2         2
        11         9        15        15
        16        21        15        15
        16        10        14        14
        18        17        11        11
        17        25        24        24
        22        18        15        15
        22        30        31        31
        30        21        23        23
        16        20        23        23
        22        27        26        26
        10         9         4         4
         7        11        13        13
        25        18        26        26
        11         7         5         5
         5         1         4         4
        17        19        13        13
        23        32        30        30
        23        20        29        29
         4         9         5         5
         4         8        10        10
        26        18        22        22
        26        28        25        25
        13        11        17        17
        13         6         7         7
        31        30        32        32
         2         1         5         5
         2         7         6         6
        14        10         8         8
        24        19        17        17
        24        25        28        28
         9        10        16        16
         3         4         1         1
        33        26        27        27
        12        13        19        19
        21        30        22        22
        16        14        20        20
        16        23        21        21
        22        31        27        27
        18        25        17        17
        26        33        28        28
         4         3         8         8
        23        29        32        32
        13        12         6         6
zone t="boundary 4 bc-4", solutiontime= 0.3000000E+02, strandid=1004, i=32, j=46, f=feblock
  0.125000000000E+01  0.219251206392E+01  0.103724302461E+01  0.500000000000E+01  0.250000000000E+01  0.375000000000E+01  0.404200324774E+01
  0.500000000000E+01  0.000000000000E+00  0.310152362409E+01  0.202479342020E+01  0.324151231464E+01  0.922061490191E+00  0.000000000000E+00
  0.299062775774E+01  0.394624082883E+01  0.500000000000E+01  0.409252726285E+01  0.500000000000E+01  0.429310310915E+01  0.175434191980E+01
  0.284428995242E+01  0.000000000000E+00  0.000000000000E+00  0.715990576545E+00  0.930412228790E+00  0.125000000000E+01  0.187029682677E+01
  0.500000000000E+01  0.375000000000E+01  0.250000000000E+01  0.000000000000E+00
  0.250494207673E+01  0.157686156160E+01  0.146289271009E+01  0.250494207673E+01  0.250494207673E+01  0.250494207673E+01  0.155830813274E+01
  0.125000000000E+01  0.250494207673E+01  0.177790177481E+01  0.477386199275E+00  0.742988685424E+00  0.308372018325E+00  0.125000000000E+01
 -0.487811078581E+00 -0.144524380962E+01 -0.125000000000E+01 -0.345533899378E+00  0.000000000000E+00  0.627766083140E+00 -0.739814786992E+00
 -0.158811787973E+01  0.000000000000E+00 -0.125000000000E+01 -0.600232012419E+00 -0.154800130438E+01 -0.249658897678E+01 -0.178862290564E+01
 -0.249658897678E+01 -0.249658897678E+01 -0.249658897678E+01 -0.249658897678E+01
  0.500000000000E+01  0.500000000000E+01  0.500000000000E+01  0.500000000000E+01  0.500000000000E+01  0.500000000000E+01  0.500000000000E+01
  0.500000000000E+01  0.500000000000E+01  0.500000000000E+01  0.500000000000E+01  0.500000000000E+01  0.500000000000E+01  0.500000000000E+01
  0.500000000000E+01  0.500000000000E+01  0.500000000000E+01  0.500000000000E+01  0.500000000000E+01  0.500000000000E+01  0.500000000000E+01
  0.500000000000E+01  0.500000000000E+01  0.500000000000E+01  0.500000000000E+01  0.500000000000E+01  0.500000000000E+01  0.500000000000E+01
  0.500000000000E+01  0.500000000000E+01  0.500000000000E+01  0.500000000000E+01
  0.100246737933E+01  0.100134411880E+01  0.100190780847E+01  0.100014287434E+01  0.100101031178E+01  0.100049116768E+01  0.999772523074E+00
  0.100034006154E+01  0.100194483650E+01  0.100086071772E+01  0.100110852104E+01  0.100019853251E+01  0.100152590042E+01  0.100190253509E+01
  0.100054362482E+01  0.998651142026E+00  0.100066865690E+01  0.999534642404E+00  0.100053917059E+01  0.999920785654E+00  0.100145797279E+01
  0.100044297962E+01  0.100077785354E+01  0.100130063717E+01  0.100105890508E+01  0.100174645361E+01  0.100234900885E+01  0.100133180372E+01
  0.999825671087E+00  0.100019152980E+01  0.100028719510E+01  0.100184311392E+01
  0.493202516184E+00  0.493600853265E+00  0.494658108022E+00  0.493226195973E+00  0.491213486209E+00  0.488100862372E+00  0.488181950306E+00
  0.494185396146E+00  0.498236670713E+00  0.490792287364E+00  0.492761139005E+00  0.491174146063E+00  0.497637558935E+00  0.498753691369E+00
  0.492047946179E+00  0.486057203473E+00  0.492253146351E+00  0.489677537035E+00  0.494621100111E+00  0.490036982497E+00  0.494627854848E+00
  0.492613424422E+00  0.499569590300E+00  0.498567757460E+00  0.498183367189E+00  0.496570950550E+00  0.494536200622E+00  0.494838857173E+00
  0.491694450232E+00  0.489488890980E+00  0.494634508008E+00  0.497856595555E+00
  0.000000000000E+00 -0.121635198945E-03 -0.110855001472E-02  0.000000000000E+00  0.000000000000E+00  0.000000000000E+00  0.120526049271E-03
  0.633774622666E-03  0.000000000000E+00  0.101736345230E-03 -0.874015523904E-03 -0.898669686468E-03 -0.157074854100E-02  0.695696477596E-04
 -0.887475154698E-03 -0.918222170200E-03 -0.139152191659E-02 -0.210077288196E-02 -0.141191668996E-02 -0.122048869713E-02 -0.533764525787E-03
 -0.644233145263E-03 -0.176753539198E-03  0.608336425554E-03 -0.248294094475E-04  0.142379782918E-02  0.000000000000E+00  0.724068135524E-03
  0.000000000000E+00  0.000000000000E+00  0.000000000000E+00  0.000000000000E+00