title="tecplot geometry and solution file"
variables = x y z rho u v w p mach temperature
zone t="boundary 1 bc-1", solutiontime= 0.5000000E+02, strandid=1001, i=32, j=46, f=feblock
 -0.547454789457E-02  0.000000000000E+00 -0.567596495155E-02  0.000000000000E+00  0.000000000000E+00  0.000000000000E+00 -0.525081104812E-02
 -0.425695585107E-02  0.000000000000E+00  0.000000000000E+00  0.000000000000E+00  0.000000000000E+00  0.000000000000E+00  0.000000000000E+00
  0.000000000000E+00  0.000000000000E+00 -0.338306800861E-02  0.000000000000E+00  0.000000000000E+00  0.000000000000E+00  0.000000000000E+00
  0.000000000000E+00  0.000000000000E+00  0.000000000000E+00  0.000000000000E+00  0.000000000000E+00  0.000000000000E+00  0.000000000000E+00
  0.000000000000E+00  0.000000000000E+00  0.000000000000E+00  0.000000000000E+00
  0.250494205109E+01  0.250494205109E+01  0.127822176491E+01  0.146289271009E+01  0.157686156160E+01  0.308372018325E+00  0.261953807315E-01
 -0.122573392194E+01 -0.600232012419E+00  0.250494205109E+01  0.477386199275E+00  0.742988685424E+00 -0.739814786992E+00  0.177790177481E+01
  0.155830813274E+01  0.250494205109E+01 -0.249658898644E+01 -0.154800130438E+01 -0.487811078581E+00  0.250494205109E+01  0.627766083140E+00
 -0.345533899378E+00 -0.178862290564E+01 -0.158811787973E+01  0.125000000000E+01 -0.249658898644E+01 -0.144524380962E+01  0.000000000000E+00
 -0.125000000000E+01 -0.249658898644E+01 -0.249658898644E+01 -0.249658898644E+01
  0.811177949225E-04  0.125000000000E+01  0.829429528721E-04  0.103724302461E+01  0.219251206392E+01  0.922061490191E+00  0.104283509303E-03
  0.346902148094E-04  0.715990576545E+00  0.250000000000E+01  0.202479342020E+01  0.324151231464E+01  0.175434191980E+01  0.310152362409E+01
  0.404200324774E+01  0.375000000000E+01  0.815052046199E-04  0.930412228790E+00  0.299062775774E+01  0.500000000000E+01  0.429310310915E+01
  0.409252726285E+01  0.187029682677E+01  0.284428995242E+01  0.500000000000E+01  0.125000000000E+01  0.394624082883E+01  0.500000000000E+01
  0.500000000000E+01  0.250000000000E+01  0.375000000000E+01  0.500000000000E+01
  0.134610784400E+01  0.106375546421E+01  0.142661132902E+01  0.108602670073E+01  0.103229749354E+01  0.120170179708E+01  0.164672943000E+01
  0.149542048078E+01  0.123512313752E+01  0.102386943421E+01  0.102822217264E+01  0.101305387492E+01  0.103253555412E+01  0.101467213378E+01
  0.100662698314E+01  0.100826832571E+01  0.144847522060E+01  0.116396752846E+01  0.101464051839E+01  0.100424995919E+01  0.100679645266E+01
  0.100725182242E+01  0.104656548643E+01  0.101934079413E+01  0.100423991990E+01  0.106448523875E+01  0.100790708427E+01  0.100288596723E+01
  0.100335006104E+01  0.102844206158E+01  0.100960587068E+01  0.100399794253E+01
  0.000000000000E+00  0.444887292115E+00  0.000000000000E+00  0.468180340885E+00  0.462186792604E+00  0.443238651052E+00  0.000000000000E+00
  0.000000000000E+00  0.379439085580E+00  0.471807267284E+00  0.466360650461E+00  0.479394561832E+00  0.490363710235E+00  0.484571645869E+00
  0.488597469181E+00  0.489900744862E+00  0.000000000000E+00  0.451029502647E+00  0.474778703077E+00  0.495800903271E+00  0.490926844026E+00
  0.486826278926E+00  0.448796906965E+00  0.465790673377E+00  0.496535899853E+00  0.444910713638E+00  0.487666693804E+00  0.497536487287E+00
  0.496381521629E+00  0.470013287248E+00  0.489177494393E+00  0.495515502767E+00
  0.000000000000E+00  0.000000000000E+00  0.000000000000E+00  0.182111942062E-01 -0.276668092556E-02  0.330008797346E-01  0.000000000000E+00
  0.000000000000E+00 -0.635883280763E-02  0.000000000000E+00  0.362940831729E-02 -0.561333564107E-02 -0.432752690283E-02  0.439690516761E-04
 -0.103547485225E-02  0.000000000000E+00  0.000000000000E+00 -0.779177403881E-02  0.391748776828E-03  0.000000000000E+00 -0.202831525105E-02
 -0.137699792988E-02  0.151652718240E-02 -0.162047720836E-02 -0.665397018656E-04  0.000000000000E+00 -0.290734394225E-04 -0.202432934133E-03
  0.805362240183E-03  0.000000000000E+00  0.000000000000E+00  0.000000000000E+00
  0.000000000000E+00  0.453283647316E-01  0.000000000000E+00  0.123658675621E+00  0.245692575251E-01  0.166125850531E+00  0.000000000000E+00
  0.000000000000E+00  0.155960029782E+00  0.352703254662E-02  0.259078534312E-01 -0.647805409760E-02  0.752821057754E-01  0.371570010359E-02
 -0.127529762090E-03  0.471453850318E-03  0.000000000000E+00  0.141096946834E+00 -0.806996385725E-02  0.236433378825E-02 -0.280388970257E-03
 -0.438302885612E-02  0.256769935798E-01 -0.189363945400E-02  0.307401308251E-02  0.838612194407E-01 -0.122860319753E-02  0.268490862033E-02
  0.264424758893E-02  0.283393483396E-02 -0.846588945828E-03  0.345684925925E-02
  0.961496278712E+00  0.782491126658E+00  0.101899868013E+01  0.808635925963E+00  0.746113327312E+00  0.879959801493E+00  0.117622521810E+01
  0.106814912539E+01  0.916484241774E+00  0.737375265579E+00  0.743650970160E+00  0.725792787178E+00  0.757479357819E+00  0.729144499885E+00
  0.720777566991E+00  0.722747146918E+00  0.103461763182E+01  0.858092915867E+00  0.728072572852E+00  0.718602761983E+00  0.721012354277E+00
  0.721154298434E+00  0.759934146197E+00  0.732618494305E+00  0.718521953957E+00  0.790948763268E+00  0.722118115036E+00  0.717197477875E+00
  0.717641995045E+00  0.741773499648E+00  0.724071786244E+00  0.718406368855E+00
  0.000000000000E+00  0.440666223968E+00  0.000000000000E+00  0.474617242260E+00  0.460123134589E+00  0.468636756513E+00  0.000000000000E+00
  0.000000000000E+00  0.402549853064E+00  0.469884099686E+00  0.464193463261E+00  0.478749622714E+00  0.489549443112E+00  0.483128674566E+00
  0.488002265802E+00  0.489034110087E+00  0.000000000000E+00  0.465240598980E+00  0.473760503425E+00  0.495364299523E+00  0.490293375061E+00
  0.486277602063E+00  0.445854511215E+00  0.464358875847E+00  0.496127935761E+00  0.443900378981E+00  0.486930059696E+00  0.497248724382E+00
  0.496055923566E+00  0.467744048306E+00  0.488189260968E+00  0.495091101964E+00
  0.999990302555E+00  0.102983027037E+01  0.999990763541E+00  0.104241479108E+01  0.101187754962E+01  0.102516591477E+01  0.999991422600E+00
  0.999992172611E+00  0.103882592715E+01  0.100825880461E+01  0.101253540910E+01  0.100301664818E+01  0.102705528804E+01  0.100604152401E+01
  0.100244540499E+01  0.100354834114E+01  0.999992726105E+00  0.103209930934E+01  0.100459382758E+01  0.100178631582E+01  0.100260315114E+01
  0.100234717410E+01  0.101657069573E+01  0.100620508659E+01  0.100168367699E+01  0.104024765047E+01  0.100303428444E+01  0.100118707594E+01
  0.100134422878E+01  0.100976315371E+01  0.100405567180E+01  0.100176392181E+01
        12        19        11        11
        11         5        12        12
        10        14         5         5
        19        13        11        11
        19        24        13        13
        30        23        24        24
        19        12        22        22
        28        22        21        21
        11        13         6         6
         7         6         9         9
        15        12        14        14
        18        13        23        23
        15        25        21        21
        27        19        22        22
        18         8         9         9
        27        31        24        24
         4        11         6         6
         5        14        12        12
         4         2         5         5
        21        12        15        15
        14        16        15        15
        24        19        27        27
        22        29        27        27
        23        26        18        18
        17         8        18        18
         5        11         4         4
         6         3         4         4
        26        23        30        30
         5         2        10        10
        16        14        10        10
         3         6         7         7
        21        25        28        28
        29        22        28        28
         6        13         9         9
         2         4         1         1
        31        27        32        32
        25        15        20        20
        24        23        13        13
         8         7         9         9
        13        18         9         9
        31        30        24        24
        12        21        22        22
        29        32        27        27
         3         1         4         4
        26        17        18        18
        16        20        15        15
zone t="boundary 2 bc-2", solutiontime= 0.5000000E+02, strandid=1002, i=33, j=48, f=feblock
  0.500195297846E+01  0.375034879869E+01  0.249861160855E+01  0.288036697933E+01  0.124717543368E+01  0.190856734555E+01  0.326577208358E+01
  0.201394882191E+01 -0.338306800861E-02  0.962374580515E+00  0.500000000000E+01  0.403430219970E+01  0.423029575644E+01  0.500000000000E+01
  0.385439197114E+01  0.500000000000E+01  0.398133436456E+01  0.315200087393E+01  0.266958040931E+01  0.154798038680E+01  0.218327863841E+01
  0.893688554177E+00  0.000000000000E+00  0.699009794583E+00  0.964460912828E+00  0.310303674226E+01  0.000000000000E+00  0.000000000000E+00
  0.125000000000E+01  0.500000000000E+01  0.375000000000E+01  0.250000000000E+01  0.000000000000E+00
 -0.249658898644E+01 -0.249658898644E+01 -0.249658898644E+01 -0.249658898644E+01 -0.249658898644E+01 -0.249658898644E+01 -0.249658898644E+01
 -0.249658898644E+01 -0.249658898644E+01 -0.249658898644E+01 -0.249658898644E+01 -0.249658898644E+01 -0.249658898644E+01 -0.249658898644E+01
 -0.249658898644E+01 -0.249658898644E+01 -0.249658898644E+01 -0.249658898644E+01 -0.249658898644E+01 -0.249658898644E+01 -0.249658898644E+01
 -0.249658898644E+01 -0.249658898644E+01 -0.249658898644E+01 -0.249658898644E+01 -0.249658898644E+01 -0.249658898644E+01 -0.249658898644E+01
 -0.249658898644E+01 -0.249658898644E+01 -0.249658898644E+01 -0.249658898644E+01 -0.249658898644E+01
  0.108951811956E-03  0.146841511908E-03  0.100939937681E-03  0.901663569978E+00  0.111188885151E-03  0.714928506180E+00  0.188140663357E+01
  0.175892185999E+01  0.815052046199E-04  0.957504584123E+00  0.125000000000E+01  0.100596734432E+01  0.191313533770E+01  0.250000000000E+01
  0.292898108478E+01  0.375000000000E+01  0.406883374833E+01  0.363389299144E+01  0.284756875487E+01  0.292582319278E+01  0.395754061536E+01
  0.205027270663E+01  0.125000000000E+01  0.306703277861E+01  0.397155769864E+01  0.433068626773E+01  0.250000000000E+01  0.375000000000E+01
  0.500000000000E+01  0.500000000000E+01  0.500000000000E+01  0.500000000000E+01  0.500000000000E+01
  0.831049002210E+00  0.935354923327E+00  0.934389783637E+00  0.968094437963E+00  0.961616765607E+00  0.964874021391E+00  0.984210069969E+00
  0.991408411536E+00  0.144847522060E+01  0.102898689979E+01  0.956112541693E+00  0.960814764112E+00  0.981522836313E+00  0.100650794956E+01
  0.997935782320E+00  0.100981609013E+01  0.100200366742E+01  0.998069049295E+00  0.991091305418E+00  0.100132489678E+01  0.100093956728E+01
  0.101223133473E+01  0.106448523875E+01  0.101079825989E+01  0.100685806922E+01  0.100119203843E+01  0.102844206158E+01  0.100960587068E+01
  0.100511534110E+01  0.100179357863E+01  0.100266912044E+01  0.100322320624E+01  0.100399794253E+01
  0.000000000000E+00  0.000000000000E+00  0.000000000000E+00  0.378615092255E+00  0.000000000000E+00  0.340329976530E+00  0.582178233051E+00
  0.575334654751E+00  0.000000000000E+00  0.489381119606E+00  0.495137408947E+00  0.430537261311E+00  0.569176916196E+00  0.536367073962E+00
  0.569065100346E+00  0.516259718314E+00  0.508563871474E+00  0.527499059827E+00  0.566854331633E+00  0.532032732169E+00  0.506130940658E+00
  0.520947373851E+00  0.444910713638E+00  0.491385542722E+00  0.492729806947E+00  0.501502417359E+00  0.470013287248E+00  0.489177494393E+00
  0.490417259512E+00  0.491396777247E+00  0.486161133405E+00  0.490250027116E+00  0.495515502767E+00
  0.000000000000E+00  0.000000000000E+00  0.000000000000E+00  0.000000000000E+00  0.000000000000E+00  0.000000000000E+00  0.000000000000E+00
  0.000000000000E+00  0.000000000000E+00  0.000000000000E+00  0.000000000000E+00  0.000000000000E+00  0.000000000000E+00  0.000000000000E+00
  0.000000000000E+00  0.000000000000E+00  0.000000000000E+00  0.000000000000E+00  0.000000000000E+00  0.000000000000E+00  0.000000000000E+00
  0.000000000000E+00  0.000000000000E+00  0.000000000000E+00  0.000000000000E+00  0.000000000000E+00  0.000000000000E+00  0.000000000000E+00
  0.000000000000E+00  0.000000000000E+00  0.000000000000E+00  0.000000000000E+00  0.000000000000E+00
  0.000000000000E+00  0.000000000000E+00  0.000000000000E+00 -0.232902891604E-02  0.000000000000E+00  0.182353430627E-01  0.121236174376E-01
  0.453891475853E-01  0.000000000000E+00  0.867492987563E-01 -0.992592145506E-01 -0.210120996007E-01 -0.304697090386E-01 -0.412644340987E-01
 -0.132004358392E-02  0.269956535108E-02  0.637124742362E-03  0.535255879837E-03  0.151134147094E-01  0.283971519201E-01  0.565019991944E-02
  0.553958468954E-01  0.838612194407E-01  0.110560478893E-01  0.679114858649E-02 -0.740734045336E-03  0.283393483396E-02 -0.846588945828E-03
  0.399773517119E-02  0.605665490683E-02 -0.135624984862E-03  0.119915212305E-02  0.345684925925E-02
  0.593602566142E+00  0.668106445414E+00  0.667416966593E+00  0.684291440398E+00  0.686864406812E+00  0.679258566711E+00  0.695864190650E+00
  0.702291791421E+00  0.103461763182E+01  0.723389830882E+00  0.672789499930E+00  0.675870598894E+00  0.694123990569E+00  0.721038064432E+00
  0.712711427608E+00  0.724812421940E+00  0.716595368128E+00  0.713312881045E+00  0.706427911949E+00  0.717741411756E+00  0.715380854121E+00
  0.730906768805E+00  0.790948763268E+00  0.724365790102E+00  0.721017446071E+00  0.715471809303E+00  0.741773499648E+00  0.724071786244E+00
  0.719322137303E+00  0.715894733394E+00  0.716614381391E+00  0.717376651649E+00  0.718406368855E+00
  0.000000000000E+00  0.000000000000E+00  0.000000000000E+00  0.380610205709E+00  0.000000000000E+00  0.343302099012E+00  0.585285482817E+00
  0.579523878602E+00  0.000000000000E+00  0.500979744827E+00  0.508782806597E+00  0.434361559260E+00  0.572843965346E+00  0.537166654326E+00
  0.569106490945E+00  0.515013352601E+00  0.508252454563E+00  0.527349035927E+00  0.567655258717E+00  0.531857863134E+00  0.506012449239E+00
  0.521051135359E+00  0.443900378981E+00  0.490706187731E+00  0.492149789953E+00  0.501385669720E+00  0.467744048306E+00  0.488189260968E+00
  0.489961995928E+00  0.491321545811E+00  0.486017934166E+00  0.489981940867E+00  0.495091101964E+00
  0.999993490622E+00  0.999993692504E+00  0.999993546154E+00  0.989581159636E+00  0.999993140646E+00  0.985581508375E+00  0.989839361165E+00
  0.991729035733E+00  0.999992726105E+00  0.984216381614E+00  0.985140617688E+00  0.984808803731E+00  0.990067220898E+00  0.100292629646E+01
  0.999859927191E+00  0.100487346224E+01  0.100122738868E+01  0.100057008497E+01  0.997888964741E+00  0.100350843137E+01  0.100059307126E+01
  0.101090476180E+01  0.104024765047E+01  0.100327844475E+01  0.100254887492E+01  0.100046793680E+01  0.100976315371E+01  0.100405567180E+01
  0.100192580000E+01  0.100045822625E+01  0.100058944022E+01  0.100110055874E+01  0.100176392181E+01
        15         7        19        19
         8        20        19        19
        18        19        21        21
         7         4         8         8
         3         6         4         4
        19         7         8         8
        19        18        15        15
        14        13        15        15
         8        22        20        20
        27        24        22        22
        19        20        21        21
        32        26        21        21
        17        18        26        26
        17        16        15        15
        25        29        21        21
        12         7        13        13
        10         8         6         6
        25        20        24        24
         4         6         8         8
        12         2         4         4
        10        23        22        22
        26        31        17        17
        30        16        17        17
         4         7        12        12
        13        11        12        12
        21        20        25        25
        24        28        25        25
        22         8        10        10
         6         5        10        10
        31        26        32        32
         4         2         3         3
         5         6         3         3
        11        13        14        14
        22        23        27        27
        28        24        27        27
        15        13         7         7
         2        12         1         1
        29        25        33        33
        23        10         9         9
        21        26        18        18
        16        14        15        15
        18        17        15        15
        29        32        21        21
        22        24        20        20
        28        33        25        25
        11         1        12        12
        31        30        17        17
         5         9        10        10
zone t="boundary 3 bc-3", solutiontime= 0.5000000E+02, strandid=1003, i=33, j=48, f=feblock
  0.375059159829E+01  0.249769623668E+01  0.500322215753E+01  0.403612265425E+01  0.287976811604E+01  0.124541983852E+01  0.190552277536E+01
  0.500000000000E+01  0.326671125795E+01  0.423253772263E+01  0.201271159438E+01 -0.547454789457E-02  0.958896057123E+00  0.500000000000E+01
  0.266968157739E+01  0.385584498196E+01  0.890374308422E+00  0.154654020440E+01  0.000000000000E+00  0.500000000000E+01  0.315261143133E+01
  0.218304201496E+01  0.398195312396E+01  0.000000000000E+00  0.697379970105E+00  0.963757272160E+00  0.125000000000E+01  0.000000000000E+00
  0.500000000000E+01  0.310330741486E+01  0.250000000000E+01  0.375000000000E+01  0.000000000000E+00
  0.250494205109E+01  0.250494205109E+01  0.250494205109E+01  0.250494205109E+01  0.250494205109E+01  0.250494205109E+01  0.250494205109E+01
  0.250494205109E+01  0.250494205109E+01  0.250494205109E+01  0.250494205109E+01  0.250494205109E+01  0.250494205109E+01  0.250494205109E+01
  0.250494205109E+01  0.250494205109E+01  0.250494205109E+01  0.250494205109E+01  0.250494205109E+01  0.250494205109E+01  0.250494205109E+01
  0.250494205109E+01  0.250494205109E+01  0.250494205109E+01  0.250494205109E+01  0.250494205109E+01  0.250494205109E+01  0.250494205109E+01
  0.250494205109E+01  0.250494205109E+01  0.250494205109E+01  0.250494205109E+01  0.250494205109E+01
  0.136583964942E-03  0.110549738900E-03  0.970966005368E-04  0.101756818401E+01  0.908095282726E+00  0.104109038369E-03  0.722629465269E+00
  0.125000000000E+01  0.188965709564E+01  0.191862728898E+01  0.176708277179E+01  0.811177949225E-04  0.969652977846E+00  0.250000000000E+01
  0.285339465291E+01  0.293325084262E+01  0.205656245254E+01  0.293157039419E+01  0.125000000000E+01  0.375000000000E+01  0.363766858432E+01
  0.396069459095E+01  0.407056395705E+01  0.250000000000E+01  0.307032006010E+01  0.397359827757E+01  0.500000000000E+01  0.375000000000E+01
  0.500000000000E+01  0.433260791223E+01  0.500000000000E+01  0.500000000000E+01  0.500000000000E+01
  0.942172382689E+00  0.946117453724E+00  0.843607471016E+00  0.964577381998E+00  0.979032736894E+00  0.957203883756E+00  0.983413628322E+00
  0.963701347912E+00  0.982803920418E+00  0.984389958171E+00  0.990475732553E+00  0.134610784400E+01  0.101939404163E+01  0.100835626202E+01
  0.993519346496E+00  0.998019549377E+00  0.100803794802E+01  0.100074573542E+01  0.106375546421E+01  0.100671242757E+01  0.100059276802E+01
  0.100235385851E+01  0.100177790981E+01  0.102386943421E+01  0.100869654320E+01  0.100526332350E+01  0.100520806047E+01  0.100826832571E+01
  0.100195893144E+01  0.100162063836E+01  0.100412011055E+01  0.100321751897E+01  0.100424995919E+01
  0.000000000000E+00  0.000000000000E+00  0.000000000000E+00  0.440186064885E+00  0.400364001007E+00  0.000000000000E+00  0.375219165565E+00
  0.494597345814E+00  0.572920168273E+00  0.569359293196E+00  0.559938967692E+00  0.000000000000E+00  0.484436980886E+00  0.533624800435E+00
  0.556225884667E+00  0.564433687998E+00  0.522383220790E+00  0.522300353413E+00  0.444887292115E+00  0.518274035558E+00  0.524589457990E+00
  0.503816827271E+00  0.509770328904E+00  0.471807267284E+00  0.496274709240E+00  0.494958715542E+00  0.489143083252E+00  0.489900744862E+00
  0.493071427581E+00  0.499098512067E+00  0.486813276331E+00  0.484775432227E+00  0.495800903271E+00
  0.000000000000E+00  0.000000000000E+00  0.000000000000E+00  0.000000000000E+00  0.000000000000E+00  0.000000000000E+00  0.000000000000E+00
  0.000000000000E+00  0.000000000000E+00  0.000000000000E+00  0.000000000000E+00  0.000000000000E+00  0.000000000000E+00  0.000000000000E+00
  0.000000000000E+00  0.000000000000E+00  0.000000000000E+00  0.000000000000E+00  0.000000000000E+00  0.000000000000E+00  0.000000000000E+00
  0.000000000000E+00  0.000000000000E+00  0.000000000000E+00  0.000000000000E+00  0.000000000000E+00  0.000000000000E+00  0.000000000000E+00
  0.000000000000E+00  0.000000000000E+00  0.000000000000E+00  0.000000000000E+00  0.000000000000E+00
  0.000000000000E+00  0.000000000000E+00  0.000000000000E+00 -0.226594456821E-01  0.112194833469E-01  0.000000000000E+00  0.181895808466E-01
 -0.100732385772E+00  0.385290282818E-02 -0.389417100780E-01  0.339611218360E-01  0.000000000000E+00  0.656426756618E-01 -0.424642477951E-01
  0.838411248144E-02 -0.653604181170E-02  0.487155149630E-01  0.134268379990E-01  0.453283647316E-01  0.711319450028E-03 -0.736127097061E-03
  0.238397504429E-02  0.837561319912E-03  0.352703254662E-02  0.103006274563E-01  0.427267820922E-02  0.337245524822E-02  0.471453850318E-03
  0.570389942012E-02  0.305980244965E-03  0.160645174665E-02  0.567795718798E-03  0.236433378825E-02
  0.672973103452E+00  0.675791029226E+00  0.602570518584E+00  0.676155616403E+00  0.691393398331E+00  0.683710109563E+00  0.689988573975E+00
  0.677395930190E+00  0.695267860225E+00  0.696328672941E+00  0.703514410946E+00  0.961496278712E+00  0.719946029764E+00  0.722885115687E+00
  0.709495718185E+00  0.713707846738E+00  0.726005208059E+00  0.716614508909E+00  0.782491126658E+00  0.722258491241E+00  0.716132746244E+00
  0.716553860083E+00  0.716542443685E+00  0.737375265579E+00  0.722640579245E+00  0.719421876978E+00  0.719547975798E+00  0.722747146918E+00
  0.716025294703E+00  0.715847806834E+00  0.718137409429E+00  0.717062205139E+00  0.718602761983E+00
  0.000000000000E+00  0.000000000000E+00  0.000000000000E+00  0.444930453145E+00  0.402807413038E+00  0.000000000000E+00  0.379033733545E+00
  0.508818732106E+00  0.575701388063E+00  0.573472085780E+00  0.562547796054E+00  0.000000000000E+00  0.491637769999E+00  0.534336811165E+00
  0.556352165795E+00  0.564140543947E+00  0.522485305591E+00  0.521817732333E+00  0.440666223968E+00  0.517132973405E+00  0.524068289366E+00
  0.503616123789E+00  0.509419877824E+00  0.469884099686E+00  0.495645020972E+00  0.494503349694E+00  0.488630221393E+00  0.489034110087E+00
  0.492987212119E+00  0.498957576736E+00  0.486507811496E+00  0.484614070965E+00  0.495364299523E+00
  0.999989346051E+00  0.999989416950E+00  0.999989633807E+00  0.981380945304E+00  0.988680685729E+00  0.999989834592E+00  0.982276405112E+00
  0.984074894489E+00  0.990406106542E+00  0.990319064132E+00  0.994391021359E+00  0.999990302555E+00  0.988748609969E+00  0.100365237970E+01
  0.999773189080E+00  0.100117376063E+01  0.100830260733E+01  0.100251270324E+01  0.102983027037E+01  0.100441979263E+01  0.100199189599E+01
  0.100081961635E+01  0.100137905951E+01  0.100825880461E+01  0.100297440074E+01  0.100191721335E+01  0.100214791915E+01  0.100354834114E+01
  0.100047554957E+01  0.100056537494E+01  0.100126704230E+01  0.100066742079E+01  0.100178631582E+01
        15         9        16        16
        15        18        11        11
        22        15        21        21
        11         5         9         9
         5         7         2         2
        11         9        15        15
        16        21        15        15
        16        10        14        14
        18        17        11        11
        17        25        24        24
        22        18        15        15
        22        30        31        31
        30        21        23        23
        16        20        23        23
        22        27        26        26
        10         9         4         4
         7        11        13        13
        25        18        26        26
        11         7         5         5
         5         1         4         4
        17        19        13        13
        23        32        30        30
        23        20        29        29
         4         9         5         5
         4         8        10        10
        26        18        22        22
        26        28        25        25
        13        11        17        17
        13         6         7         7
        31        30        32        32
         2         1         5         5
         2         7         6         6
        14        10         8         8
        24        19        17        17
        24        25        28        28
         9        10        16        16
         3         4         1         1
        33        26        27        27
        12        13        19        19
        21        30        22        22
        16        14        20        20
        16        23        21        21
        22        31        27        27
        18        25        17        17
        26        33        28        28
         4         3         8         8
        23        29        32        32
        13        12         6         6
zone t="boundary 4 bc-4", solutiontime= 0.5000000E+02, strandid=1004, i=32, j=46, f=feblock
  0.125000000000E+01  0.219251206392E+01  0.103724302461E+01  0.500000000000E+01  0.250000000000E+01  0.375000000000E+01  0.404200324774E+01
  0.500000000000E+01  0.000000000000E+00  0.310152362409E+01  0.202479342020E+01  0.324151231464E+01  0.922061490191E+00  0.000000000000E+00
  0.299062775774E+01  0.394624082883E+01  0.500000000000E+01  0.409252726285E+01  0.500000000000E+01  0.429310310915E+01  0.175434191980E+01
  0.284428995242E+01  0.000000000000E+00  0.000000000000E+00  0.715990576545E+00  0.930412228790E+00  0.125000000000E+01  0.187029682677E+01
  0.500000000000E+01  0.375000000000E+01  0.250000000000E+01  0.000000000000E+00
  0.250494205109E+01  0.157686156160E+01  0.146289271009E+01  0.250494205109E+01  0.250494205109E+01  0.250494205109E+01  0.155830813274E+01
  0.125000000000E+01  0.250494205109E+01  0.177790177481E+01  0.477386199275E+00  0.742988685424E+00  0.308372018325E+00  0.125000000000E+01
 -0.487811078581E+00 -0.144524380962E+01 -0.125000000000E+01 -0.345533899378E+00  0.000000000000E+00  0.627766083140E+00 -0.739814786992E+00
 -0.158811787973E+01  0.000000000000E+00 -0.125000000000E+01 -0.600232012419E+00 -0.154800130438E+01 -0.249658898644E+01 -0.178862290564E+01
 -0.249658898644E+01 -0.249658898644E+01 -0.249658898644E+01 -0.249658898644E+01
  0.500000000000E+01  0.500000000000E+01  0.500000000000E+01  0.500000000000E+01  0.500000000000E+01  0.500000000000E+01  0.500000000000E+01
  0.500000000000E+01  0.500000000000E+01  0.500000000000E+01  0.500000000000E+01  0.500000000000E+01  0.500000000000E+01  0.500000000000E+01
  0.500000000000E+01  0.500000000000E+01  0.500000000000E+01  0.500000000000E+01  0.500000000000E+01  0.500000000000E+01  0.500000000000E+01
  0.500000000000E+01  0.500000000000E+01  0.500000000000E+01  0.500000000000E+01  0.500000000000E+01  0.500000000000E+01  0.500000000000E+01
  0.500000000000E+01  0.500000000000E+01  0.500000000000E+01  0.500000000000E+01
  0.100520806047E+01  0.100431923850E+01  0.100430498712E+01  0.100195893144E+01  0.100412011055E+01  0.100321751897E+01  0.100258950659E+01
  0.100200889646E+01  0.100424995919E+01  0.100371855647E+01  0.100446255863E+01  0.100347199657E+01  0.100365301513E+01  0.100423991990E+01
  0.100362939203E+01  0.100164315466E+01  0.100227308846E+01  0.100227913460E+01  0.100213224219E+01  0.100254678061E+01  0.100442989539E+01
  0.100338023667E+01  0.100288596723E+01  0.100335006104E+01  0.100323313496E+01  0.100406903786E+01  0.100511534110E+01  0.100432403576E+01
  0.100179357863E+01  0.100266912044E+01  0.100322320624E+01  0.100399794253E+01
  0.489143083252E+00  0.489273561650E+00  0.491032974009E+00  0.493071427581E+00  0.486813276331E+00  0.484775432227E+00  0.485406769431E+00
  0.494264086125E+00  0.495800903271E+00  0.486819186331E+00  0.488146802314E+00  0.487231249979E+00  0.494435307977E+00  0.496535899853E+00
  0.487825247758E+00  0.483167755042E+00  0.492561906820E+00  0.487246889689E+00  0.494865198369E+00  0.488002438708E+00  0.490072122790E+00
  0.488216389867E+00  0.497536487287E+00  0.496381521629E+00  0.495257685674E+00  0.493195603478E+00  0.490417259512E+00  0.490359933474E+00
  0.491396777247E+00  0.486161133405E+00  0.490250027116E+00  0.495515502767E+00
  0.000000000000E+00 -0.578634899412E-04 -0.127351885244E-02  0.000000000000E+00  0.000000000000E+00  0.000000000000E+00  0.474018873397E-03
  0.850810264467E-03  0.000000000000E+00  0.314096660243E-03 -0.890188031876E-03 -0.751267608344E-03 -0.173054567114E-02 -0.665397018656E-04
 -0.105319238943E-02 -0.998839642786E-03 -0.129445630561E-02 -0.207759818613E-02 -0.126376155549E-02 -0.997048193660E-03 -0.597640512741E-03
 -0.743087249600E-03 -0.202432934133E-03  0.805362240183E-03  0.601394335591E-04  0.162347659386E-02  0.000000000000E+00  0.803300650100E-03
  0.000000000000E+00  0.000000000000E+00  0.000000000000E+00  0.000000000000E+00