title="tecplot geometry and solution file"
variables = x y z rho u v w p mach temperature
zone t="boundary 1 bc-1", solutiontime= 0.6000000E+02, strandid=1001, i=32, j=46, f=feblock
 -0.547403479148E-02  0.000000000000E+00 -0.567603753933E-02  0.000000000000E+00  0.000000000000E+00  0.000000000000E+00 -0.525075884234E-02
 -0.425736813022E-02  0.000000000000E+00  0.000000000000E+00  0.000000000000E+00  0.000000000000E+00  0.000000000000E+00  0.000000000000E+00
  0.000000000000E+00  0.000000000000E+00 -0.338374936954E-02  0.000000000000E+00  0.000000000000E+00  0.000000000000E+00  0.000000000000E+00
  0.000000000000E+00  0.000000000000E+00  0.000000000000E+00  0.000000000000E+00  0.000000000000E+00  0.000000000000E+00  0.000000000000E+00
  0.000000000000E+00  0.000000000000E+00  0.000000000000E+00  0.000000000000E+00
  0.250494207673E+01  0.250494207673E+01  0.127822194553E+01  0.146289271009E+01  0.157686156160E+01  0.308372018325E+00  0.261954449698E-01
 -0.122573381648E+01 -0.600232012419E+00  0.250494207673E+01  0.477386199275E+00  0.742988685424E+00 -0.739814786992E+00  0.177790177481E+01
  0.155830813274E+01  0.250494207673E+01 -0.249658897678E+01 -0.154800130438E+01 -0.487811078581E+00  0.250494207673E+01  0.627766083140E+00
 -0.345533899378E+00 -0.178862290564E+01 -0.158811787973E+01  0.125000000000E+01 -0.249658897678E+01 -0.144524380962E+01  0.000000000000E+00
 -0.125000000000E+01 -0.249658897678E+01 -0.249658897678E+01 -0.249658897678E+01
  0.815015939903E-04  0.125000000000E+01  0.825616560012E-04  0.103724302461E+01  0.219251206392E+01  0.922061490191E+00  0.104933472595E-03
  0.349514350672E-04  0.715990576545E+00  0.250000000000E+01  0.202479342020E+01  0.324151231464E+01  0.175434191980E+01  0.310152362409E+01
  0.404200324774E+01  0.375000000000E+01  0.813879907819E-04  0.930412228790E+00  0.299062775774E+01  0.500000000000E+01  0.429310310915E+01
  0.409252726285E+01  0.187029682677E+01  0.284428995242E+01  0.500000000000E+01  0.125000000000E+01  0.394624082883E+01  0.500000000000E+01
  0.500000000000E+01  0.250000000000E+01  0.375000000000E+01  0.500000000000E+01
  0.121959971282E+01  0.105831356381E+01  0.128671962466E+01  0.108337053536E+01  0.102354614707E+01  0.116941702860E+01  0.145633694353E+01
  0.134804046829E+01  0.119311467763E+01  0.101662522459E+01  0.101712194971E+01  0.100667542717E+01  0.102800076598E+01  0.100987438516E+01
  0.100346383260E+01  0.100488609622E+01  0.130024668099E+01  0.114206736842E+01  0.100787501018E+01  0.100194476488E+01  0.100378959997E+01
  0.100390910093E+01  0.103478537089E+01  0.101224062903E+01  0.100190260603E+01  0.106018059640E+01  0.100437851503E+01  0.100077796232E+01
  0.100130067701E+01  0.102043484927E+01  0.100593736384E+01  0.100184292224E+01
  0.000000000000E+00  0.451834063783E+00  0.000000000000E+00  0.472912031336E+00  0.470158336029E+00  0.459504985310E+00  0.000000000000E+00
  0.000000000000E+00  0.401768607404E+00  0.478881792760E+00  0.474223495189E+00  0.485492999363E+00  0.492581090789E+00  0.489510445886E+00
  0.492201648774E+00  0.493575543670E+00  0.000000000000E+00  0.464516488777E+00  0.481634330956E+00  0.498235962644E+00  0.494015374215E+00
  0.490674201108E+00  0.458608946749E+00  0.473144558284E+00  0.498753316125E+00  0.451330962712E+00  0.491521108112E+00  0.499569337913E+00
  0.498567815568E+00  0.477380966163E+00  0.492957762564E+00  0.497856403324E+00
  0.000000000000E+00  0.000000000000E+00  0.000000000000E+00  0.156898346327E-01 -0.426047068124E-02  0.288059778050E-01  0.000000000000E+00
  0.000000000000E+00 -0.370116738678E-02  0.000000000000E+00  0.249850268105E-02 -0.528108286354E-02 -0.303262960247E-02 -0.172450357193E-03
 -0.109130972024E-02  0.000000000000E+00  0.000000000000E+00 -0.850278844215E-02  0.955098284683E-03  0.000000000000E+00 -0.167361389767E-02
 -0.105339283967E-02  0.212715960583E-02 -0.123596255210E-02  0.695900207666E-04  0.000000000000E+00  0.214869635116E-03 -0.176723380280E-03
  0.608283576315E-03  0.000000000000E+00  0.000000000000E+00  0.000000000000E+00
  0.000000000000E+00  0.388446353192E-01  0.000000000000E+00  0.103917066744E+00  0.224193285254E-01  0.135341767344E+00  0.000000000000E+00
  0.000000000000E+00  0.126992318360E+00  0.342255542311E-02  0.213553587748E-01 -0.708603534383E-02  0.636034584403E-01  0.292766494295E-02
 -0.792041552285E-03  0.244077526542E-03  0.000000000000E+00  0.115618455864E+00 -0.829814976839E-02  0.114480698968E-02 -0.749344433514E-03
 -0.442111408427E-02  0.223714011187E-01 -0.264557095499E-02  0.180778975114E-02  0.687953605776E-01 -0.177101707745E-02  0.155938520321E-02
  0.142678727073E-02  0.233070424476E-02 -0.110520717266E-02  0.211864484911E-02
  0.908102104608E+00  0.774899694270E+00  0.958078939278E+00  0.800622223506E+00  0.737949074908E+00  0.857914812993E+00  0.108437434803E+01
  0.100373784405E+01  0.887195926563E+00  0.730580348736E+00  0.733315339158E+00  0.720299332328E+00  0.748106672522E+00  0.724222065737E+00
  0.717576385181E+00  0.719224736307E+00  0.968151054080E+00  0.840784325673E+00  0.722225747147E+00  0.716319887247E+00  0.717948116028E+00
  0.717912570713E+00  0.749167987114E+00  0.726422688892E+00  0.716249844593E+00  0.782033712319E+00  0.718602108374E+00  0.715132537462E+00
  0.715579063542E+00  0.734165580615E+00  0.720297839388E+00  0.716213116966E+00
  0.000000000000E+00  0.447917906438E+00  0.000000000000E+00  0.476275923189E+00  0.468523765080E+00  0.473519687912E+00  0.000000000000E+00
  0.000000000000E+00  0.412988882035E+00  0.477443347460E+00  0.472504665704E+00  0.485153448709E+00  0.492070523456E+00  0.488543840483E+00
  0.491923385700E+00  0.493078173579E+00  0.000000000000E+00  0.471586674384E+00  0.480934105395E+00  0.498012892830E+00  0.493689913729E+00
  0.490409926286E+00  0.456073466729E+00  0.472047046395E+00  0.498545864660E+00  0.449258006905E+00  0.491117578838E+00  0.499470102882E+00
  0.498443303452E+00  0.475665757458E+00  0.492352556404E+00  0.497648493584E+00
  0.104242640687E+01  0.102508331092E+01  0.104242640687E+01  0.103461472906E+01  0.100936211604E+01  0.102707649095E+01  0.104242640687E+01
  0.104242640687E+01  0.104103513307E+01  0.100608608118E+01  0.100935927606E+01  0.100173207575E+01  0.101882155752E+01  0.100399703858E+01
  0.100113916079E+01  0.100201867119E+01  0.104242640687E+01  0.103067304828E+01  0.100321571206E+01  0.100090132440E+01  0.100133271203E+01
  0.100116394808E+01  0.101357751227E+01  0.100469368180E+01  0.100084556762E+01  0.103269876940E+01  0.100165718071E+01  0.100040727328E+01
  0.100050934945E+01  0.100724883474E+01  0.100246497585E+01  0.100085386790E+01
        12        19        11        11
        11         5        12        12
        10        14         5         5
        19        13        11        11
        19        24        13        13
        30        23        24        24
        19        12        22        22
        28        22        21        21
        11        13         6         6
         7         6         9         9
        15        12        14        14
        18        13        23        23
        15        25        21        21
        27        19        22        22
        18         8         9         9
        27        31        24        24
         4        11         6         6
         5        14        12        12
         4         2         5         5
        21        12        15        15
        14        16        15        15
        24        19        27        27
        22        29        27        27
        23        26        18        18
        17         8        18        18
         5        11         4         4
         6         3         4         4
        26        23        30        30
         5         2        10        10
        16        14        10        10
         3         6         7         7
        21        25        28        28
        29        22        28        28
         6        13         9         9
         2         4         1         1
        31        27        32        32
        25        15        20        20
        24        23        13        13
         8         7         9         9
        13        18         9         9
        31        30        24        24
        12        21        22        22
        29        32        27        27
         3         1         4         4
        26        17        18        18
        16        20        15        15
zone t="boundary 2 bc-2", solutiontime= 0.6000000E+02, strandid=1002, i=33, j=48, f=feblock
  0.500195341135E+01  0.375034910129E+01  0.249861170242E+01  0.288036698845E+01  0.124717549663E+01  0.190856748382E+01  0.326577206104E+01
  0.201394882463E+01 -0.338374936954E-02  0.962374532454E+00  0.500000000000E+01  0.403430207908E+01  0.423029574132E+01  0.500000000000E+01
  0.385439196956E+01  0.500000000000E+01  0.398133436420E+01  0.315200086795E+01  0.266958039312E+01  0.154798037926E+01  0.218327863071E+01
  0.893688549420E+00  0.000000000000E+00  0.699009795070E+00  0.964460910475E+00  0.310303673914E+01  0.000000000000E+00  0.000000000000E+00
  0.125000000000E+01  0.500000000000E+01  0.375000000000E+01  0.250000000000E+01  0.000000000000E+00
 -0.249658897678E+01 -0.249658897678E+01 -0.249658897678E+01 -0.249658897678E+01 -0.249658897678E+01 -0.249658897678E+01 -0.249658897678E+01
 -0.249658897678E+01 -0.249658897678E+01 -0.249658897678E+01 -0.249658897678E+01 -0.249658897678E+01 -0.249658897678E+01 -0.249658897678E+01
 -0.249658897678E+01 -0.249658897678E+01 -0.249658897678E+01 -0.249658897678E+01 -0.249658897678E+01 -0.249658897678E+01 -0.249658897678E+01
 -0.249658897678E+01 -0.249658897678E+01 -0.249658897678E+01 -0.249658897678E+01 -0.249658897678E+01 -0.249658897678E+01 -0.249658897678E+01
 -0.249658897678E+01 -0.249658897678E+01 -0.249658897678E+01 -0.249658897678E+01 -0.249658897678E+01
  0.109048776423E-03  0.146000800505E-03  0.100982141136E-03  0.901663553469E+00  0.111272491260E-03  0.714928384187E+00  0.188140665818E+01
  0.175892180762E+01  0.813879907819E-04  0.957504577548E+00  0.125000000000E+01  0.100596727486E+01  0.191313533373E+01  0.250000000000E+01
  0.292898109395E+01  0.375000000000E+01  0.406883375261E+01  0.363389299802E+01  0.284756876624E+01  0.292582316470E+01  0.395754061536E+01
  0.205027268305E+01  0.125000000000E+01  0.306703276451E+01  0.397155769281E+01  0.433068627066E+01  0.250000000000E+01  0.375000000000E+01
  0.500000000000E+01  0.500000000000E+01  0.500000000000E+01  0.500000000000E+01  0.500000000000E+01
  0.768735743489E+00  0.889523380054E+00  0.898746487344E+00  0.950542456841E+00  0.924960135255E+00  0.947969336720E+00  0.981017553472E+00
  0.987799009951E+00  0.130024668099E+01  0.101390436003E+01  0.944836348741E+00  0.944236800651E+00  0.978087767784E+00  0.100717422457E+01
  0.997784687202E+00  0.100978229621E+01  0.100012042250E+01  0.996167626324E+00  0.989919915864E+00  0.998867626824E+00  0.997941843577E+00
  0.100913681391E+01  0.106018059640E+01  0.100643337521E+01  0.100351221258E+01  0.998477818305E+00  0.102043484927E+01  0.100593736384E+01
  0.100234892543E+01  0.999828414357E+00  0.100019291589E+01  0.100028687165E+01  0.100184292224E+01
  0.000000000000E+00  0.000000000000E+00  0.000000000000E+00  0.385195764802E+00  0.000000000000E+00  0.340885851480E+00  0.583453469782E+00
  0.571759462129E+00  0.000000000000E+00  0.480963160229E+00  0.505185167694E+00  0.443662029850E+00  0.572024021466E+00  0.532003765268E+00
  0.566400141724E+00  0.512620358592E+00  0.508195578024E+00  0.526914214984E+00  0.564509553560E+00  0.531478326954E+00  0.508129380469E+00
  0.521930180862E+00  0.451330962712E+00  0.494980685649E+00  0.496091696403E+00  0.503538717658E+00  0.477380966163E+00  0.492957762564E+00
  0.494536383397E+00  0.491695277311E+00  0.489493219280E+00  0.494635424864E+00  0.497856403324E+00
  0.000000000000E+00  0.000000000000E+00  0.000000000000E+00  0.000000000000E+00  0.000000000000E+00  0.000000000000E+00  0.000000000000E+00
  0.000000000000E+00  0.000000000000E+00  0.000000000000E+00  0.000000000000E+00  0.000000000000E+00  0.000000000000E+00  0.000000000000E+00
  0.000000000000E+00  0.000000000000E+00  0.000000000000E+00  0.000000000000E+00  0.000000000000E+00  0.000000000000E+00  0.000000000000E+00
  0.000000000000E+00  0.000000000000E+00  0.000000000000E+00  0.000000000000E+00  0.000000000000E+00  0.000000000000E+00  0.000000000000E+00
  0.000000000000E+00  0.000000000000E+00  0.000000000000E+00  0.000000000000E+00  0.000000000000E+00
  0.000000000000E+00  0.000000000000E+00  0.000000000000E+00 -0.142933790083E-02  0.000000000000E+00  0.168978020196E-01  0.875997483995E-02
  0.403963896005E-01  0.000000000000E+00  0.730722624037E-01 -0.112216768683E+00 -0.262898182559E-01 -0.368283730647E-01 -0.483402011029E-01
 -0.588591772614E-02 -0.170483594346E-03 -0.195986006657E-02 -0.317074079186E-02  0.106422552599E-01  0.235146851325E-01  0.228804462614E-02
  0.486674923937E-01  0.687953605776E-01  0.868228589780E-02  0.441101639229E-02 -0.351502248199E-02  0.233070424476E-02 -0.110520717266E-02
  0.135829412130E-02  0.546603273353E-02 -0.147515704157E-02 -0.124161934637E-02  0.211864484911E-02
  0.572393170656E+00  0.662330472070E+00  0.669197908207E+00  0.681370892822E+00  0.688716335924E+00  0.681181033351E+00  0.693024465662E+00
  0.700085134446E+00  0.968151054080E+00  0.722087333435E+00  0.666760584459E+00  0.671480436797E+00  0.691232282612E+00  0.720038377121E+00
  0.710710003985E+00  0.723770716935E+00  0.714752641402E+00  0.710894219621E+00  0.704007888515E+00  0.714159227209E+00  0.712429498300E+00
  0.725804158588E+00  0.782033712319E+00  0.720438335654E+00  0.717728354164E+00  0.712837431319E+00  0.734165580615E+00  0.720297839388E+00
  0.716518298678E+00  0.714353114507E+00  0.714323979494E+00  0.714486134036E+00  0.716213116966E+00
  0.000000000000E+00  0.000000000000E+00  0.000000000000E+00  0.384516027429E+00  0.000000000000E+00  0.340285741445E+00  0.586752919007E+00
  0.575425985398E+00  0.000000000000E+00  0.487199393764E+00  0.520641019295E+00  0.445423536292E+00  0.576269183868E+00  0.533962364943E+00
  0.567224507715E+00  0.511735126005E+00  0.508063922469E+00  0.527166107218E+00  0.565842688016E+00  0.531744051177E+00  0.508272206041E+00
  0.522388436458E+00  0.449258006905E+00  0.494521460889E+00  0.495788428355E+00  0.503678479434E+00  0.475665757458E+00  0.492352556404E+00
  0.494346757948E+00  0.491660274115E+00  0.489529543330E+00  0.494638536911E+00  0.497648493584E+00
  0.104242640687E+01  0.104242640687E+01  0.104242640687E+01  0.100355249057E+01  0.104242640687E+01  0.100599609054E+01  0.989008044243E+00
  0.992225319474E+00  0.104242640687E+01  0.997058802254E+00  0.987964550143E+00  0.995589888964E+00  0.989405273772E+00  0.100087323859E+01
  0.997203122418E+00  0.100346283304E+01  0.100053321125E+01  0.999080758268E+00  0.995647251991E+00  0.100095637424E+01  0.999458339221E+00
  0.100692572902E+01  0.103269876940E+01  0.100216635771E+01  0.100130290717E+01  0.999493815036E+00  0.100724883474E+01  0.100246497585E+01
  0.100077487260E+01  0.100026599159E+01  0.999860682281E+00  0.999993717802E+00  0.100085386790E+01
        15         7        19        19
         8        20        19        19
        18        19        21        21
         7         4         8         8
         3         6         4         4
        19         7         8         8
        19        18        15        15
        14        13        15        15
         8        22        20        20
        27        24        22        22
        19        20        21        21
        32        26        21        21
        17        18        26        26
        17        16        15        15
        25        29        21        21
        12         7        13        13
        10         8         6         6
        25        20        24        24
         4         6         8         8
        12         2         4         4
        10        23        22        22
        26        31        17        17
        30        16        17        17
         4         7        12        12
        13        11        12        12
        21        20        25        25
        24        28        25        25
        22         8        10        10
         6         5        10        10
        31        26        32        32
         4         2         3         3
         5         6         3         3
        11        13        14        14
        22        23        27        27
        28        24        27        27
        15        13         7         7
         2        12         1         1
        29        25        33        33
        23        10         9         9
        21        26        18        18
        16        14        15        15
        18        17        15        15
        29        32        21        21
        22        24        20        20
        28        33        25        25
        11         1        12        12
        31        30        17        17
         5         9        10        10
zone t="boundary 3 bc-3", solutiontime= 0.6000000E+02, strandid=1003, i=33, j=48, f=feblock
  0.375059129253E+01  0.249769657785E+01  0.500322230564E+01  0.403612260305E+01  0.287976809936E+01  0.124541967296E+01  0.190552274834E+01
  0.500000000000E+01  0.326671130751E+01  0.423253775190E+01  0.201271162023E+01 -0.547403479148E-02  0.958896010995E+00  0.500000000000E+01
  0.266968161398E+01  0.385584500913E+01  0.890374272111E+00  0.154654019987E+01  0.000000000000E+00  0.500000000000E+01  0.315261145343E+01
  0.218304202511E+01  0.398195313599E+01  0.000000000000E+00  0.697379950198E+00  0.963757268001E+00  0.125000000000E+01  0.000000000000E+00
  0.500000000000E+01  0.310330742607E+01  0.250000000000E+01  0.375000000000E+01  0.000000000000E+00
  0.250494207673E+01  0.250494207673E+01  0.250494207673E+01  0.250494207673E+01  0.250494207673E+01  0.250494207673E+01  0.250494207673E+01
  0.250494207673E+01  0.250494207673E+01  0.250494207673E+01  0.250494207673E+01  0.250494207673E+01  0.250494207673E+01  0.250494207673E+01
  0.250494207673E+01  0.250494207673E+01  0.250494207673E+01  0.250494207673E+01  0.250494207673E+01  0.250494207673E+01  0.250494207673E+01
  0.250494207673E+01  0.250494207673E+01  0.250494207673E+01  0.250494207673E+01  0.250494207673E+01  0.250494207673E+01  0.250494207673E+01
  0.250494207673E+01  0.250494207673E+01  0.250494207673E+01  0.250494207673E+01  0.250494207673E+01
  0.136199821606E-03  0.111001462289E-03  0.971034542287E-04  0.101756807774E+01  0.908095367282E+00  0.104727772947E-03  0.722629994500E+00
  0.125000000000E+01  0.188965717990E+01  0.191862731201E+01  0.176708306015E+01  0.815015939903E-04  0.969653435852E+00  0.250000000000E+01
  0.285339475342E+01  0.293325088171E+01  0.205656266805E+01  0.293157053464E+01  0.125000000000E+01  0.375000000000E+01  0.363766863445E+01
  0.396069464261E+01  0.407056397715E+01  0.250000000000E+01  0.307032015158E+01  0.397359831779E+01  0.500000000000E+01  0.375000000000E+01
  0.500000000000E+01  0.433260793845E+01  0.500000000000E+01  0.500000000000E+01  0.500000000000E+01
  0.896676647773E+00  0.910447762722E+00  0.781948673687E+00  0.945770010914E+00  0.960130118539E+00  0.922179283298E+00  0.963950510809E+00
  0.950682180377E+00  0.978092881344E+00  0.979670598060E+00  0.986799178201E+00  0.121959971282E+01  0.100543677986E+01  0.100849097576E+01
  0.992240053071E+00  0.997800264742E+00  0.100537161945E+01  0.998282948597E+00  0.105831356381E+01  0.100697675719E+01  0.998804016602E+00
  0.999311197484E+00  0.100000736890E+01  0.101662522459E+01  0.100449252127E+01  0.100204227080E+01  0.100246725623E+01  0.100488609622E+01
  0.100014590836E+01  0.998721196643E+00  0.100101036907E+01  0.100049286940E+01  0.100194476488E+01
  0.000000000000E+00  0.000000000000E+00  0.000000000000E+00  0.451193581614E+00  0.403035928034E+00  0.000000000000E+00  0.369780818129E+00
  0.504465693546E+00  0.572441533069E+00  0.570700493554E+00  0.555903904116E+00  0.000000000000E+00  0.475076213139E+00  0.529012494892E+00
  0.555007167051E+00  0.562172004635E+00  0.523997645663E+00  0.523269511281E+00  0.451834063783E+00  0.514483255608E+00  0.524697307272E+00
  0.506246209172E+00  0.509778396493E+00  0.478881792760E+00  0.499519883093E+00  0.498081336042E+00  0.493201216832E+00  0.493575543670E+00
  0.493226501287E+00  0.501441532647E+00  0.491213273104E+00  0.488103499211E+00  0.498235962644E+00
  0.000000000000E+00  0.000000000000E+00  0.000000000000E+00  0.000000000000E+00  0.000000000000E+00  0.000000000000E+00  0.000000000000E+00
  0.000000000000E+00  0.000000000000E+00  0.000000000000E+00  0.000000000000E+00  0.000000000000E+00  0.000000000000E+00  0.000000000000E+00
  0.000000000000E+00  0.000000000000E+00  0.000000000000E+00  0.000000000000E+00  0.000000000000E+00  0.000000000000E+00  0.000000000000E+00
  0.000000000000E+00  0.000000000000E+00  0.000000000000E+00  0.000000000000E+00  0.000000000000E+00  0.000000000000E+00  0.000000000000E+00
  0.000000000000E+00  0.000000000000E+00  0.000000000000E+00  0.000000000000E+00  0.000000000000E+00
  0.000000000000E+00  0.000000000000E+00  0.000000000000E+00 -0.279073742989E-01  0.124067924709E-01  0.000000000000E+00  0.162362030251E-01
 -0.114474117173E+00  0.481999106757E-03 -0.460951522016E-01  0.299463017865E-01  0.000000000000E+00  0.536074015626E-01 -0.502845413575E-01
  0.507334691575E-02 -0.105803092163E-01  0.439389134162E-01  0.105965538212E-01  0.388446353192E-01 -0.221863829764E-02 -0.367150197460E-02
 -0.404342818752E-03 -0.149356953104E-02  0.342255542311E-02  0.804275292468E-02  0.207982667878E-02  0.580599353395E-03  0.244077526542E-03
  0.506601355101E-02 -0.210226268852E-02 -0.607639791595E-03 -0.695779848471E-03  0.114480698968E-02
  0.667656725759E+00  0.677910564242E+00  0.582231390192E+00  0.670520813732E+00  0.688130583536E+00  0.686645740557E+00  0.690430273146E+00
  0.670645807121E+00  0.691903431383E+00  0.692624417885E+00  0.700947330392E+00  0.908102104608E+00  0.717683210290E+00  0.721491975688E+00
  0.706702650871E+00  0.711393847399E+00  0.721305341203E+00  0.713317610517E+00  0.774899694270E+00  0.721207794702E+00  0.713532245995E+00
  0.713575103787E+00  0.714554239554E+00  0.730580348736E+00  0.718615628762E+00  0.716241099553E+00  0.716741918519E+00  0.719224736307E+00
  0.714565182045E+00  0.713128385901E+00  0.715136919298E+00  0.714653006782E+00  0.716319887247E+00
  0.000000000000E+00  0.000000000000E+00  0.000000000000E+00  0.453747965189E+00  0.402545555061E+00  0.000000000000E+00  0.369629009288E+00
  0.520525438826E+00  0.575220796458E+00  0.575502707440E+00  0.558260160842E+00  0.000000000000E+00  0.478252986742E+00  0.530976527655E+00
  0.555830960813E+00  0.562793215558E+00  0.524675221135E+00  0.523282002552E+00  0.447917906438E+00  0.513796075054E+00  0.524673086547E+00
  0.506323910760E+00  0.509686667085E+00  0.477443347460E+00  0.499194823081E+00  0.497912969476E+00  0.492962766379E+00  0.493078173579E+00
  0.493192028611E+00  0.501531681995E+00  0.491169167001E+00  0.488098789676E+00  0.498012892830E+00
  0.104242640687E+01  0.104242640687E+01  0.104242640687E+01  0.992555408178E+00  0.100338776833E+01  0.104242640687E+01  0.100275104538E+01
  0.987610948590E+00  0.990360754497E+00  0.989796148786E+00  0.994453870887E+00  0.104242640687E+01  0.999323393104E+00  0.100158433763E+01
  0.997121319743E+00  0.998147045607E+00  0.100443205094E+01  0.100036232826E+01  0.102508331092E+01  0.100269535058E+01  0.100014129678E+01
  0.999693736862E+00  0.100036856376E+01  0.100608608118E+01  0.100156234015E+01  0.100069385155E+01  0.100096903883E+01  0.100201867119E+01
  0.100024531071E+01  0.999658106403E+00  0.100018113494E+01  0.100002132958E+01  0.100090132440E+01
        15         9        16        16
        15        18        11        11
        22        15        21        21
        11         5         9         9
         5         7         2         2
        11         9        15        15
        16        21        15        15
        16        10        14        14
        18        17        11        11
        17        25        24        24
        22        18        15        15
        22        30        31        31
        30        21        23        23
        16        20        23        23
        22        27        26        26
        10         9         4         4
         7        11        13        13
        25        18        26        26
        11         7         5         5
         5         1         4         4
        17        19        13        13
        23        32        30        30
        23        20        29        29
         4         9         5         5
         4         8        10        10
        26        18        22        22
        26        28        25        25
        13        11        17        17
        13         6         7         7
        31        30        32        32
         2         1         5         5
         2         7         6         6
        14        10         8         8
        24        19        17        17
        24        25        28        28
         9        10        16        16
         3         4         1         1
        33        26        27        27
        12        13        19        19
        21        30        22        22
        16        14        20        20
        16        23        21        21
        22        31        27        27
        18        25        17        17
        26        33        28        28
         4         3         8         8
        23        29        32        32
        13        12         6         6
zone t="boundary 4 bc-4", solutiontime= 0.6000000E+02, strandid=1004, i=32, j=46, f=feblock
  0.125000000000E+01  0.219251206392E+01  0.103724302461E+01  0.500000000000E+01  0.250000000000E+01  0.375000000000E+01  0.404200324774E+01
  0.500000000000E+01  0.000000000000E+00  0.310152362409E+01  0.202479342020E+01  0.324151231464E+01  0.922061490191E+00  0.000000000000E+00
  0.299062775774E+01  0.394624082883E+01  0.500000000000E+01  0.409252726285E+01  0.500000000000E+01  0.429310310915E+01  0.175434191980E+01
  0.284428995242E+01  0.000000000000E+00  0.000000000000E+00  0.715990576545E+00  0.930412228790E+00  0.125000000000E+01  0.187029682677E+01
  0.500000000000E+01  0.375000000000E+01  0.250000000000E+01  0.000000000000E+00
  0.250494207673E+01  0.157686156160E+01  0.146289271009E+01  0.250494207673E+01  0.250494207673E+01  0.250494207673E+01  0.155830813274E+01
  0.125000000000E+01  0.250494207673E+01  0.177790177481E+01  0.477386199275E+00  0.742988685424E+00  0.308372018325E+00  0.125000000000E+01
 -0.487811078581E+00 -0.144524380962E+01 -0.125000000000E+01 -0.345533899378E+00  0.000000000000E+00  0.627766083140E+00 -0.739814786992E+00
 -0.158811787973E+01  0.000000000000E+00 -0.125000000000E+01 -0.600232012419E+00 -0.154800130438E+01 -0.249658897678E+01 -0.178862290564E+01
 -0.249658897678E+01 -0.249658897678E+01 -0.249658897678E+01 -0.249658897678E+01
  0.500000000000E+01  0.500000000000E+01  0.500000000000E+01  0.500000000000E+01  0.500000000000E+01  0.500000000000E+01  0.500000000000E+01
  0.500000000000E+01  0.500000000000E+01  0.500000000000E+01  0.500000000000E+01  0.500000000000E+01  0.500000000000E+01  0.500000000000E+01
  0.500000000000E+01  0.500000000000E+01  0.500000000000E+01  0.500000000000E+01  0.500000000000E+01  0.500000000000E+01  0.500000000000E+01
  0.500000000000E+01  0.500000000000E+01  0.500000000000E+01  0.500000000000E+01  0.500000000000E+01  0.500000000000E+01  0.500000000000E+01
  0.500000000000E+01  0.500000000000E+01  0.500000000000E+01  0.500000000000E+01
  0.100246725623E+01  0.100134430485E+01  0.100190794348E+01  0.100014590836E+01  0.100101036907E+01  0.100049286940E+01  0.999775592841E+00
  0.100034297689E+01  0.100194476488E+01  0.100086117697E+01  0.100110853506E+01  0.100019876768E+01  0.100152581724E+01  0.100190260603E+01
  0.100054385457E+01  0.998652399326E+00  0.100067113342E+01  0.999536491635E+00  0.100054145072E+01  0.999923235334E+00  0.100145779195E+01
  0.100044294211E+01  0.100077796232E+01  0.100130067701E+01  0.100105884066E+01  0.100174639373E+01  0.100234892543E+01  0.100133132837E+01
  0.999828414357E+00  0.100019291589E+01  0.100028687165E+01  0.100184292224E+01
  0.493201216832E+00  0.493601216790E+00  0.494657951568E+00  0.493226501287E+00  0.491213273104E+00  0.488103499211E+00  0.488185417060E+00
  0.494186665407E+00  0.498235962644E+00  0.490793318633E+00  0.492762895819E+00  0.491176776171E+00  0.497637811561E+00  0.498753316125E+00
  0.492051496926E+00  0.486062293804E+00  0.492255088300E+00  0.489681611921E+00  0.494622557013E+00  0.490040124596E+00  0.494628967850E+00
  0.492616664289E+00  0.499569337913E+00  0.498567815568E+00  0.498183510462E+00  0.496570938692E+00  0.494536383397E+00  0.494839500479E+00
  0.491695277311E+00  0.489493219280E+00  0.494635424864E+00  0.497856403324E+00
  0.000000000000E+00 -0.121469716491E-03 -0.110879884266E-02  0.000000000000E+00  0.000000000000E+00  0.000000000000E+00  0.121295044581E-03
  0.633473302947E-03  0.000000000000E+00  0.102566240969E-03 -0.874325660134E-03 -0.898643602005E-03 -0.157079884005E-02  0.695900207666E-04
 -0.888524196358E-03 -0.918890217380E-03 -0.139167962012E-02 -0.210154205325E-02 -0.141209653897E-02 -0.122049445904E-02 -0.534198535387E-03
 -0.644839794560E-03 -0.176723380280E-03  0.608283576315E-03 -0.247273385878E-04  0.142363452213E-02  0.000000000000E+00  0.724012449280E-03
  0.000000000000E+00  0.000000000000E+00  0.000000000000E+00  0.000000000000E+00