title="tecplot geometry and solution file"
variables = x y z rho u v w p mach temperature
zone t="boundary 1 bc-1", solutiontime= 0.2000000E+02, strandid=1001, i=32, j=46, f=feblock
 -0.547403479148E-02  0.000000000000E+00 -0.567603753933E-02  0.000000000000E+00  0.000000000000E+00  0.000000000000E+00 -0.525075884234E-02
 -0.425736813022E-02  0.000000000000E+00  0.000000000000E+00  0.000000000000E+00  0.000000000000E+00  0.000000000000E+00  0.000000000000E+00
  0.000000000000E+00  0.000000000000E+00 -0.338374936954E-02  0.000000000000E+00  0.000000000000E+00  0.000000000000E+00  0.000000000000E+00
  0.000000000000E+00  0.000000000000E+00  0.000000000000E+00  0.000000000000E+00  0.000000000000E+00  0.000000000000E+00  0.000000000000E+00
  0.000000000000E+00  0.000000000000E+00  0.000000000000E+00  0.000000000000E+00
  0.250494207673E+01  0.250494207673E+01  0.127822194553E+01  0.146289271009E+01  0.157686156160E+01  0.308372018325E+00  0.261954449698E-01
 -0.122573381648E+01 -0.600232012419E+00  0.250494207673E+01  0.477386199275E+00  0.742988685424E+00 -0.739814786992E+00  0.177790177481E+01
  0.155830813274E+01  0.250494207673E+01 -0.249658897678E+01 -0.154800130438E+01 -0.487811078581E+00  0.250494207673E+01  0.627766083140E+00
 -0.345533899378E+00 -0.178862290564E+01 -0.158811787973E+01  0.125000000000E+01 -0.249658897678E+01 -0.144524380962E+01  0.000000000000E+00
 -0.125000000000E+01 -0.249658897678E+01 -0.249658897678E+01 -0.249658897678E+01
  0.815015939903E-04  0.125000000000E+01  0.825616560012E-04  0.103724302461E+01  0.219251206392E+01  0.922061490191E+00  0.104933472595E-03
  0.349514350672E-04  0.715990576545E+00  0.250000000000E+01  0.202479342020E+01  0.324151231464E+01  0.175434191980E+01  0.310152362409E+01
  0.404200324774E+01  0.375000000000E+01  0.813879907819E-04  0.930412228790E+00  0.299062775774E+01  0.500000000000E+01  0.429310310915E+01
  0.409252726285E+01  0.187029682677E+01  0.284428995242E+01  0.500000000000E+01  0.125000000000E+01  0.394624082883E+01  0.500000000000E+01
  0.500000000000E+01  0.250000000000E+01  0.375000000000E+01  0.500000000000E+01
  0.121960367968E+01  0.105830820626E+01  0.128672564766E+01  0.108337589856E+01  0.102354096331E+01  0.116941394125E+01  0.145633548380E+01
  0.134803901654E+01  0.119311495718E+01  0.101662651138E+01  0.101711985601E+01  0.100667829556E+01  0.102800812466E+01  0.100987683742E+01
  0.100346712016E+01  0.100488572864E+01  0.130025388130E+01  0.114205256965E+01  0.100787531296E+01  0.100194815179E+01  0.100379373991E+01
  0.100390833980E+01  0.103478271984E+01  0.101223798478E+01  0.100190552812E+01  0.106019159622E+01  0.100437682351E+01  0.100077729537E+01
  0.100130168998E+01  0.102043679128E+01  0.100593442858E+01  0.100184648347E+01
  0.000000000000E+00  0.451841563631E+00  0.000000000000E+00  0.472892569123E+00  0.470175885061E+00  0.459506586202E+00  0.000000000000E+00
  0.000000000000E+00  0.401766739843E+00  0.478881935172E+00  0.474234149069E+00  0.485491382690E+00  0.492569733910E+00  0.489508276682E+00
  0.492183909695E+00  0.493568660879E+00  0.000000000000E+00  0.464538260525E+00  0.481637581334E+00  0.498272238221E+00  0.494017932068E+00
  0.490673523527E+00  0.458613150492E+00  0.473154117684E+00  0.498762122318E+00  0.451315589247E+00  0.491520365093E+00  0.499572430810E+00
  0.498567209211E+00  0.477380014181E+00  0.492960018649E+00  0.497870293885E+00
  0.000000000000E+00  0.000000000000E+00  0.000000000000E+00  0.156908395476E-01 -0.426033602857E-02  0.288073103123E-01  0.000000000000E+00
  0.000000000000E+00 -0.370479995111E-02  0.000000000000E+00  0.249651678699E-02 -0.528752395033E-02 -0.303797153347E-02 -0.174572859016E-03
 -0.108715950579E-02  0.000000000000E+00  0.000000000000E+00 -0.850436046590E-02  0.949702405583E-03  0.000000000000E+00 -0.167174697724E-02
 -0.105424602406E-02  0.212848862875E-02 -0.124235141126E-02  0.763792899601E-04  0.000000000000E+00  0.215846638432E-03 -0.173365511495E-03
  0.618475454762E-03  0.000000000000E+00  0.000000000000E+00  0.000000000000E+00
  0.000000000000E+00  0.388532276290E-01  0.000000000000E+00  0.103906649896E+00  0.224247078689E-01  0.135339685310E+00  0.000000000000E+00
  0.000000000000E+00  0.126994435078E+00  0.342181732150E-02  0.213596175052E-01 -0.708540852448E-02  0.635990573626E-01  0.292530255883E-02
 -0.794994565548E-03  0.241080163987E-03  0.000000000000E+00  0.115614621791E+00 -0.829840478422E-02  0.114778867377E-02 -0.750765538128E-03
 -0.442147196437E-02  0.223690042787E-01 -0.264683588699E-02  0.181139324826E-02  0.687893835804E-01 -0.175731260210E-02  0.156750459553E-02
  0.143656545165E-02  0.232617275432E-02 -0.110686068627E-02  0.212196600860E-02
  0.908105058299E+00  0.774898489214E+00  0.958083423941E+00  0.800620335988E+00  0.737947837262E+00  0.857913290920E+00  0.108437326112E+01
  0.100373676310E+01  0.887194541704E+00  0.730580566759E+00  0.733315209898E+00  0.720301178256E+00  0.748107899694E+00  0.724223922264E+00
  0.717575659183E+00  0.719224908981E+00  0.968156415361E+00  0.840780608421E+00  0.722226439954E+00  0.716323850580E+00  0.717949024656E+00
  0.717912003568E+00  0.749167386172E+00  0.726421754670E+00  0.716252839816E+00  0.782035823204E+00  0.718599583875E+00  0.715132882935E+00
  0.715580829491E+00  0.734166137320E+00  0.720294806623E+00  0.716217026921E+00
  0.000000000000E+00  0.447925228227E+00  0.000000000000E+00  0.476256820483E+00  0.468540672262E+00  0.473520494983E+00  0.000000000000E+00
  0.000000000000E+00  0.412988164055E+00  0.477443715099E+00  0.472514994820E+00  0.485151964132E+00  0.492060196362E+00  0.488541629273E+00
  0.491906706994E+00  0.493071146884E+00  0.000000000000E+00  0.471604584073E+00  0.480937185373E+00  0.498048622789E+00  0.493693171365E+00
  0.490409261985E+00  0.456077126045E+00  0.472056293985E+00  0.498554365734E+00  0.449243889485E+00  0.491117236828E+00  0.499472932286E+00
  0.498442374944E+00  0.475665059174E+00  0.492355131597E+00  0.497661918327E+00
  0.104242640687E+01  0.102508690614E+01  0.104242640687E+01  0.103460716809E+01  0.100936553514E+01  0.102707738032E+01  0.104242640687E+01
  0.104242640687E+01  0.104103326416E+01  0.100608510797E+01  0.100936117586E+01  0.100173178860E+01  0.101881593584E+01  0.100399717431E+01
  0.100113486797E+01  0.100201927829E+01  0.104242640687E+01  0.103068184694E+01  0.100321637303E+01  0.100090347890E+01  0.100132984950E+01
  0.100116391622E+01  0.101357929596E+01  0.100469501424E+01  0.100084683395E+01  0.103269084229E+01  0.100165534875E+01  0.100040842327E+01
  0.100051080640E+01  0.100724768161E+01  0.100246368016E+01  0.100085577404E+01
        12        19        11        11
        11         5        12        12
        10        14         5         5
        19        13        11        11
        19        24        13        13
        30        23        24        24
        19        12        22        22
        28        22        21        21
        11        13         6         6
         7         6         9         9
        15        12        14        14
        18        13        23        23
        15        25        21        21
        27        19        22        22
        18         8         9         9
        27        31        24        24
         4        11         6         6
         5        14        12        12
         4         2         5         5
        21        12        15        15
        14        16        15        15
        24        19        27        27
        22        29        27        27
        23        26        18        18
        17         8        18        18
         5        11         4         4
         6         3         4         4
        26        23        30        30
         5         2        10        10
        16        14        10        10
         3         6         7         7
        21        25        28        28
        29        22        28        28
         6        13         9         9
         2         4         1         1
        31        27        32        32
        25        15        20        20
        24        23        13        13
         8         7         9         9
        13        18         9         9
        31        30        24        24
        12        21        22        22
        29        32        27        27
         3         1         4         4
        26        17        18        18
        16        20        15        15
zone t="boundary 2 bc-2", solutiontime= 0.2000000E+02, strandid=1002, i=33, j=48, f=feblock
  0.500195341135E+01  0.375034910129E+01  0.249861170242E+01  0.288036698845E+01  0.124717549663E+01  0.190856748382E+01  0.326577206104E+01
  0.201394882463E+01 -0.338374936954E-02  0.962374532454E+00  0.500000000000E+01  0.403430207908E+01  0.423029574132E+01  0.500000000000E+01
  0.385439196956E+01  0.500000000000E+01  0.398133436420E+01  0.315200086795E+01  0.266958039312E+01  0.154798037926E+01  0.218327863071E+01
  0.893688549420E+00  0.000000000000E+00  0.699009795070E+00  0.964460910475E+00  0.310303673914E+01  0.000000000000E+00  0.000000000000E+00
  0.125000000000E+01  0.500000000000E+01  0.375000000000E+01  0.250000000000E+01  0.000000000000E+00
 -0.249658897678E+01 -0.249658897678E+01 -0.249658897678E+01 -0.249658897678E+01 -0.249658897678E+01 -0.249658897678E+01 -0.249658897678E+01
 -0.249658897678E+01 -0.249658897678E+01 -0.249658897678E+01 -0.249658897678E+01 -0.249658897678E+01 -0.249658897678E+01 -0.249658897678E+01
 -0.249658897678E+01 -0.249658897678E+01 -0.249658897678E+01 -0.249658897678E+01 -0.249658897678E+01 -0.249658897678E+01 -0.249658897678E+01
 -0.249658897678E+01 -0.249658897678E+01 -0.249658897678E+01 -0.249658897678E+01 -0.249658897678E+01 -0.249658897678E+01 -0.249658897678E+01
 -0.249658897678E+01 -0.249658897678E+01 -0.249658897678E+01 -0.249658897678E+01 -0.249658897678E+01
  0.109048776423E-03  0.146000800505E-03  0.100982141136E-03  0.901663553469E+00  0.111272491260E-03  0.714928384187E+00  0.188140665818E+01
  0.175892180762E+01  0.813879907819E-04  0.957504577548E+00  0.125000000000E+01  0.100596727486E+01  0.191313533373E+01  0.250000000000E+01
  0.292898109395E+01  0.375000000000E+01  0.406883375261E+01  0.363389299802E+01  0.284756876624E+01  0.292582316470E+01  0.395754061536E+01
  0.205027268305E+01  0.125000000000E+01  0.306703276451E+01  0.397155769281E+01  0.433068627066E+01  0.250000000000E+01  0.375000000000E+01
  0.500000000000E+01  0.500000000000E+01  0.500000000000E+01  0.500000000000E+01  0.500000000000E+01
  0.768742332043E+00  0.889533950968E+00  0.898747046339E+00  0.950544877394E+00  0.924964853016E+00  0.947981013033E+00  0.981007074058E+00
  0.987806272626E+00  0.130025388130E+01  0.101390608183E+01  0.944830346626E+00  0.944263110002E+00  0.978077242903E+00  0.100716400476E+01
  0.997783400324E+00  0.100978880395E+01  0.100011903237E+01  0.996169570539E+00  0.989925655354E+00  0.998869503878E+00  0.997944466439E+00
  0.100913912906E+01  0.106019159622E+01  0.100643263885E+01  0.100351423641E+01  0.998474718836E+00  0.102043679128E+01  0.100593442858E+01
  0.100235246013E+01  0.999801987880E+00  0.100018711329E+01  0.100028823165E+01  0.100184648347E+01
  0.000000000000E+00  0.000000000000E+00  0.000000000000E+00  0.385189430472E+00  0.000000000000E+00  0.340894361460E+00  0.583426972347E+00
  0.571749883592E+00  0.000000000000E+00  0.480965356753E+00  0.505178065429E+00  0.443662596377E+00  0.572001539928E+00  0.532011195525E+00
  0.566425572138E+00  0.512663635251E+00  0.508246712346E+00  0.526960005191E+00  0.564515236031E+00  0.531485541781E+00  0.508163677612E+00
  0.521926008471E+00  0.451315589247E+00  0.494980120417E+00  0.496092067233E+00  0.503545546048E+00  0.477380014181E+00  0.492960018649E+00
  0.494502684820E+00  0.491654874051E+00  0.489330844673E+00  0.494545442450E+00  0.497870293885E+00
  0.000000000000E+00  0.000000000000E+00  0.000000000000E+00  0.000000000000E+00  0.000000000000E+00  0.000000000000E+00  0.000000000000E+00
  0.000000000000E+00  0.000000000000E+00  0.000000000000E+00  0.000000000000E+00  0.000000000000E+00  0.000000000000E+00  0.000000000000E+00
  0.000000000000E+00  0.000000000000E+00  0.000000000000E+00  0.000000000000E+00  0.000000000000E+00  0.000000000000E+00  0.000000000000E+00
  0.000000000000E+00  0.000000000000E+00  0.000000000000E+00  0.000000000000E+00  0.000000000000E+00  0.000000000000E+00  0.000000000000E+00
  0.000000000000E+00  0.000000000000E+00  0.000000000000E+00  0.000000000000E+00  0.000000000000E+00
  0.000000000000E+00  0.000000000000E+00  0.000000000000E+00 -0.142348892165E-02  0.000000000000E+00  0.169034723025E-01  0.876982799931E-02
  0.404047627562E-01  0.000000000000E+00  0.730705181446E-01 -0.112204721047E+00 -0.263058190955E-01 -0.368311561621E-01 -0.483528257269E-01
 -0.588549359733E-02 -0.166816141021E-03 -0.196710464457E-02 -0.316975174454E-02  0.106576747345E-01  0.235316166532E-01  0.229064927388E-02
  0.486660012156E-01  0.687893835804E-01  0.868912279011E-02  0.441975577224E-02 -0.352533572514E-02  0.232617275432E-02 -0.110686068627E-02
  0.136399527285E-02  0.548150097880E-02 -0.148039579438E-02 -0.124548105997E-02  0.212196600860E-02
  0.572398076430E+00  0.662338343069E+00  0.669198324429E+00  0.681374074481E+00  0.688719848722E+00  0.681182175041E+00  0.693025725271E+00
  0.700086934973E+00  0.968156415361E+00  0.722090922465E+00  0.666756604265E+00  0.671483605940E+00  0.691230470159E+00  0.720034174916E+00
  0.710710220394E+00  0.723776689177E+00  0.714753909279E+00  0.710894424718E+00  0.704011242979E+00  0.714161155643E+00  0.712432914062E+00
  0.725805421798E+00  0.782035823204E+00  0.720438565241E+00  0.717728750704E+00  0.712834593564E+00  0.734166137320E+00  0.720294806623E+00
  0.716526150071E+00  0.714324708413E+00  0.714316980261E+00  0.714494356396E+00  0.716217026921E+00
  0.000000000000E+00  0.000000000000E+00  0.000000000000E+00  0.384509274586E+00  0.000000000000E+00  0.340296306109E+00  0.586722759594E+00
  0.575418361203E+00  0.000000000000E+00  0.487200509093E+00  0.520631315963E+00  0.445430206233E+00  0.576244463829E+00  0.533969752580E+00
  0.567249515814E+00  0.511777864367E+00  0.508114266970E+00  0.527212350130E+00  0.565848965660E+00  0.531751785482E+00  0.508305973308E+00
  0.522384303072E+00  0.449243889485E+00  0.494520756471E+00  0.495789239640E+00  0.503685602301E+00  0.475665059174E+00  0.492355131597E+00
  0.494311251560E+00  0.491623328596E+00  0.489368151960E+00  0.494546054776E+00  0.497661918327E+00
  0.104242640687E+01  0.104242640687E+01  0.104242640687E+01  0.100355462110E+01  0.104242640687E+01  0.100598538573E+01  0.989020406719E+00
  0.992220576162E+00  0.104242640687E+01  0.997062064784E+00  0.987964928628E+00  0.995566848221E+00  0.989413326242E+00  0.100087755333E+01
  0.997204712194E+00  0.100346464615E+01  0.100053637677E+01  0.999079096610E+00  0.995646223370E+00  0.100095719613E+01  0.999460504296E+00
  0.100692517142E+01  0.103269084229E+01  0.100216741032E+01  0.100130144100E+01  0.999492938743E+00  0.100724768161E+01  0.100246368016E+01
  0.100078230962E+01  0.100025265393E+01  0.999856685891E+00  0.100000386619E+01  0.100085577404E+01
        15         7        19        19
         8        20        19        19
        18        19        21        21
         7         4         8         8
         3         6         4         4
        19         7         8         8
        19        18        15        15
        14        13        15        15
         8        22        20        20
        27        24        22        22
        19        20        21        21
        32        26        21        21
        17        18        26        26
        17        16        15        15
        25        29        21        21
        12         7        13        13
        10         8         6         6
        25        20        24        24
         4         6         8         8
        12         2         4         4
        10        23        22        22
        26        31        17        17
        30        16        17        17
         4         7        12        12
        13        11        12        12
        21        20        25        25
        24        28        25        25
        22         8        10        10
         6         5        10        10
        31        26        32        32
         4         2         3         3
         5         6         3         3
        11        13        14        14
        22        23        27        27
        28        24        27        27
        15        13         7         7
         2        12         1         1
        29        25        33        33
        23        10         9         9
        21        26        18        18
        16        14        15        15
        18        17        15        15
        29        32        21        21
        22        24        20        20
        28        33        25        25
        11         1        12        12
        31        30        17        17
         5         9        10        10
zone t="boundary 3 bc-3", solutiontime= 0.2000000E+02, strandid=1003, i=33, j=48, f=feblock
  0.375059129253E+01  0.249769657785E+01  0.500322230564E+01  0.403612260305E+01  0.287976809936E+01  0.124541967296E+01  0.190552274834E+01
  0.500000000000E+01  0.326671130751E+01  0.423253775190E+01  0.201271162023E+01 -0.547403479148E-02  0.958896010995E+00  0.500000000000E+01
  0.266968161398E+01  0.385584500913E+01  0.890374272111E+00  0.154654019987E+01  0.000000000000E+00  0.500000000000E+01  0.315261145343E+01
  0.218304202511E+01  0.398195313599E+01  0.000000000000E+00  0.697379950198E+00  0.963757268001E+00  0.125000000000E+01  0.000000000000E+00
  0.500000000000E+01  0.310330742607E+01  0.250000000000E+01  0.375000000000E+01  0.000000000000E+00
  0.250494207673E+01  0.250494207673E+01  0.250494207673E+01  0.250494207673E+01  0.250494207673E+01  0.250494207673E+01  0.250494207673E+01
  0.250494207673E+01  0.250494207673E+01  0.250494207673E+01  0.250494207673E+01  0.250494207673E+01  0.250494207673E+01  0.250494207673E+01
  0.250494207673E+01  0.250494207673E+01  0.250494207673E+01  0.250494207673E+01  0.250494207673E+01  0.250494207673E+01  0.250494207673E+01
  0.250494207673E+01  0.250494207673E+01  0.250494207673E+01  0.250494207673E+01  0.250494207673E+01  0.250494207673E+01  0.250494207673E+01
  0.250494207673E+01  0.250494207673E+01  0.250494207673E+01  0.250494207673E+01  0.250494207673E+01
  0.136199821606E-03  0.111001462289E-03  0.971034542287E-04  0.101756807774E+01  0.908095367282E+00  0.104727772947E-03  0.722629994500E+00
  0.125000000000E+01  0.188965717990E+01  0.191862731201E+01  0.176708306015E+01  0.815015939903E-04  0.969653435852E+00  0.250000000000E+01
  0.285339475342E+01  0.293325088171E+01  0.205656266805E+01  0.293157053464E+01  0.125000000000E+01  0.375000000000E+01  0.363766863445E+01
  0.396069464261E+01  0.407056397715E+01  0.250000000000E+01  0.307032015158E+01  0.397359831779E+01  0.500000000000E+01  0.375000000000E+01
  0.500000000000E+01  0.433260793845E+01  0.500000000000E+01  0.500000000000E+01  0.500000000000E+01
  0.896707721746E+00  0.910457480323E+00  0.781968172763E+00  0.945869361461E+00  0.960188014925E+00  0.922184257201E+00  0.963953842436E+00
  0.950749050392E+00  0.978091047803E+00  0.979679068344E+00  0.986796753049E+00  0.121960367968E+01  0.100544034049E+01  0.100849032875E+01
  0.992241933674E+00  0.997802995011E+00  0.100536945970E+01  0.998281821172E+00  0.105830820626E+01  0.100698755084E+01  0.998809798111E+00
  0.999315456280E+00  0.100000688182E+01  0.101662651138E+01  0.100449351965E+01  0.100204276290E+01  0.100247480822E+01  0.100488572864E+01
  0.100009606363E+01  0.998729160515E+00  0.100100752127E+01  0.100046016763E+01  0.100194815179E+01
  0.000000000000E+00  0.000000000000E+00  0.000000000000E+00  0.451170436866E+00  0.403009131910E+00  0.000000000000E+00  0.369768932906E+00
  0.504385966977E+00  0.572418602458E+00  0.570664832640E+00  0.555899665969E+00  0.000000000000E+00  0.475071361158E+00  0.529014360820E+00
  0.555022849237E+00  0.562208998616E+00  0.524000942814E+00  0.523277197813E+00  0.451841563631E+00  0.514529364952E+00  0.524736521017E+00
  0.506256779905E+00  0.509834502601E+00  0.478881935172E+00  0.499516019590E+00  0.498082199081E+00  0.493193540290E+00  0.493568660879E+00
  0.493166350971E+00  0.501447213407E+00  0.491122371462E+00  0.487915926171E+00  0.498272238221E+00
  0.000000000000E+00  0.000000000000E+00  0.000000000000E+00  0.000000000000E+00  0.000000000000E+00  0.000000000000E+00  0.000000000000E+00
  0.000000000000E+00  0.000000000000E+00  0.000000000000E+00  0.000000000000E+00  0.000000000000E+00  0.000000000000E+00  0.000000000000E+00
  0.000000000000E+00  0.000000000000E+00  0.000000000000E+00  0.000000000000E+00  0.000000000000E+00  0.000000000000E+00  0.000000000000E+00
  0.000000000000E+00  0.000000000000E+00  0.000000000000E+00  0.000000000000E+00  0.000000000000E+00  0.000000000000E+00  0.000000000000E+00
  0.000000000000E+00  0.000000000000E+00  0.000000000000E+00  0.000000000000E+00  0.000000000000E+00
  0.000000000000E+00  0.000000000000E+00  0.000000000000E+00 -0.279295475199E-01  0.124037363197E-01  0.000000000000E+00  0.162342695225E-01
 -0.114457050132E+00  0.478008972825E-03 -0.461013605550E-01  0.299434942762E-01  0.000000000000E+00  0.536026600647E-01 -0.502854019572E-01
  0.508172969702E-02 -0.105794948952E-01  0.439395113971E-01  0.106038339450E-01  0.388532276290E-01 -0.220397608529E-02 -0.366933731433E-02
 -0.402482546551E-03 -0.148817555139E-02  0.342181732150E-02  0.804183941633E-02  0.207773113667E-02  0.578210644672E-03  0.241080163987E-03
  0.509451700761E-02 -0.211403143924E-02 -0.621787373427E-03 -0.724471886074E-03  0.114778867377E-02
  0.667679863138E+00  0.677917799873E+00  0.582245909015E+00  0.670529234989E+00  0.688130583423E+00  0.686649444076E+00  0.690434833854E+00
  0.670672430393E+00  0.691906349415E+00  0.692625766055E+00  0.700948915580E+00  0.908105058299E+00  0.717681182465E+00  0.721493405339E+00
  0.706705673950E+00  0.711396330079E+00  0.721304742676E+00  0.713319223125E+00  0.774898489214E+00  0.721215430071E+00  0.713532460239E+00
  0.713575744931E+00  0.714554389868E+00  0.730580566759E+00  0.718615513474E+00  0.716238842745E+00  0.716751666268E+00  0.719224908981E+00
  0.714521204990E+00  0.713135410321E+00  0.715143149864E+00  0.714634293966E+00  0.716323850580E+00
  0.000000000000E+00  0.000000000000E+00  0.000000000000E+00  0.453747134066E+00  0.402530858912E+00  0.000000000000E+00  0.369616485081E+00
  0.520451375394E+00  0.575195999121E+00  0.575469409681E+00  0.558254448384E+00  0.000000000000E+00  0.478249154385E+00  0.530977768714E+00
  0.555846079635E+00  0.562830009898E+00  0.524678203480E+00  0.523288946540E+00  0.447925228227E+00  0.513842092926E+00  0.524713721276E+00
  0.506335333086E+00  0.509742569087E+00  0.477443715099E+00  0.499191236516E+00  0.497914730171E+00  0.492953595473E+00  0.493071146884E+00
  0.493135068973E+00  0.501536942705E+00  0.491075453605E+00  0.487909674542E+00  0.498048622789E+00
  0.104242640687E+01  0.104242640687E+01  0.104242640687E+01  0.992463618373E+00  0.100332726697E+01  0.104242640687E+01  0.100275420341E+01
  0.987580689314E+00  0.990366787792E+00  0.989789517618E+00  0.994458563813E+00  0.104242640687E+01  0.999317030551E+00  0.100158696487E+01
  0.997123695293E+00  0.998147797802E+00  0.100443337521E+01  0.100036571958E+01  0.102508690614E+01  0.100269521828E+01  0.100013580786E+01
  0.999690374671E+00  0.100036926146E+01  0.100608510797E+01  0.100156118400E+01  0.100069020701E+01  0.100097511134E+01  0.100201927829E+01
  0.100023360091E+01  0.999659981826E+00  0.100019269440E+01  0.100002783111E+01  0.100090347890E+01
        15         9        16        16
        15        18        11        11
        22        15        21        21
        11         5         9         9
         5         7         2         2
        11         9        15        15
        16        21        15        15
        16        10        14        14
        18        17        11        11
        17        25        24        24
        22        18        15        15
        22        30        31        31
        30        21        23        23
        16        20        23        23
        22        27        26        26
        10         9         4         4
         7        11        13        13
        25        18        26        26
        11         7         5         5
         5         1         4         4
        17        19        13        13
        23        32        30        30
        23        20        29        29
         4         9         5         5
         4         8        10        10
        26        18        22        22
        26        28        25        25
        13        11        17        17
        13         6         7         7
        31        30        32        32
         2         1         5         5
         2         7         6         6
        14        10         8         8
        24        19        17        17
        24        25        28        28
         9        10        16        16
         3         4         1         1
        33        26        27        27
        12        13        19        19
        21        30        22        22
        16        14        20        20
        16        23        21        21
        22        31        27        27
        18        25        17        17
        26        33        28        28
         4         3         8         8
        23        29        32        32
        13        12         6         6
zone t="boundary 4 bc-4", solutiontime= 0.2000000E+02, strandid=1004, i=32, j=46, f=feblock
  0.125000000000E+01  0.219251206392E+01  0.103724302461E+01  0.500000000000E+01  0.250000000000E+01  0.375000000000E+01  0.404200324774E+01
  0.500000000000E+01  0.000000000000E+00  0.310152362409E+01  0.202479342020E+01  0.324151231464E+01  0.922061490191E+00  0.000000000000E+00
  0.299062775774E+01  0.394624082883E+01  0.500000000000E+01  0.409252726285E+01  0.500000000000E+01  0.429310310915E+01  0.175434191980E+01
  0.284428995242E+01  0.000000000000E+00  0.000000000000E+00  0.715990576545E+00  0.930412228790E+00  0.125000000000E+01  0.187029682677E+01
  0.500000000000E+01  0.375000000000E+01  0.250000000000E+01  0.000000000000E+00
  0.250494207673E+01  0.157686156160E+01  0.146289271009E+01  0.250494207673E+01  0.250494207673E+01  0.250494207673E+01  0.155830813274E+01
  0.125000000000E+01  0.250494207673E+01  0.177790177481E+01  0.477386199275E+00  0.742988685424E+00  0.308372018325E+00  0.125000000000E+01
 -0.487811078581E+00 -0.144524380962E+01 -0.125000000000E+01 -0.345533899378E+00  0.000000000000E+00  0.627766083140E+00 -0.739814786992E+00
 -0.158811787973E+01  0.000000000000E+00 -0.125000000000E+01 -0.600232012419E+00 -0.154800130438E+01 -0.249658897678E+01 -0.178862290564E+01
 -0.249658897678E+01 -0.249658897678E+01 -0.249658897678E+01 -0.249658897678E+01
  0.500000000000E+01  0.500000000000E+01  0.500000000000E+01  0.500000000000E+01  0.500000000000E+01  0.500000000000E+01  0.500000000000E+01
  0.500000000000E+01  0.500000000000E+01  0.500000000000E+01  0.500000000000E+01  0.500000000000E+01  0.500000000000E+01  0.500000000000E+01
  0.500000000000E+01  0.500000000000E+01  0.500000000000E+01  0.500000000000E+01  0.500000000000E+01  0.500000000000E+01  0.500000000000E+01
  0.500000000000E+01  0.500000000000E+01  0.500000000000E+01  0.500000000000E+01  0.500000000000E+01  0.500000000000E+01  0.500000000000E+01
  0.500000000000E+01  0.500000000000E+01  0.500000000000E+01  0.500000000000E+01
  0.100247480822E+01  0.100134716214E+01  0.100191258659E+01  0.100009606363E+01  0.100100752127E+01  0.100046016763E+01  0.999736560601E+00
  0.100030298592E+01  0.100194815179E+01  0.100084782423E+01  0.100111992624E+01  0.100019345822E+01  0.100153426571E+01  0.100190552812E+01
  0.100054798321E+01  0.998646799384E+00  0.100065287787E+01  0.999514159212E+00  0.100050368679E+01  0.999881314039E+00  0.100147037513E+01
  0.100045125859E+01  0.100077729537E+01  0.100130168998E+01  0.100106355673E+01  0.100175188336E+01  0.100235246013E+01  0.100133695127E+01
  0.999801987880E+00  0.100018711329E+01  0.100028823165E+01  0.100184648347E+01
  0.493193540290E+00  0.493543414052E+00  0.494639873600E+00  0.493166350971E+00  0.491122371462E+00  0.487915926171E+00  0.488037941624E+00
  0.494124147606E+00  0.498272238221E+00  0.490661510347E+00  0.492713787834E+00  0.491092180301E+00  0.497621764582E+00  0.498762122318E+00
  0.491948439074E+00  0.485951385806E+00  0.492212735649E+00  0.489588620585E+00  0.494589121315E+00  0.489945043156E+00  0.494579986256E+00
  0.492493848920E+00  0.499572430810E+00  0.498567209211E+00  0.498170927408E+00  0.496557881769E+00  0.494502684820E+00  0.494785801798E+00
  0.491654874051E+00  0.489330844673E+00  0.494545442450E+00  0.497870293885E+00
  0.000000000000E+00 -0.145737061246E-03 -0.111919500713E-02  0.000000000000E+00  0.000000000000E+00  0.000000000000E+00  0.120525570006E-03
  0.650296802187E-03  0.000000000000E+00  0.714139934804E-04 -0.885121884004E-03 -0.926665141177E-03 -0.157262589134E-02  0.763792899601E-04
 -0.897319698293E-03 -0.927121535595E-03 -0.140037389262E-02 -0.211712855607E-02 -0.140750072043E-02 -0.123329418275E-02 -0.521715325427E-03
 -0.631400157957E-03 -0.173365511495E-03  0.618475454762E-03 -0.169572509619E-04  0.143828917023E-02  0.000000000000E+00  0.729930265188E-03
  0.000000000000E+00  0.000000000000E+00  0.000000000000E+00  0.000000000000E+00