title="tecplot geometry and solution file"
variables = x y z mach temperature lambda1 lambda2 lambda3 lambda4 lambda5 lambda6
zone t="boundary 1 bc-1", solutiontime= 0.5000000E+02, strandid=1001, i=32, j=46, f=feblock
  0.000000000000E+00  0.000000000000E+00  0.000000000000E+00  0.000000000000E+00  0.000000000000E+00  0.000000000000E+00  0.000000000000E+00
  0.000000000000E+00  0.000000000000E+00  0.000000000000E+00  0.000000000000E+00  0.000000000000E+00  0.000000000000E+00  0.000000000000E+00
  0.000000000000E+00  0.000000000000E+00  0.000000000000E+00  0.000000000000E+00  0.000000000000E+00  0.000000000000E+00  0.000000000000E+00
  0.000000000000E+00  0.000000000000E+00  0.000000000000E+00  0.000000000000E+00  0.000000000000E+00  0.000000000000E+00  0.000000000000E+00
  0.000000000000E+00  0.000000000000E+00  0.000000000000E+00  0.000000000000E+00
  0.250000000000E+01  0.250000000000E+01  0.125000000000E+01  0.146289271009E+01  0.157686156160E+01  0.308372018325E+00  0.000000000000E+00
 -0.125000000000E+01 -0.600232012419E+00  0.250000000000E+01  0.477386199275E+00  0.742988685424E+00 -0.739814786992E+00  0.177790177481E+01
  0.155830813274E+01  0.250000000000E+01 -0.250000000000E+01 -0.154800130438E+01 -0.487811078581E+00  0.250000000000E+01  0.627766083140E+00
 -0.345533899378E+00 -0.178862290564E+01 -0.158811787973E+01  0.125000000000E+01 -0.250000000000E+01 -0.144524380962E+01  0.000000000000E+00
 -0.125000000000E+01 -0.250000000000E+01 -0.250000000000E+01 -0.250000000000E+01
  0.000000000000E+00  0.125000000000E+01  0.000000000000E+00  0.103724302461E+01  0.219251206392E+01  0.922061490191E+00  0.000000000000E+00
  0.000000000000E+00  0.715990576545E+00  0.250000000000E+01  0.202479342020E+01  0.324151231464E+01  0.175434191980E+01  0.310152362409E+01
  0.404200324774E+01  0.375000000000E+01  0.000000000000E+00  0.930412228790E+00  0.299062775774E+01  0.500000000000E+01  0.429310310915E+01
  0.409252726285E+01  0.187029682677E+01  0.284428995242E+01  0.500000000000E+01  0.125000000000E+01  0.394624082883E+01  0.500000000000E+01
  0.500000000000E+01  0.250000000000E+01  0.375000000000E+01  0.500000000000E+01
  0.000000000000E+00  0.441238864710E+00  0.000000000000E+00  0.475212333418E+00  0.460125600047E+00  0.468825459916E+00  0.000000000000E+00
  0.000000000000E+00  0.402299647307E+00  0.469815278546E+00  0.464413480260E+00  0.478714152972E+00  0.489298547802E+00  0.483067971662E+00
  0.487929224832E+00  0.488960767301E+00  0.000000000000E+00  0.464773408827E+00  0.473796242669E+00  0.495345969094E+00  0.490265403772E+00
  0.486285557293E+00  0.445720648663E+00  0.464383522981E+00  0.496127006189E+00  0.443623519427E+00  0.486963956588E+00  0.497245800655E+00
  0.496058644718E+00  0.467732961393E+00  0.488211579388E+00  0.495097551278E+00
  0.999990335442E+00  0.102982730935E+01  0.999990797222E+00  0.104247144519E+01  0.101190167613E+01  0.102520600953E+01  0.999991453848E+00
  0.999992202332E+00  0.103891124272E+01  0.100826302705E+01  0.101252909219E+01  0.100300571845E+01  0.102702848665E+01  0.100605562865E+01
  0.100244399774E+01  0.100355656280E+01  0.999992753610E+00  0.103239691667E+01  0.100459561267E+01  0.100179353455E+01  0.100260307775E+01
  0.100234974224E+01  0.101657231252E+01  0.100617628259E+01  0.100168864675E+01  0.104043187424E+01  0.100303393289E+01  0.100118748788E+01
  0.100134189338E+01  0.100976788455E+01  0.100405369623E+01  0.100176128351E+01
  0.589609604557E-03  0.340831496940E-02  0.791814371105E-03  0.574390899077E-02  0.346406574159E-03  0.798187523532E-02  0.658756909911E-03
  0.398076833316E-03  0.815370458824E-02 -0.254370016119E-03  0.623779012868E-03 -0.957059353755E-03  0.832002469411E-03 -0.516931880918E-03
 -0.132134165495E-02 -0.127156652682E-02  0.721717076646E-03  0.854871582166E-02 -0.743490453429E-03 -0.488127592209E-02 -0.176750029464E-02
 -0.121735370100E-02  0.253911899575E-03 -0.770097210014E-03 -0.508140607936E-02  0.502422801075E-02 -0.969942506459E-03 -0.569374898283E-02
 -0.511278750005E-02 -0.667006213565E-03 -0.107842619624E-02 -0.482625640702E-02
  0.279227638000E-04  0.476660690320E-03  0.500695969183E-04  0.726495561601E-03 -0.580053209639E-06  0.119048125904E-02  0.609773125325E-04
  0.663303159299E-04  0.118944631744E-02 -0.112553063251E-03  0.560416210493E-04 -0.203332742844E-03  0.320555681875E-04 -0.151041596380E-03
 -0.259410706050E-03 -0.276876410128E-03  0.524023714529E-04  0.135353280442E-02 -0.146668554184E-03 -0.100455291460E-02 -0.352094053099E-03
 -0.233910562526E-03 -0.402909811120E-04 -0.141631878580E-03 -0.106457409894E-02  0.636495427657E-03 -0.190149912029E-03 -0.119619931969E-02
 -0.106947085400E-02 -0.153294916569E-03 -0.227932190271E-03 -0.100441799527E-02
  0.285309475508E-04  0.128828321999E-04  0.389438876003E-04  0.138592334201E-03  0.298654710046E-04  0.865726032948E-04  0.423596351362E-04
 -0.410054125413E-04  0.791518252687E-04 -0.146203727768E-05  0.523556475132E-04  0.433141436460E-04  0.610482286796E-04  0.176225720956E-04
  0.590266441098E-05 -0.715252949292E-06 -0.574876165335E-04 -0.770858000228E-04  0.362027223798E-04  0.128033626158E-07  0.141297108335E-04
  0.133892926974E-04  0.299859708381E-04  0.858953927704E-05  0.233796211379E-04 -0.260784975751E-04 -0.138484856490E-05  0.111488458887E-04
 -0.258594406856E-05 -0.298316134049E-05 -0.235543798059E-05  0.477354949113E-06
 -0.164929286839E-03 -0.130152644676E-03 -0.195225237552E-03  0.319892883633E-05  0.172356231438E-03  0.184043378549E-03 -0.113068462144E-03
 -0.148108010838E-03  0.420119270599E-04  0.189981793660E-03  0.378560238554E-03  0.223253132210E-03  0.480640144672E-03  0.189682419820E-03
  0.145176872253E-03  0.163172118784E-03 -0.129038422197E-03  0.205622902281E-03  0.279801481378E-03  0.650356509584E-04  0.145042529135E-03
  0.182943971068E-03  0.425524280735E-03  0.244654167788E-03  0.636328849026E-04  0.241033734199E-03  0.176492835974E-03  0.611383092495E-04
  0.754797144532E-04  0.297936190758E-03  0.182574504741E-03  0.743907300326E-04
 -0.466987826595E-03 -0.141025462847E-02 -0.759309969608E-03 -0.230735119677E-02 -0.150069623901E-03 -0.329765023465E-02 -0.376869802383E-04
  0.147528028429E-03 -0.334790420183E-02  0.976948865456E-04 -0.274276490855E-03  0.373629240513E-03 -0.348788699027E-03  0.201705194698E-03
  0.527491756312E-03  0.511382972437E-03 -0.191730840247E-03 -0.356748370633E-02  0.274265926991E-03  0.202687494285E-02  0.714246661361E-03
  0.482266488290E-03 -0.122529758345E-03  0.279376777197E-03  0.211351120043E-02 -0.203275888707E-02  0.378837101302E-03  0.237506221084E-02
  0.212765583945E-02  0.247565974604E-03  0.429715584019E-03  0.200325738927E-02
 -0.287478808498E-09 -0.373615115500E-09 -0.373724654706E-09 -0.990806431479E-09 -0.299869013862E-09 -0.806125355908E-09  0.175979520680E-09
  0.802293703070E-10  0.608600076372E-08 -0.246003650948E-09 -0.126489168299E-08 -0.529267997157E-09 -0.113597019274E-08 -0.347195056654E-09
 -0.117821225415E-09 -0.213779046043E-09 -0.483451634468E-10  0.213252694339E-08 -0.665383238962E-09 -0.295414105540E-10 -0.617233603773E-10
 -0.127208528509E-09 -0.568302331071E-09 -0.664977904943E-09  0.116193561796E-10 -0.944633155049E-09 -0.176807761615E-09  0.348030727394E-10
 -0.788558325287E-11 -0.520756749361E-09 -0.259958300136E-09 -0.551417128664E-10
        12        19        11        11
        11         5        12        12
        10        14         5         5
        19        13        11        11
        19        24        13        13
        30        23        24        24
        19        12        22        22
        28        22        21        21
        11        13         6         6
         7         6         9         9
        15        12        14        14
        18        13        23        23
        15        25        21        21
        27        19        22        22
        18         8         9         9
        27        31        24        24
         4        11         6         6
         5        14        12        12
         4         2         5         5
        21        12        15        15
        14        16        15        15
        24        19        27        27
        22        29        27        27
        23        26        18        18
        17         8        18        18
         5        11         4         4
         6         3         4         4
        26        23        30        30
         5         2        10        10
        16        14        10        10
         3         6         7         7
        21        25        28        28
        29        22        28        28
         6        13         9         9
         2         4         1         1
        31        27        32        32
        25        15        20        20
        24        23        13        13
         8         7         9         9
        13        18         9         9
        31        30        24        24
        12        21        22        22
        29        32        27        27
         3         1         4         4
        26        17        18        18
        16        20        15        15
zone t="boundary 2 bc-2", solutiontime= 0.5000000E+02, strandid=1002, i=33, j=48, f=feblock
  0.500000000000E+01  0.375000000000E+01  0.250000000000E+01  0.288078410721E+01  0.125000000000E+01  0.190974100652E+01  0.326683758169E+01
  0.201431602454E+01  0.000000000000E+00  0.963108083381E+00  0.500000000000E+01  0.403552511878E+01  0.423153924130E+01  0.500000000000E+01
  0.385533350601E+01  0.500000000000E+01  0.398173246726E+01  0.315249557942E+01  0.267000324704E+01  0.154774304040E+01  0.218329375016E+01
  0.893127759452E+00  0.000000000000E+00  0.698517061619E+00  0.964171764089E+00  0.310324758057E+01  0.000000000000E+00  0.000000000000E+00
  0.125000000000E+01  0.500000000000E+01  0.375000000000E+01  0.250000000000E+01  0.000000000000E+00
 -0.250000000000E+01 -0.250000000000E+01 -0.250000000000E+01 -0.250000000000E+01 -0.250000000000E+01 -0.250000000000E+01 -0.250000000000E+01
 -0.250000000000E+01 -0.250000000000E+01 -0.250000000000E+01 -0.250000000000E+01 -0.250000000000E+01 -0.250000000000E+01 -0.250000000000E+01
 -0.250000000000E+01 -0.250000000000E+01 -0.250000000000E+01 -0.250000000000E+01 -0.250000000000E+01 -0.250000000000E+01 -0.250000000000E+01
 -0.250000000000E+01 -0.250000000000E+01 -0.250000000000E+01 -0.250000000000E+01 -0.250000000000E+01 -0.250000000000E+01 -0.250000000000E+01
 -0.250000000000E+01 -0.250000000000E+01 -0.250000000000E+01 -0.250000000000E+01 -0.250000000000E+01
  0.000000000000E+00  0.000000000000E+00  0.000000000000E+00  0.904659890645E+00  0.000000000000E+00  0.717002441913E+00  0.188609243358E+01
  0.176246431481E+01  0.000000000000E+00  0.961328577125E+00  0.125000000000E+01  0.101201586758E+01  0.191586535653E+01  0.250000000000E+01
  0.293121848150E+01  0.375000000000E+01  0.406975391361E+01  0.363585050272E+01  0.285047954584E+01  0.292817774674E+01  0.395907379566E+01
  0.205246550326E+01  0.125000000000E+01  0.306828197606E+01  0.397245519226E+01  0.433168271247E+01  0.250000000000E+01  0.375000000000E+01
  0.500000000000E+01  0.500000000000E+01  0.500000000000E+01  0.500000000000E+01  0.500000000000E+01
  0.000000000000E+00  0.000000000000E+00  0.000000000000E+00  0.380991677071E+00  0.000000000000E+00  0.343629846333E+00  0.585283712637E+00
  0.579371274939E+00  0.000000000000E+00  0.501053781697E+00  0.508459764195E+00  0.435372705232E+00  0.572637650783E+00  0.537001621764E+00
  0.568921604272E+00  0.514994863512E+00  0.508249384174E+00  0.527254272376E+00  0.567446148296E+00  0.531657889979E+00  0.505982349932E+00
  0.520795557933E+00  0.443623519427E+00  0.490664279058E+00  0.492156105736E+00  0.501392667577E+00  0.467732961393E+00  0.488211579388E+00
  0.490002415326E+00  0.491354393416E+00  0.486078174930E+00  0.490037677861E+00  0.495097551278E+00
  0.999993511960E+00  0.999993715260E+00  0.999993570321E+00  0.989539101465E+00  0.999993167142E+00  0.985524838689E+00  0.989838839696E+00
  0.991798259717E+00  0.999992753610E+00  0.984411184056E+00  0.985091609572E+00  0.984689131748E+00  0.990058406085E+00  0.100289567776E+01
  0.999855182158E+00  0.100485299288E+01  0.100121572260E+01  0.100055639449E+01  0.997896752171E+00  0.100350023825E+01  0.100058089063E+01
  0.101093252220E+01  0.104043187424E+01  0.100326541074E+01  0.100254508116E+01  0.100045601675E+01  0.100976788455E+01  0.100405369623E+01
  0.100192661355E+01  0.100045469615E+01  0.100058772260E+01  0.100109988203E+01  0.100176128351E+01
 -0.350897056209E-03 -0.303322287317E-03 -0.325548164639E-03  0.259355296771E-02  0.439704619065E-03  0.141392161224E-01 -0.749167563815E-03
 -0.166637578107E-03  0.721717076646E-03  0.721749005854E-02 -0.102587101508E-02 -0.939534195085E-03 -0.809040728033E-03 -0.671336420387E-03
 -0.496990633921E-03 -0.446979762669E-03 -0.330118376350E-03 -0.388653988607E-03 -0.595274714586E-03 -0.780059705936E-03 -0.501578786125E-03
  0.227126979176E-03  0.502422801075E-02 -0.544184903481E-03 -0.918323226155E-03 -0.601616955239E-03 -0.667006213565E-03 -0.107842619624E-02
 -0.434745667605E-02 -0.521788099384E-03 -0.198696266237E-02 -0.381264256509E-02 -0.482625640702E-02
  0.864339337457E-04 -0.108223333253E-04  0.109991382937E-04  0.597668080955E-03 -0.102446296165E-03  0.190274829693E-02  0.293037829449E-04
 -0.800083891501E-04  0.524023714529E-04  0.942521763094E-03  0.224952914786E-03  0.358311589836E-04  0.105245822195E-03  0.172269150319E-03
  0.110651323754E-03  0.105185542153E-03  0.125327881135E-03  0.103154601552E-03  0.531616347210E-04 -0.613908605975E-04  0.443997928573E-04
 -0.631988887889E-04  0.636495427657E-03 -0.323314138020E-04 -0.103866530813E-03  0.612033837472E-04 -0.153294916569E-03 -0.227932190271E-03
 -0.782682659600E-03  0.258242685556E-04 -0.199538225732E-03 -0.593864443780E-03 -0.100441799527E-02
 -0.237480986077E-04  0.977440654011E-05  0.379491590433E-04  0.942357971162E-04  0.172499171375E-04  0.193274398988E-03 -0.393424680270E-05
  0.615335130790E-05 -0.574876165335E-04  0.985628016260E-04 -0.187691627986E-04 -0.361816326109E-04 -0.461410073167E-06  0.138576009431E-05
  0.416110553315E-06 -0.210886325793E-05  0.258669661533E-06 -0.193267875655E-05  0.911404464837E-06  0.487903850245E-05 -0.276473984771E-05
  0.962970413125E-05 -0.260784975751E-04  0.770128123339E-07 -0.926454756092E-06 -0.983517944503E-06 -0.298316134049E-05 -0.235543798059E-05
 -0.429013802041E-06 -0.485324375381E-06 -0.623220732765E-07  0.383515375146E-06  0.477354949113E-06
 -0.375879653135E-04 -0.190862671845E-04 -0.457288369615E-04  0.195303511934E-03 -0.136286396087E-03  0.107835048290E-03  0.223084673881E-03
  0.357513739380E-03 -0.129038422197E-03  0.236376892899E-03  0.464838670317E-04  0.131896236629E-03  0.974241501693E-04  0.454770680204E-04
  0.998060255212E-04  0.361871562080E-04  0.950702629284E-04  0.138177210795E-03  0.167536969575E-03  0.175447137304E-03  0.159778360783E-03
  0.317847320638E-03  0.241033734199E-03  0.193241189209E-03  0.162313115594E-03  0.136043925099E-03  0.297936190758E-03  0.182574504741E-03
  0.104846232010E-03  0.555149188941E-04  0.120263020415E-03  0.130423420209E-03  0.743907300326E-04
  0.120222913333E-03  0.199831596507E-03  0.542340589591E-03 -0.125572701188E-02  0.106185525227E-02 -0.611372356340E-02  0.207418570021E-03
  0.473276935216E-04 -0.191730840247E-03 -0.302020529807E-02  0.223883314547E-03  0.261874853725E-03  0.205065572735E-03  0.128352444319E-03
  0.990817503095E-04  0.901642653125E-04  0.457094749871E-04  0.723732094995E-04  0.155116683627E-03  0.264711042815E-03  0.134770708307E-03
 -0.970016397168E-04 -0.203275888707E-02  0.175581628163E-03  0.334463084297E-03  0.164648458353E-03  0.247565974604E-03  0.429715584019E-03
  0.176659179198E-02  0.157848359008E-03  0.745681090506E-03  0.151636966170E-02  0.200325738927E-02
 -0.341891218076E-12 -0.359165835021E-11 -0.437183175300E-11 -0.231752016199E-09 -0.181244617611E-10 -0.573956054035E-09 -0.123667330418E-09
 -0.127973047314E-08 -0.483451634468E-10 -0.113979232463E-08 -0.422332111270E-10 -0.110727391488E-09  0.642245699214E-10  0.416402620846E-10
  0.494002723844E-11 -0.166515354703E-10 -0.267002130350E-10 -0.490030699865E-10 -0.887657706585E-10 -0.273500954481E-09 -0.917343854700E-10
 -0.110910029714E-08 -0.944633155049E-09 -0.403973354207E-09 -0.117458957516E-09 -0.535476453656E-10 -0.520756749361E-09 -0.259958300136E-09
 -0.123747210152E-09 -0.149333949957E-11 -0.286844555619E-10 -0.100379791674E-09 -0.551417128664E-10
        15         7        19        19
         8        20        19        19
        18        19        21        21
         7         4         8         8
         3         6         4         4
        19         7         8         8
        19        18        15        15
        14        13        15        15
         8        22        20        20
        27        24        22        22
        19        20        21        21
        32        26        21        21
        17        18        26        26
        17        16        15        15
        25        29        21        21
        12         7        13        13
        10         8         6         6
        25        20        24        24
         4         6         8         8
        12         2         4         4
        10        23        22        22
        26        31        17        17
        30        16        17        17
         4         7        12        12
        13        11        12        12
        21        20        25        25
        24        28        25        25
        22         8        10        10
         6         5        10        10
        31        26        32        32
         4         2         3         3
         5         6         3         3
        11        13        14        14
        22        23        27        27
        28        24        27        27
        15        13         7         7
         2        12         1         1
        29        25        33        33
        23        10         9         9
        21        26        18        18
        16        14        15        15
        18        17        15        15
        29        32        21        21
        22        24        20        20
        28        33        25        25
        11         1        12        12
        31        30        17        17
         5         9        10        10
zone t="boundary 3 bc-3", solutiontime= 0.5000000E+02, strandid=1003, i=33, j=48, f=feblock
  0.375000000000E+01  0.250000000000E+01  0.500000000000E+01  0.403552511878E+01  0.288078410721E+01  0.125000000000E+01  0.190974100652E+01
  0.500000000000E+01  0.326683758169E+01  0.423153924130E+01  0.201431602454E+01  0.000000000000E+00  0.963108083381E+00  0.500000000000E+01
  0.267000324704E+01  0.385533350601E+01  0.893127759452E+00  0.154774304040E+01  0.000000000000E+00  0.500000000000E+01  0.315249557942E+01
  0.218329375016E+01  0.398173246726E+01  0.000000000000E+00  0.698517061619E+00  0.964171764089E+00  0.125000000000E+01  0.000000000000E+00
  0.500000000000E+01  0.310324758057E+01  0.250000000000E+01  0.375000000000E+01  0.000000000000E+00
  0.250000000000E+01  0.250000000000E+01  0.250000000000E+01  0.250000000000E+01  0.250000000000E+01  0.250000000000E+01  0.250000000000E+01
  0.250000000000E+01  0.250000000000E+01  0.250000000000E+01  0.250000000000E+01  0.250000000000E+01  0.250000000000E+01  0.250000000000E+01
  0.250000000000E+01  0.250000000000E+01  0.250000000000E+01  0.250000000000E+01  0.250000000000E+01  0.250000000000E+01  0.250000000000E+01
  0.250000000000E+01  0.250000000000E+01  0.250000000000E+01  0.250000000000E+01  0.250000000000E+01  0.250000000000E+01  0.250000000000E+01
  0.250000000000E+01  0.250000000000E+01  0.250000000000E+01  0.250000000000E+01  0.250000000000E+01
  0.000000000000E+00  0.000000000000E+00  0.000000000000E+00  0.101201586758E+01  0.904659890645E+00  0.000000000000E+00  0.717002441913E+00
  0.125000000000E+01  0.188609243358E+01  0.191586535653E+01  0.176246431481E+01  0.000000000000E+00  0.961328577125E+00  0.250000000000E+01
  0.285047954584E+01  0.293121848150E+01  0.205246550326E+01  0.292817774674E+01  0.125000000000E+01  0.375000000000E+01  0.363585050272E+01
  0.395907379566E+01  0.406975391361E+01  0.250000000000E+01  0.306828197606E+01  0.397245519226E+01  0.500000000000E+01  0.375000000000E+01
  0.500000000000E+01  0.433168271247E+01  0.500000000000E+01  0.500000000000E+01  0.500000000000E+01
  0.000000000000E+00  0.000000000000E+00  0.000000000000E+00  0.443768049813E+00  0.402287063289E+00  0.000000000000E+00  0.377550015530E+00
  0.509231651017E+00  0.575830373842E+00  0.573705119893E+00  0.562552484917E+00  0.000000000000E+00  0.490560996922E+00  0.534526640478E+00
  0.556587161529E+00  0.564391003890E+00  0.522730520214E+00  0.522053035057E+00  0.441238864710E+00  0.517182885172E+00  0.524230081365E+00
  0.503688666615E+00  0.509490322369E+00  0.469815278546E+00  0.495614921017E+00  0.494483812152E+00  0.488562139423E+00  0.488960767301E+00
  0.492982637025E+00  0.499007441401E+00  0.486462299176E+00  0.484599832491E+00  0.495345969094E+00
  0.999989380190E+00  0.999989451040E+00  0.999989665041E+00  0.981541820811E+00  0.988773959065E+00  0.999989868921E+00  0.982469495615E+00
  0.984104107106E+00  0.990427340160E+00  0.990355127069E+00  0.994362617112E+00  0.999990335442E+00  0.988651707786E+00  0.100368299998E+01
  0.999769041194E+00  0.100118460274E+01  0.100834871539E+01  0.100252122579E+01  0.102982730935E+01  0.100443305346E+01  0.100199527495E+01
  0.100082072308E+01  0.100138208455E+01  0.100826302705E+01  0.100298818591E+01  0.100192398684E+01  0.100215265586E+01  0.100355656280E+01
  0.100047708080E+01  0.100056610141E+01  0.100126814609E+01  0.100066576236E+01  0.100179353455E+01
 -0.224286292586E-03  0.188908908796E-03 -0.382210931091E-03  0.159225852715E-02  0.761055440211E-02  0.423925214005E-03  0.694016299024E-02
 -0.129340196109E-02 -0.754901204919E-03 -0.836768971117E-03  0.117408051520E-02  0.589609604557E-03  0.457450373958E-02 -0.654980170585E-03
 -0.737524726023E-03 -0.535495060251E-03  0.884245609732E-04 -0.721006780956E-03  0.340831496940E-02 -0.450626029741E-03 -0.327425099226E-03
 -0.442682362400E-03 -0.344858198867E-03 -0.254370016119E-03 -0.587810106218E-03 -0.118491294302E-02 -0.367689000536E-02 -0.127156652682E-02
 -0.429836092449E-03 -0.527440271062E-03 -0.344122173633E-02 -0.186771383941E-02 -0.488127592209E-02
 -0.564647320892E-04 -0.638693138451E-04  0.925710396814E-04  0.472324197656E-03  0.981889213499E-03 -0.704495966332E-04  0.715131202040E-03
  0.223799087178E-03 -0.268568147712E-04  0.116372998038E-03 -0.358906421707E-04  0.279227638000E-04  0.319295350334E-03  0.171076695412E-03
 -0.103763818916E-04  0.890182841401E-04 -0.160737312567E-03 -0.817356154841E-04  0.476660690320E-03  0.110415696775E-03  0.955763495975E-04
  0.495439750104E-04  0.111781469984E-03 -0.112553063251E-03 -0.134122578704E-03 -0.153616269527E-03 -0.652434611161E-03 -0.276876410128E-03
  0.391470458897E-04  0.608648444026E-04 -0.532075375191E-03 -0.185604286974E-03 -0.100455291460E-02
 -0.109320818104E-04  0.804437759156E-06  0.156102488163E-04 -0.206702803200E-04 -0.967895907966E-04  0.239970415768E-04  0.413588521709E-05
  0.153217730201E-05 -0.122861846300E-04  0.319889958775E-05 -0.100639458200E-04  0.285309475508E-04  0.363031644333E-04  0.507255857271E-05
 -0.258488777281E-06  0.122640514182E-05 -0.152714192418E-04 -0.782332109011E-05  0.128828321999E-04  0.268315327111E-05  0.554863095131E-06
  0.631578598882E-05  0.277428247094E-06 -0.146203727768E-05 -0.396819325306E-05  0.221970697644E-05  0.183616879097E-05 -0.715252949292E-06
  0.863185149001E-06  0.501084156036E-07  0.517276815840E-06 -0.189451304130E-06  0.128033626158E-07
 -0.562100675757E-04 -0.107410213674E-03 -0.330314285225E-04  0.840866027765E-04  0.125228267258E-03 -0.919823567647E-04  0.447162224928E-05
  0.437123957809E-04  0.244008526390E-03  0.121291448481E-03  0.336323862056E-03 -0.164929286839E-03  0.719180948341E-04  0.512952781722E-04
  0.129680595760E-03  0.112135685735E-03  0.259070555069E-03  0.133033506288E-03 -0.130152644676E-03  0.466794385452E-04  0.129350955003E-03
  0.133219531600E-03  0.100164964985E-03  0.189981793660E-03  0.183469638551E-03  0.133787645143E-03  0.103242962534E-03  0.163172118784E-03
  0.505375136159E-04  0.129245218302E-03  0.126130392001E-03  0.115347705055E-03  0.650356509584E-04
  0.931647313513E-03  0.284833660877E-03  0.167836258566E-03 -0.863132573097E-03 -0.328931943678E-02 -0.369606141305E-05 -0.286817930398E-02
  0.321851638234E-03  0.240538570678E-03  0.214035852831E-03 -0.451292206271E-03 -0.466987826595E-03 -0.180329334672E-02  0.123494593136E-03
  0.232270731646E-03  0.121292307310E-03 -0.235904369671E-04  0.251498202909E-03 -0.141025462847E-02  0.884335416601E-04  0.537917697613E-04
  0.113783716713E-03  0.563749778654E-04  0.976948865456E-04  0.213656182078E-03  0.446731389946E-03  0.148649007156E-02  0.511382972437E-03
  0.121793462361E-03  0.139755101361E-03  0.136509446988E-02  0.699152752116E-03  0.202687494285E-02
 -0.356168210523E-11 -0.111758256551E-10 -0.120650277059E-11 -0.116870681953E-09 -0.186001531023E-09 -0.721071371865E-10 -0.137250052664E-08
 -0.219741015581E-10 -0.336935793483E-09  0.112148663943E-09 -0.116131711460E-08 -0.287478808498E-09 -0.150298532860E-08  0.299606240485E-10
 -0.732311070039E-10  0.220493757301E-10 -0.620901206505E-09 -0.247100502599E-09 -0.373615115500E-09 -0.156442028285E-10 -0.761047413220E-11
 -0.396601407219E-10 -0.170174392571E-10 -0.246003650948E-09 -0.328932274587E-09 -0.808346619486E-10 -0.480786656474E-10 -0.213779046043E-09
 -0.388952305950E-11 -0.193304323765E-10 -0.331382952271E-10 -0.557206087192E-11 -0.295414105540E-10
        15         9        16        16
        15        18        11        11
        22        15        21        21
        11         5         9         9
         5         7         2         2
        11         9        15        15
        16        21        15        15
        16        10        14        14
        18        17        11        11
        17        25        24        24
        22        18        15        15
        22        30        31        31
        30        21        23        23
        16        20        23        23
        22        27        26        26
        10         9         4         4
         7        11        13        13
        25        18        26        26
        11         7         5         5
         5         1         4         4
        17        19        13        13
        23        32        30        30
        23        20        29        29
         4         9         5         5
         4         8        10        10
        26        18        22        22
        26        28        25        25
        13        11        17        17
        13         6         7         7
        31        30        32        32
         2         1         5         5
         2         7         6         6
        14        10         8         8
        24        19        17        17
        24        25        28        28
         9        10        16        16
         3         4         1         1
        33        26        27        27
        12        13        19        19
        21        30        22        22
        16        14        20        20
        16        23        21        21
        22        31        27        27
        18        25        17        17
        26        33        28        28
         4         3         8         8
        23        29        32        32
        13        12         6         6
zone t="boundary 4 bc-4", solutiontime= 0.5000000E+02, strandid=1004, i=32, j=46, f=feblock
  0.125000000000E+01  0.219251206392E+01  0.103724302461E+01  0.500000000000E+01  0.250000000000E+01  0.375000000000E+01  0.404200324774E+01
  0.500000000000E+01  0.000000000000E+00  0.310152362409E+01  0.202479342020E+01  0.324151231464E+01  0.922061490191E+00  0.000000000000E+00
  0.299062775774E+01  0.394624082883E+01  0.500000000000E+01  0.409252726285E+01  0.500000000000E+01  0.429310310915E+01  0.175434191980E+01
  0.284428995242E+01  0.000000000000E+00  0.000000000000E+00  0.715990576545E+00  0.930412228790E+00  0.125000000000E+01  0.187029682677E+01
  0.500000000000E+01  0.375000000000E+01  0.250000000000E+01  0.000000000000E+00
  0.250000000000E+01  0.157686156160E+01  0.146289271009E+01  0.250000000000E+01  0.250000000000E+01  0.250000000000E+01  0.155830813274E+01
  0.125000000000E+01  0.250000000000E+01  0.177790177481E+01  0.477386199275E+00  0.742988685424E+00  0.308372018325E+00  0.125000000000E+01
 -0.487811078581E+00 -0.144524380962E+01 -0.125000000000E+01 -0.345533899378E+00  0.000000000000E+00  0.627766083140E+00 -0.739814786992E+00
 -0.158811787973E+01  0.000000000000E+00 -0.125000000000E+01 -0.600232012419E+00 -0.154800130438E+01 -0.250000000000E+01 -0.178862290564E+01
 -0.250000000000E+01 -0.250000000000E+01 -0.250000000000E+01 -0.250000000000E+01
  0.500000000000E+01  0.500000000000E+01  0.500000000000E+01  0.500000000000E+01  0.500000000000E+01  0.500000000000E+01  0.500000000000E+01
  0.500000000000E+01  0.500000000000E+01  0.500000000000E+01  0.500000000000E+01  0.500000000000E+01  0.500000000000E+01  0.500000000000E+01
  0.500000000000E+01  0.500000000000E+01  0.500000000000E+01  0.500000000000E+01  0.500000000000E+01  0.500000000000E+01  0.500000000000E+01
  0.500000000000E+01  0.500000000000E+01  0.500000000000E+01  0.500000000000E+01  0.500000000000E+01  0.500000000000E+01  0.500000000000E+01
  0.500000000000E+01  0.500000000000E+01  0.500000000000E+01  0.500000000000E+01