title="tecplot geometry and solution file"
variables = x y z mach temperature lambda1 lambda2 lambda3 lambda4 lambda5 lambda6
zone t="boundary 1 bc-1", solutiontime= 0.1000000E+02, strandid=1001, i=32, j=46, f=feblock
  0.000000000000E+00  0.000000000000E+00  0.000000000000E+00  0.000000000000E+00  0.000000000000E+00  0.000000000000E+00  0.000000000000E+00
  0.000000000000E+00  0.000000000000E+00  0.000000000000E+00  0.000000000000E+00  0.000000000000E+00  0.000000000000E+00  0.000000000000E+00
  0.000000000000E+00  0.000000000000E+00  0.000000000000E+00  0.000000000000E+00  0.000000000000E+00  0.000000000000E+00  0.000000000000E+00
  0.000000000000E+00  0.000000000000E+00  0.000000000000E+00  0.000000000000E+00  0.000000000000E+00  0.000000000000E+00  0.000000000000E+00
  0.000000000000E+00  0.000000000000E+00  0.000000000000E+00  0.000000000000E+00
  0.250000000000E+01  0.250000000000E+01  0.125000000000E+01  0.146289271009E+01  0.157686156160E+01  0.308372018325E+00  0.000000000000E+00
 -0.125000000000E+01 -0.600232012419E+00  0.250000000000E+01  0.477386199275E+00  0.742988685424E+00 -0.739814786992E+00  0.177790177481E+01
  0.155830813274E+01  0.250000000000E+01 -0.250000000000E+01 -0.154800130438E+01 -0.487811078581E+00  0.250000000000E+01  0.627766083140E+00
 -0.345533899378E+00 -0.178862290564E+01 -0.158811787973E+01  0.125000000000E+01 -0.250000000000E+01 -0.144524380962E+01  0.000000000000E+00
 -0.125000000000E+01 -0.250000000000E+01 -0.250000000000E+01 -0.250000000000E+01
  0.000000000000E+00  0.125000000000E+01  0.000000000000E+00  0.103724302461E+01  0.219251206392E+01  0.922061490191E+00  0.000000000000E+00
  0.000000000000E+00  0.715990576545E+00  0.250000000000E+01  0.202479342020E+01  0.324151231464E+01  0.175434191980E+01  0.310152362409E+01
  0.404200324774E+01  0.375000000000E+01  0.000000000000E+00  0.930412228790E+00  0.299062775774E+01  0.500000000000E+01  0.429310310915E+01
  0.409252726285E+01  0.187029682677E+01  0.284428995242E+01  0.500000000000E+01  0.125000000000E+01  0.394624082883E+01  0.500000000000E+01
  0.500000000000E+01  0.250000000000E+01  0.375000000000E+01  0.500000000000E+01
  0.000000000000E+00  0.441238864710E+00  0.000000000000E+00  0.475212333418E+00  0.460125600047E+00  0.468825459916E+00  0.000000000000E+00
  0.000000000000E+00  0.402299647307E+00  0.469815278546E+00  0.464413480260E+00  0.478714152972E+00  0.489298547802E+00  0.483067971662E+00
  0.487929224832E+00  0.488960767301E+00  0.000000000000E+00  0.464773408827E+00  0.473796242669E+00  0.495345969094E+00  0.490265403772E+00
  0.486285557293E+00  0.445720648663E+00  0.464383522981E+00  0.496127006189E+00  0.443623519427E+00  0.486963956588E+00  0.497245800655E+00
  0.496058644718E+00  0.467732961393E+00  0.488211579388E+00  0.495097551278E+00
  0.999990335442E+00  0.102982730935E+01  0.999990797222E+00  0.104247144519E+01  0.101190167613E+01  0.102520600953E+01  0.999991453848E+00
  0.999992202332E+00  0.103891124272E+01  0.100826302705E+01  0.101252909219E+01  0.100300571845E+01  0.102702848665E+01  0.100605562865E+01
  0.100244399774E+01  0.100355656280E+01  0.999992753610E+00  0.103239691667E+01  0.100459561267E+01  0.100179353455E+01  0.100260307775E+01
  0.100234974224E+01  0.101657231252E+01  0.100617628259E+01  0.100168864675E+01  0.104043187424E+01  0.100303393289E+01  0.100118748788E+01
  0.100134189338E+01  0.100976788455E+01  0.100405369623E+01  0.100176128351E+01
 -0.153082000625E+00 -0.764081507624E+00 -0.172545457034E+00 -0.120210688375E+01 -0.128449496697E+00 -0.145147563310E+01 -0.122991990541E+00
 -0.409089735754E-01 -0.145908641551E+01  0.883413547517E-02 -0.154658492627E+00  0.190478987330E+00 -0.145140735741E+00  0.117645722934E+00
  0.287266580632E+00  0.281071441832E+00 -0.726811826060E-01 -0.943378078295E+00  0.130710652654E+00  0.761881986961E+00  0.351819173844E+00
  0.255775230693E+00 -0.709077058882E-01  0.115592183584E+00  0.801522950537E+00 -0.591161648879E+00  0.212991102578E+00  0.874503302060E+00
  0.789828995530E+00  0.762650553846E-01  0.212757295283E+00  0.753514856531E+00
 -0.612290091018E-02 -0.110291347198E+00 -0.896389380504E-02 -0.151745095256E+00 -0.118899101555E-01 -0.217468646450E+00 -0.869103531196E-02
 -0.769402308855E-02 -0.215987809125E+00  0.132095321334E-01 -0.190235464457E-01  0.404519518277E-01 -0.961014029290E-02  0.327966539132E-01
  0.569107364471E-01  0.609736861700E-01 -0.662455084565E-02 -0.146181435694E+00  0.264179928348E-01  0.154124068032E+00  0.700972186985E-01
  0.501546029423E-01  0.201807105310E-03  0.225697585857E-01  0.166557133621E+00 -0.718607213315E-01  0.425495513069E-01  0.183040832671E+00
  0.163842002284E+00  0.199979177465E-01  0.450549075777E-01  0.154799601374E+00
 -0.103364214373E-01 -0.304710731261E-02 -0.144289659322E-01 -0.326028563483E-01 -0.452583667922E-02 -0.196254332282E-01 -0.116289737221E-01
  0.469920769843E-02  0.982185971991E-03  0.296127425666E-03 -0.393581935985E-02 -0.353493040786E-02  0.504998376358E-02 -0.161914417348E-02
  0.116445577952E-02  0.120188236079E-03  0.590059024310E-02  0.218551155461E-01  0.382005663887E-03 -0.267261087173E-04  0.982574663989E-03
  0.116900607458E-02  0.184141515904E-02  0.402353135101E-02 -0.137026852883E-02  0.262635669600E-02  0.210413057003E-02  0.872627085873E-03
  0.165163711658E-02  0.568265622529E-03  0.127403205744E-03 -0.275129528151E-03
  0.366834582460E-01  0.340609462516E-01  0.397363096125E-01 -0.171048589618E-02 -0.372941560181E-01 -0.401393378084E-01  0.222568854608E-01
  0.192446512922E-01 -0.294684995296E-01 -0.390385701048E-01 -0.743579243403E-01 -0.430164354251E-01 -0.818564494370E-01 -0.391472640077E-01
 -0.277236996637E-01 -0.327583050839E-01  0.144377846118E-01 -0.244467570646E-01 -0.481424419826E-01 -0.110682193128E-01 -0.252896259020E-01
 -0.306932214399E-01 -0.557535983253E-01 -0.395754837402E-01 -0.103700213628E-01 -0.306429897820E-01 -0.279784907841E-01 -0.987831951263E-02
 -0.115485593369E-01 -0.438458782671E-01 -0.290378784289E-01 -0.114605418143E-01
  0.122397531329E+00  0.314834093520E+00  0.164607410943E+00  0.480639228385E+00  0.535637965817E-01  0.603288181363E+00 -0.145954639035E-01
 -0.289781205010E-01  0.607151045034E+00 -0.287484377588E-02  0.667319705267E-01 -0.748382189733E-01  0.621462688095E-01 -0.467767245891E-01
 -0.115924859419E+00 -0.114086667999E+00  0.235244494814E-01  0.394805535992E+00 -0.483969124397E-01 -0.315447643758E+00 -0.143058537497E+00
 -0.102673286148E+00  0.328913837492E-01 -0.416559115884E-01 -0.332915222366E+00  0.241279690698E+00 -0.848197910522E-01 -0.364336176995E+00
 -0.328158008731E+00 -0.267307736804E-01 -0.853696891920E-01 -0.312110920194E+00
  0.710053405766E-07  0.183038711148E-06  0.734724225258E-07  0.316164758980E-06  0.982310774184E-07  0.424360481580E-07 -0.442948076919E-07
 -0.140116625598E-07 -0.120276597214E-05  0.751303777465E-07  0.222646762688E-06  0.103739015228E-06  0.128532708675E-06  0.769016236898E-07
  0.244012377157E-07  0.459047507049E-07  0.706055881044E-08 -0.258855791187E-06  0.935567259028E-07  0.684776545416E-08  0.116418334755E-07
  0.189110561309E-07  0.889801192640E-07  0.836984328781E-07  0.415521455828E-09  0.134867413039E-06  0.231009308896E-07 -0.453032216097E-08
  0.718747907311E-09  0.711875259129E-07  0.344347631301E-07  0.742021998665E-08
        12        19        11        11
        11         5        12        12
        10        14         5         5
        19        13        11        11
        19        24        13        13
        30        23        24        24
        19        12        22        22
        28        22        21        21
        11        13         6         6
         7         6         9         9
        15        12        14        14
        18        13        23        23
        15        25        21        21
        27        19        22        22
        18         8         9         9
        27        31        24        24
         4        11         6         6
         5        14        12        12
         4         2         5         5
        21        12        15        15
        14        16        15        15
        24        19        27        27
        22        29        27        27
        23        26        18        18
        17         8        18        18
         5        11         4         4
         6         3         4         4
        26        23        30        30
         5         2        10        10
        16        14        10        10
         3         6         7         7
        21        25        28        28
        29        22        28        28
         6        13         9         9
         2         4         1         1
        31        27        32        32
        25        15        20        20
        24        23        13        13
         8         7         9         9
        13        18         9         9
        31        30        24        24
        12        21        22        22
        29        32        27        27
         3         1         4         4
        26        17        18        18
        16        20        15        15
zone t="boundary 2 bc-2", solutiontime= 0.1000000E+02, strandid=1002, i=33, j=48, f=feblock
  0.500000000000E+01  0.375000000000E+01  0.250000000000E+01  0.288078410721E+01  0.125000000000E+01  0.190974100652E+01  0.326683758169E+01
  0.201431602454E+01  0.000000000000E+00  0.963108083381E+00  0.500000000000E+01  0.403552511878E+01  0.423153924130E+01  0.500000000000E+01
  0.385533350601E+01  0.500000000000E+01  0.398173246726E+01  0.315249557942E+01  0.267000324704E+01  0.154774304040E+01  0.218329375016E+01
  0.893127759452E+00  0.000000000000E+00  0.698517061619E+00  0.964171764089E+00  0.310324758057E+01  0.000000000000E+00  0.000000000000E+00
  0.125000000000E+01  0.500000000000E+01  0.375000000000E+01  0.250000000000E+01  0.000000000000E+00
 -0.250000000000E+01 -0.250000000000E+01 -0.250000000000E+01 -0.250000000000E+01 -0.250000000000E+01 -0.250000000000E+01 -0.250000000000E+01
 -0.250000000000E+01 -0.250000000000E+01 -0.250000000000E+01 -0.250000000000E+01 -0.250000000000E+01 -0.250000000000E+01 -0.250000000000E+01
 -0.250000000000E+01 -0.250000000000E+01 -0.250000000000E+01 -0.250000000000E+01 -0.250000000000E+01 -0.250000000000E+01 -0.250000000000E+01
 -0.250000000000E+01 -0.250000000000E+01 -0.250000000000E+01 -0.250000000000E+01 -0.250000000000E+01 -0.250000000000E+01 -0.250000000000E+01
 -0.250000000000E+01 -0.250000000000E+01 -0.250000000000E+01 -0.250000000000E+01 -0.250000000000E+01
  0.000000000000E+00  0.000000000000E+00  0.000000000000E+00  0.904659890645E+00  0.000000000000E+00  0.717002441913E+00  0.188609243358E+01
  0.176246431481E+01  0.000000000000E+00  0.961328577125E+00  0.125000000000E+01  0.101201586758E+01  0.191586535653E+01  0.250000000000E+01
  0.293121848150E+01  0.375000000000E+01  0.406975391361E+01  0.363585050272E+01  0.285047954584E+01  0.292817774674E+01  0.395907379566E+01
  0.205246550326E+01  0.125000000000E+01  0.306828197606E+01  0.397245519226E+01  0.433168271247E+01  0.250000000000E+01  0.375000000000E+01
  0.500000000000E+01  0.500000000000E+01  0.500000000000E+01  0.500000000000E+01  0.500000000000E+01
  0.000000000000E+00  0.000000000000E+00  0.000000000000E+00  0.380991677071E+00  0.000000000000E+00  0.343629846333E+00  0.585283712637E+00
  0.579371274939E+00  0.000000000000E+00  0.501053781697E+00  0.508459764195E+00  0.435372705232E+00  0.572637650783E+00  0.537001621764E+00
  0.568921604272E+00  0.514994863512E+00  0.508249384174E+00  0.527254272376E+00  0.567446148296E+00  0.531657889979E+00  0.505982349932E+00
  0.520795557933E+00  0.443623519427E+00  0.490664279058E+00  0.492156105736E+00  0.501392667577E+00  0.467732961393E+00  0.488211579388E+00
  0.490002415326E+00  0.491354393416E+00  0.486078174930E+00  0.490037677861E+00  0.495097551278E+00
  0.999993511960E+00  0.999993715260E+00  0.999993570321E+00  0.989539101465E+00  0.999993167142E+00  0.985524838689E+00  0.989838839696E+00
  0.991798259717E+00  0.999992753610E+00  0.984411184056E+00  0.985091609572E+00  0.984689131748E+00  0.990058406085E+00  0.100289567776E+01
  0.999855182158E+00  0.100485299288E+01  0.100121572260E+01  0.100055639449E+01  0.997896752171E+00  0.100350023825E+01  0.100058089063E+01
  0.101093252220E+01  0.104043187424E+01  0.100326541074E+01  0.100254508116E+01  0.100045601675E+01  0.100976788455E+01  0.100405369623E+01
  0.100192661355E+01  0.100045469615E+01  0.100058772260E+01  0.100109988203E+01  0.100176128351E+01
  0.622319528213E-01  0.492811551404E-01  0.292122908848E-01 -0.584940460972E+00 -0.564703127462E-01 -0.184911660808E+01  0.125868794073E+00
 -0.339007666959E-01 -0.726811826060E-01 -0.877817897185E+00  0.166599885768E+00  0.166148132848E+00  0.132014021573E+00  0.110030621183E+00
  0.807648002576E-01  0.742894879153E-01  0.559880049665E-01  0.625894849396E-01  0.103416904939E+00  0.126108769717E+00  0.961001717150E-01
 -0.438294239995E-01 -0.591161648879E+00  0.843347084205E-01  0.170811616974E+00  0.105324788890E+00  0.762650553846E-01  0.212757295283E+00
  0.714167106097E+00  0.884693303796E-01  0.335650339279E+00  0.639626951255E+00  0.753514856531E+00
 -0.169326221208E-01  0.454967036878E-02 -0.669123164075E-03 -0.101072414593E+00  0.101094513149E-01 -0.230233976667E+00 -0.382274417527E-03
  0.543441126181E-02 -0.662455084565E-02 -0.104754994167E+00 -0.365090244469E-01 -0.633457495282E-02 -0.183949331179E-01 -0.283373280430E-01
 -0.192327129738E-01 -0.174776560225E-01 -0.205212497384E-01 -0.177565960733E-01 -0.741619343101E-02  0.969115998847E-02 -0.441902013296E-02
  0.440358979653E-02 -0.718607213315E-01  0.524537313429E-02  0.211762261148E-01 -0.850037303660E-02  0.199979177465E-01  0.450549075777E-01
  0.125671592041E+00 -0.416675472857E-02  0.338000171942E-01  0.979734773877E-01  0.154799601374E+00
  0.392230828409E-02 -0.902054027354E-03 -0.578952073219E-02 -0.135579916050E-01 -0.309799435419E-02 -0.235598327589E-01  0.187420191161E-02
 -0.217772260816E-03  0.590059024310E-02 -0.919113701811E-02  0.220592100940E-02  0.688435618289E-02 -0.797309763775E-04 -0.202611451774E-03
 -0.154593860270E-03  0.315120608104E-03 -0.245064364604E-04  0.111333708423E-03 -0.295455104355E-03 -0.605821922404E-03  0.468746353943E-03
 -0.783990924999E-03  0.262635669600E-02 -0.191803012740E-03  0.326572914939E-04  0.159929224763E-03  0.568265622529E-03  0.127403205744E-03
  0.124142225963E-04  0.622524435180E-04  0.265755362496E-04  0.315733667135E-05 -0.275129528151E-03
  0.490562613821E-02  0.499982111026E-02  0.768153389459E-02 -0.240054982328E-01  0.169757070778E-01 -0.391668992443E-02 -0.379605238216E-01
 -0.505765025285E-01  0.144377846118E-01 -0.242594346467E-01 -0.740474458921E-02 -0.259128028864E-01 -0.154745398278E-01 -0.707598438229E-02
 -0.161661473250E-01 -0.603054592579E-02 -0.158026007527E-01 -0.225705876377E-01 -0.261552274140E-01 -0.274447702909E-01 -0.250711946053E-01
 -0.407911007177E-01 -0.306429897820E-01 -0.294107877833E-01 -0.249069283010E-01 -0.217569599658E-01 -0.438458782671E-01 -0.290378784289E-01
 -0.171548814797E-01 -0.935325779773E-02 -0.202355875723E-01 -0.221890677148E-01 -0.114605418143E-01
 -0.166045510063E-01 -0.476210108864E-01 -0.823853988334E-01  0.267031862355E+00 -0.100796239822E+00  0.793363796618E+00 -0.369103459185E-01
  0.172851168034E-01  0.235244494814E-01  0.364490027644E+00 -0.366085610147E-01 -0.471975566463E-01 -0.328755426243E-01 -0.209793960116E-01
 -0.155148878863E-01 -0.149936812813E-01 -0.805115675714E-02 -0.110548570627E-01 -0.278975668084E-01 -0.425272167275E-01 -0.278674321420E-01
  0.202992346045E-01  0.241279690698E+00 -0.270060768357E-01 -0.632999333987E-01 -0.298128984554E-01 -0.267307736804E-01 -0.853696891920E-01
 -0.289285460866E+00 -0.268899470490E-01 -0.126004195497E+00 -0.253784084798E+00 -0.312110920194E+00
  0.326591717229E-10  0.425396569700E-09  0.708307656436E-09  0.375476175966E-07  0.240732427498E-08  0.762296009528E-07  0.352514114362E-07
  0.195109118198E-06  0.706055881044E-08  0.149851614423E-06  0.404569982469E-08  0.122245215492E-07 -0.132259405863E-07 -0.590743791885E-08
 -0.673413748290E-09  0.294807839664E-08  0.412180551201E-08  0.694276255593E-08  0.151203283408E-07  0.411811724826E-07  0.127019401377E-07
  0.143973611860E-06  0.134867413039E-06  0.546243689723E-07  0.165508918493E-07  0.726862958050E-08  0.711875259129E-07  0.344347631301E-07
  0.162986386130E-07  0.196583776356E-10  0.360609322760E-08  0.132651145184E-07  0.742021998665E-08
        15         7        19        19
         8        20        19        19
        18        19        21        21
         7         4         8         8
         3         6         4         4
        19         7         8         8
        19        18        15        15
        14        13        15        15
         8        22        20        20
        27        24        22        22
        19        20        21        21
        32        26        21        21
        17        18        26        26
        17        16        15        15
        25        29        21        21
        12         7        13        13
        10         8         6         6
        25        20        24        24
         4         6         8         8
        12         2         4         4
        10        23        22        22
        26        31        17        17
        30        16        17        17
         4         7        12        12
        13        11        12        12
        21        20        25        25
        24        28        25        25
        22         8        10        10
         6         5        10        10
        31        26        32        32
         4         2         3         3
         5         6         3         3
        11        13        14        14
        22        23        27        27
        28        24        27        27
        15        13         7         7
         2        12         1         1
        29        25        33        33
        23        10         9         9
        21        26        18        18
        16        14        15        15
        18        17        15        15
        29        32        21        21
        22        24        20        20
        28        33        25        25
        11         1        12        12
        31        30        17        17
         5         9        10        10
zone t="boundary 3 bc-3", solutiontime= 0.1000000E+02, strandid=1003, i=33, j=48, f=feblock
  0.375000000000E+01  0.250000000000E+01  0.500000000000E+01  0.403552511878E+01  0.288078410721E+01  0.125000000000E+01  0.190974100652E+01
  0.500000000000E+01  0.326683758169E+01  0.423153924130E+01  0.201431602454E+01  0.000000000000E+00  0.963108083381E+00  0.500000000000E+01
  0.267000324704E+01  0.385533350601E+01  0.893127759452E+00  0.154774304040E+01  0.000000000000E+00  0.500000000000E+01  0.315249557942E+01
  0.218329375016E+01  0.398173246726E+01  0.000000000000E+00  0.698517061619E+00  0.964171764089E+00  0.125000000000E+01  0.000000000000E+00
  0.500000000000E+01  0.310324758057E+01  0.250000000000E+01  0.375000000000E+01  0.000000000000E+00
  0.250000000000E+01  0.250000000000E+01  0.250000000000E+01  0.250000000000E+01  0.250000000000E+01  0.250000000000E+01  0.250000000000E+01
  0.250000000000E+01  0.250000000000E+01  0.250000000000E+01  0.250000000000E+01  0.250000000000E+01  0.250000000000E+01  0.250000000000E+01
  0.250000000000E+01  0.250000000000E+01  0.250000000000E+01  0.250000000000E+01  0.250000000000E+01  0.250000000000E+01  0.250000000000E+01
  0.250000000000E+01  0.250000000000E+01  0.250000000000E+01  0.250000000000E+01  0.250000000000E+01  0.250000000000E+01  0.250000000000E+01
  0.250000000000E+01  0.250000000000E+01  0.250000000000E+01  0.250000000000E+01  0.250000000000E+01
  0.000000000000E+00  0.000000000000E+00  0.000000000000E+00  0.101201586758E+01  0.904659890645E+00  0.000000000000E+00  0.717002441913E+00
  0.125000000000E+01  0.188609243358E+01  0.191586535653E+01  0.176246431481E+01  0.000000000000E+00  0.961328577125E+00  0.250000000000E+01
  0.285047954584E+01  0.293121848150E+01  0.205246550326E+01  0.292817774674E+01  0.125000000000E+01  0.375000000000E+01  0.363585050272E+01
  0.395907379566E+01  0.406975391361E+01  0.250000000000E+01  0.306828197606E+01  0.397245519226E+01  0.500000000000E+01  0.375000000000E+01
  0.500000000000E+01  0.433168271247E+01  0.500000000000E+01  0.500000000000E+01  0.500000000000E+01
  0.000000000000E+00  0.000000000000E+00  0.000000000000E+00  0.443768049813E+00  0.402287063289E+00  0.000000000000E+00  0.377550015530E+00
  0.509231651017E+00  0.575830373842E+00  0.573705119893E+00  0.562552484917E+00  0.000000000000E+00  0.490560996922E+00  0.534526640478E+00
  0.556587161529E+00  0.564391003890E+00  0.522730520214E+00  0.522053035057E+00  0.441238864710E+00  0.517182885172E+00  0.524230081365E+00
  0.503688666615E+00  0.509490322369E+00  0.469815278546E+00  0.495614921017E+00  0.494483812152E+00  0.488562139423E+00  0.488960767301E+00
  0.492982637025E+00  0.499007441401E+00  0.486462299176E+00  0.484599832491E+00  0.495345969094E+00
  0.999989380190E+00  0.999989451040E+00  0.999989665041E+00  0.981541820811E+00  0.988773959065E+00  0.999989868921E+00  0.982469495615E+00
  0.984104107106E+00  0.990427340160E+00  0.990355127069E+00  0.994362617112E+00  0.999990335442E+00  0.988651707786E+00  0.100368299998E+01
  0.999769041194E+00  0.100118460274E+01  0.100834871539E+01  0.100252122579E+01  0.102982730935E+01  0.100443305346E+01  0.100199527495E+01
  0.100082072308E+01  0.100138208455E+01  0.100826302705E+01  0.100298818591E+01  0.100192398684E+01  0.100215265586E+01  0.100355656280E+01
  0.100047708080E+01  0.100056610141E+01  0.100126814609E+01  0.100066576236E+01  0.100179353455E+01
  0.427400252067E-01 -0.293451131868E-01  0.711986919102E-01 -0.416256975305E+00 -0.146982235754E+01 -0.937334900846E-01 -0.147937471469E+01
  0.246733219538E+00  0.114670658883E+00  0.155772395370E+00 -0.251780895311E+00 -0.153082000625E+00 -0.103077612599E+01  0.115689955945E+00
  0.134478154049E+00  0.959281415285E-01 -0.503477202564E-01  0.130254809085E+00 -0.764081507624E+00  0.796645671537E-01  0.524809088277E-01
  0.897148226488E-01  0.605127738809E-01  0.883413547517E-02  0.125935215269E+00  0.219234325712E+00  0.629365170507E+00  0.281071441832E+00
  0.758994026006E-01  0.998378737773E-01  0.595518478044E+00  0.338050251567E+00  0.761881986961E+00
  0.946687290104E-02  0.848876708546E-02 -0.176166163992E-01 -0.116348313319E+00 -0.204231465912E+00  0.204606470030E-01 -0.183600152407E+00
 -0.389722665979E-01  0.458811497035E-03 -0.202425184644E-01 -0.658496029106E-02 -0.612290091018E-02 -0.776551964858E-01 -0.304323435150E-01
  0.189586497308E-02 -0.162146743549E-01  0.212560279695E-01  0.135685245191E-01 -0.110291347198E+00 -0.192598133166E-01 -0.180326822314E-01
 -0.642094909699E-02 -0.195597996381E-01  0.132095321334E-01  0.281894521672E-01  0.288174979437E-01  0.108735953633E+00  0.609736861700E-01
 -0.689060975730E-02 -0.893269067375E-02  0.899754576370E-01  0.339965274722E-01  0.154124068032E+00
  0.189670371095E-02 -0.104182941154E-02 -0.228723851996E-02  0.793390867513E-02  0.216213681449E-01 -0.870412314278E-02  0.484530646560E-03
 -0.383697287082E-04  0.226212618325E-02 -0.440114586808E-03  0.174593179873E-02 -0.103364214373E-01 -0.114922747206E-01 -0.860675400419E-03
  0.805707095729E-04 -0.114331131890E-03  0.433437059083E-02  0.149854803327E-02 -0.304710731261E-02 -0.480275605930E-03 -0.247154307579E-03
 -0.105475469751E-02 -0.218346024750E-04  0.296127425666E-03  0.105035183040E-02 -0.143969185940E-03 -0.418532103618E-03  0.120188236079E-03
 -0.161333340879E-03 -0.394152340931E-04 -0.101390697139E-03 -0.230568653676E-04 -0.267261087173E-04
  0.121855082647E-01  0.217605078324E-01  0.607337873985E-02 -0.135980955365E-01 -0.243892910142E-01  0.211696695222E-01 -0.818661876588E-02
 -0.101015232601E-01 -0.479507685447E-01 -0.236208445743E-01 -0.686297654080E-01  0.366834582460E-01 -0.219815121319E-01 -0.933474935392E-02
 -0.248190890331E-01 -0.206326909379E-01 -0.576915764974E-01 -0.270268192334E-01  0.340609462516E-01 -0.836112690901E-02 -0.238713064928E-01
 -0.238820589822E-01 -0.179685070073E-01 -0.390385701048E-01 -0.383171893342E-01 -0.247327836570E-01 -0.178878361722E-01 -0.327583050839E-01
 -0.893933974467E-02 -0.226058496523E-01 -0.223723284254E-01 -0.203773624012E-01 -0.110682193128E-01
 -0.180253015840E+00 -0.802234863888E-01 -0.358680035391E-01  0.214927022592E+00  0.637878712886E+00 -0.858593367652E-02  0.622317147504E+00
 -0.635910406820E-01 -0.345489288138E-01 -0.407098222633E-01  0.989645484759E-01  0.122397531329E+00  0.406233379486E+00 -0.216787082889E-01
 -0.423926128872E-01 -0.216497822303E-01  0.185230586783E-01 -0.449552358495E-01  0.314834093520E+00 -0.157636205617E-01 -0.716674437805E-02
 -0.249820518925E-01 -0.986414858304E-02 -0.287484377588E-02 -0.466981477136E-01 -0.829980128862E-01 -0.253534840176E+00 -0.114086667999E+00
 -0.215168082170E-01 -0.276940888158E-01 -0.235402773695E+00 -0.126836114056E+00 -0.315447643758E+00
  0.784309027630E-09  0.262581374550E-08  0.219919125571E-09  0.257360822917E-07  0.436910356475E-07  0.163138985752E-07  0.310519541826E-06
  0.528592669206E-08  0.639358592746E-07 -0.177719897302E-07  0.213630225706E-06  0.710053405766E-07  0.394716628546E-06 -0.569572088687E-08
  0.171803313145E-07 -0.342443273779E-08  0.164416414937E-06  0.525114121416E-07  0.183038711148E-06  0.298041972287E-08  0.126491427453E-08
  0.661363793296E-08  0.253444395893E-08  0.751303777465E-07  0.740230764643E-07  0.165421931254E-07  0.623163809221E-08  0.459047507049E-07
  0.458974283565E-09  0.186849402668E-08  0.305731157584E-08 -0.447299335723E-09  0.684776545416E-08
        15         9        16        16
        15        18        11        11
        22        15        21        21
        11         5         9         9
         5         7         2         2
        11         9        15        15
        16        21        15        15
        16        10        14        14
        18        17        11        11
        17        25        24        24
        22        18        15        15
        22        30        31        31
        30        21        23        23
        16        20        23        23
        22        27        26        26
        10         9         4         4
         7        11        13        13
        25        18        26        26
        11         7         5         5
         5         1         4         4
        17        19        13        13
        23        32        30        30
        23        20        29        29
         4         9         5         5
         4         8        10        10
        26        18        22        22
        26        28        25        25
        13        11        17        17
        13         6         7         7
        31        30        32        32
         2         1         5         5
         2         7         6         6
        14        10         8         8
        24        19        17        17
        24        25        28        28
         9        10        16        16
         3         4         1         1
        33        26        27        27
        12        13        19        19
        21        30        22        22
        16        14        20        20
        16        23        21        21
        22        31        27        27
        18        25        17        17
        26        33        28        28
         4         3         8         8
        23        29        32        32
        13        12         6         6
zone t="boundary 4 bc-4", solutiontime= 0.1000000E+02, strandid=1004, i=32, j=46, f=feblock
  0.125000000000E+01  0.219251206392E+01  0.103724302461E+01  0.500000000000E+01  0.250000000000E+01  0.375000000000E+01  0.404200324774E+01
  0.500000000000E+01  0.000000000000E+00  0.310152362409E+01  0.202479342020E+01  0.324151231464E+01  0.922061490191E+00  0.000000000000E+00
  0.299062775774E+01  0.394624082883E+01  0.500000000000E+01  0.409252726285E+01  0.500000000000E+01  0.429310310915E+01  0.175434191980E+01
  0.284428995242E+01  0.000000000000E+00  0.000000000000E+00  0.715990576545E+00  0.930412228790E+00  0.125000000000E+01  0.187029682677E+01
  0.500000000000E+01  0.375000000000E+01  0.250000000000E+01  0.000000000000E+00
  0.250000000000E+01  0.157686156160E+01  0.146289271009E+01  0.250000000000E+01  0.250000000000E+01  0.250000000000E+01  0.155830813274E+01
  0.125000000000E+01  0.250000000000E+01  0.177790177481E+01  0.477386199275E+00  0.742988685424E+00  0.308372018325E+00  0.125000000000E+01
 -0.487811078581E+00 -0.144524380962E+01 -0.125000000000E+01 -0.345533899378E+00  0.000000000000E+00  0.627766083140E+00 -0.739814786992E+00
 -0.158811787973E+01  0.000000000000E+00 -0.125000000000E+01 -0.600232012419E+00 -0.154800130438E+01 -0.250000000000E+01 -0.178862290564E+01
 -0.250000000000E+01 -0.250000000000E+01 -0.250000000000E+01 -0.250000000000E+01
  0.500000000000E+01  0.500000000000E+01  0.500000000000E+01  0.500000000000E+01  0.500000000000E+01  0.500000000000E+01  0.500000000000E+01
  0.500000000000E+01  0.500000000000E+01  0.500000000000E+01  0.500000000000E+01  0.500000000000E+01  0.500000000000E+01  0.500000000000E+01
  0.500000000000E+01  0.500000000000E+01  0.500000000000E+01  0.500000000000E+01  0.500000000000E+01  0.500000000000E+01  0.500000000000E+01
  0.500000000000E+01  0.500000000000E+01  0.500000000000E+01  0.500000000000E+01  0.500000000000E+01  0.500000000000E+01  0.500000000000E+01
  0.500000000000E+01  0.500000000000E+01  0.500000000000E+01  0.500000000000E+01