title="tecplot geometry and solution file"
variables = x y z mach temperature lambda1 lambda2 lambda3 lambda4 lambda5 lambda6
zone t="boundary 1 bc-1", solutiontime= 0.3000000E+02, strandid=1001, i=32, j=46, f=feblock
  0.000000000000E+00  0.000000000000E+00  0.000000000000E+00  0.000000000000E+00  0.000000000000E+00  0.000000000000E+00  0.000000000000E+00
  0.000000000000E+00  0.000000000000E+00  0.000000000000E+00  0.000000000000E+00  0.000000000000E+00  0.000000000000E+00  0.000000000000E+00
  0.000000000000E+00  0.000000000000E+00  0.000000000000E+00  0.000000000000E+00  0.000000000000E+00  0.000000000000E+00  0.000000000000E+00
  0.000000000000E+00  0.000000000000E+00  0.000000000000E+00  0.000000000000E+00  0.000000000000E+00  0.000000000000E+00  0.000000000000E+00
  0.000000000000E+00  0.000000000000E+00  0.000000000000E+00  0.000000000000E+00
  0.250000000000E+01  0.250000000000E+01  0.125000000000E+01  0.146289271009E+01  0.157686156160E+01  0.308372018325E+00  0.000000000000E+00
 -0.125000000000E+01 -0.600232012419E+00  0.250000000000E+01  0.477386199275E+00  0.742988685424E+00 -0.739814786992E+00  0.177790177481E+01
  0.155830813274E+01  0.250000000000E+01 -0.250000000000E+01 -0.154800130438E+01 -0.487811078581E+00  0.250000000000E+01  0.627766083140E+00
 -0.345533899378E+00 -0.178862290564E+01 -0.158811787973E+01  0.125000000000E+01 -0.250000000000E+01 -0.144524380962E+01  0.000000000000E+00
 -0.125000000000E+01 -0.250000000000E+01 -0.250000000000E+01 -0.250000000000E+01
  0.000000000000E+00  0.125000000000E+01  0.000000000000E+00  0.103724302461E+01  0.219251206392E+01  0.922061490191E+00  0.000000000000E+00
  0.000000000000E+00  0.715990576545E+00  0.250000000000E+01  0.202479342020E+01  0.324151231464E+01  0.175434191980E+01  0.310152362409E+01
  0.404200324774E+01  0.375000000000E+01  0.000000000000E+00  0.930412228790E+00  0.299062775774E+01  0.500000000000E+01  0.429310310915E+01
  0.409252726285E+01  0.187029682677E+01  0.284428995242E+01  0.500000000000E+01  0.125000000000E+01  0.394624082883E+01  0.500000000000E+01
  0.500000000000E+01  0.250000000000E+01  0.375000000000E+01  0.500000000000E+01
  0.000000000000E+00  0.441238864710E+00  0.000000000000E+00  0.475212333418E+00  0.460125600047E+00  0.468825459916E+00  0.000000000000E+00
  0.000000000000E+00  0.402299647307E+00  0.469815278546E+00  0.464413480260E+00  0.478714152972E+00  0.489298547802E+00  0.483067971662E+00
  0.487929224832E+00  0.488960767301E+00  0.000000000000E+00  0.464773408827E+00  0.473796242669E+00  0.495345969094E+00  0.490265403772E+00
  0.486285557293E+00  0.445720648663E+00  0.464383522981E+00  0.496127006189E+00  0.443623519427E+00  0.486963956588E+00  0.497245800655E+00
  0.496058644718E+00  0.467732961393E+00  0.488211579388E+00  0.495097551278E+00
  0.999990335442E+00  0.102982730935E+01  0.999990797222E+00  0.104247144519E+01  0.101190167613E+01  0.102520600953E+01  0.999991453848E+00
  0.999992202332E+00  0.103891124272E+01  0.100826302705E+01  0.101252909219E+01  0.100300571845E+01  0.102702848665E+01  0.100605562865E+01
  0.100244399774E+01  0.100355656280E+01  0.999992753610E+00  0.103239691667E+01  0.100459561267E+01  0.100179353455E+01  0.100260307775E+01
  0.100234974224E+01  0.101657231252E+01  0.100617628259E+01  0.100168864675E+01  0.104043187424E+01  0.100303393289E+01  0.100118748788E+01
  0.100134189338E+01  0.100976788455E+01  0.100405369623E+01  0.100176128351E+01
 -0.154109498513E+00 -0.780400144453E+00 -0.175117847819E+00 -0.124638429474E+01 -0.854289964262E-01 -0.149105309137E+01 -0.129693313837E+00
 -0.429982695012E-01 -0.149780188759E+01  0.435343434062E-01 -0.963818915327E-01  0.177565473836E+00 -0.777392885575E-01  0.989078772540E-01
  0.236466298762E+00  0.235807983753E+00 -0.762518909333E-01 -0.964134028295E+00  0.129940054831E+00  0.861090614051E+00  0.306909372279E+00
  0.204645286951E+00 -0.446317140140E-01  0.109750731453E+00  0.890730439118E+00 -0.609124194822E+00  0.159192560954E+00  0.981461810276E+00
  0.865886477342E+00  0.887429870399E-01  0.174936215498E+00  0.813556575269E+00
 -0.595547278954E-02 -0.113287006898E+00 -0.833066595683E-02 -0.159748414365E+00 -0.387794393864E-02 -0.226620842220E+00 -0.901481463076E-02
 -0.780551148633E-02 -0.223566046843E+00  0.200813093048E-01 -0.861542149886E-02  0.373933365901E-01  0.312748387491E-02  0.289413166919E-01
  0.463087394052E-01  0.518282188625E-01 -0.688079341921E-02 -0.150439713356E+00  0.260148634541E-01  0.176794428332E+00  0.608411494093E-01
  0.391585699747E-01  0.549609591733E-02  0.210958290200E-01  0.186478843359E+00 -0.746856645253E-01  0.313814888741E-01  0.206186368204E+00
  0.181167570247E+00  0.224069753270E-01  0.372967850845E-01  0.169228358446E+00
 -0.104709769329E-01 -0.321881083615E-02 -0.141021358890E-01 -0.322507457637E-01 -0.365675171473E-02 -0.166675648593E-01 -0.116230814400E-01
  0.448481337794E-02  0.789764050332E-03  0.343601745210E-03 -0.346391575466E-02 -0.322173785908E-02  0.382788127404E-02 -0.495891163815E-03
  0.139456222303E-02  0.712888201195E-04  0.600421902033E-02  0.204623792981E-01 -0.283693605685E-03 -0.883064431741E-04  0.987220062920E-03
  0.114159517338E-02  0.758445015002E-03  0.368222271119E-02 -0.219123751094E-02  0.265391685959E-02  0.209904658648E-02  0.547088755551E-03
  0.198677534772E-02  0.559554404841E-03  0.194458556320E-03 -0.172732063424E-03
  0.374068988946E-01  0.332899614444E-01  0.406930985175E-01 -0.207944112576E-03 -0.366156525961E-01 -0.400244268641E-01  0.232573761933E-01
  0.198810840715E-01 -0.298751650028E-01 -0.401294370948E-01 -0.738158640998E-01 -0.404867570944E-01 -0.817962204996E-01 -0.379472104883E-01
 -0.278819401549E-01 -0.328643549819E-01  0.149191569944E-01 -0.243966813463E-01 -0.465191754177E-01 -0.116713808960E-01 -0.257836898432E-01
 -0.306683674406E-01 -0.550667539391E-01 -0.376648806650E-01 -0.112166447152E-01 -0.284918060809E-01 -0.280663211911E-01 -0.106179215820E-01
 -0.126804768869E-01 -0.424986043339E-01 -0.287358880149E-01 -0.124590636973E-01
  0.123592526768E+00  0.321546655770E+00  0.167309010273E+00  0.498960438472E+00  0.355784500359E-01  0.619563757104E+00 -0.111800175249E-01
 -0.280777876101E-01  0.622888038830E+00 -0.175030982592E-01  0.422389113496E-01 -0.693769044901E-01  0.337365172144E-01 -0.389528707178E-01
 -0.944319399599E-01 -0.950963154584E-01  0.249388881476E-01  0.403285761983E+00 -0.480983440680E-01 -0.357466279199E+00 -0.123942132157E+00
 -0.809039472545E-01  0.217320143620E-01 -0.391892254000E-01 -0.370434029138E+00  0.248473233594E+00 -0.620508074426E-01 -0.409366534366E+00
 -0.360329672967E+00 -0.321223513901E-01 -0.694656865629E-01 -0.337665695409E+00
  0.714354308760E-07  0.152577051853E-06  0.758663442805E-07  0.276234455309E-06  0.795371465546E-07  0.581119677963E-07 -0.452845088619E-07
 -0.139964984011E-07 -0.125987045736E-05  0.678026278092E-07  0.224006853407E-06  0.106437440079E-06  0.153544864513E-06  0.794479763631E-07
  0.251178042133E-07  0.483240144282E-07  0.798560125671E-08 -0.268338968440E-06  0.105949985357E-06  0.730064992200E-08  0.109645728586E-07
  0.196028711277E-07  0.938833177551E-07  0.948711811305E-07 -0.784274479541E-09  0.131952935734E-06  0.255815657194E-07 -0.673521755041E-08
 -0.308350197670E-09  0.746350738923E-07  0.369694297207E-07  0.754322553069E-08
        12        19        11        11
        11         5        12        12
        10        14         5         5
        19        13        11        11
        19        24        13        13
        30        23        24        24
        19        12        22        22
        28        22        21        21
        11        13         6         6
         7         6         9         9
        15        12        14        14
        18        13        23        23
        15        25        21        21
        27        19        22        22
        18         8         9         9
        27        31        24        24
         4        11         6         6
         5        14        12        12
         4         2         5         5
        21        12        15        15
        14        16        15        15
        24        19        27        27
        22        29        27        27
        23        26        18        18
        17         8        18        18
         5        11         4         4
         6         3         4         4
        26        23        30        30
         5         2        10        10
        16        14        10        10
         3         6         7         7
        21        25        28        28
        29        22        28        28
         6        13         9         9
         2         4         1         1
        31        27        32        32
        25        15        20        20
        24        23        13        13
         8         7         9         9
        13        18         9         9
        31        30        24        24
        12        21        22        22
        29        32        27        27
         3         1         4         4
        26        17        18        18
        16        20        15        15
zone t="boundary 2 bc-2", solutiontime= 0.3000000E+02, strandid=1002, i=33, j=48, f=feblock
  0.500000000000E+01  0.375000000000E+01  0.250000000000E+01  0.288078410721E+01  0.125000000000E+01  0.190974100652E+01  0.326683758169E+01
  0.201431602454E+01  0.000000000000E+00  0.963108083381E+00  0.500000000000E+01  0.403552511878E+01  0.423153924130E+01  0.500000000000E+01
  0.385533350601E+01  0.500000000000E+01  0.398173246726E+01  0.315249557942E+01  0.267000324704E+01  0.154774304040E+01  0.218329375016E+01
  0.893127759452E+00  0.000000000000E+00  0.698517061619E+00  0.964171764089E+00  0.310324758057E+01  0.000000000000E+00  0.000000000000E+00
  0.125000000000E+01  0.500000000000E+01  0.375000000000E+01  0.250000000000E+01  0.000000000000E+00
 -0.250000000000E+01 -0.250000000000E+01 -0.250000000000E+01 -0.250000000000E+01 -0.250000000000E+01 -0.250000000000E+01 -0.250000000000E+01
 -0.250000000000E+01 -0.250000000000E+01 -0.250000000000E+01 -0.250000000000E+01 -0.250000000000E+01 -0.250000000000E+01 -0.250000000000E+01
 -0.250000000000E+01 -0.250000000000E+01 -0.250000000000E+01 -0.250000000000E+01 -0.250000000000E+01 -0.250000000000E+01 -0.250000000000E+01
 -0.250000000000E+01 -0.250000000000E+01 -0.250000000000E+01 -0.250000000000E+01 -0.250000000000E+01 -0.250000000000E+01 -0.250000000000E+01
 -0.250000000000E+01 -0.250000000000E+01 -0.250000000000E+01 -0.250000000000E+01 -0.250000000000E+01
  0.000000000000E+00  0.000000000000E+00  0.000000000000E+00  0.904659890645E+00  0.000000000000E+00  0.717002441913E+00  0.188609243358E+01
  0.176246431481E+01  0.000000000000E+00  0.961328577125E+00  0.125000000000E+01  0.101201586758E+01  0.191586535653E+01  0.250000000000E+01
  0.293121848150E+01  0.375000000000E+01  0.406975391361E+01  0.363585050272E+01  0.285047954584E+01  0.292817774674E+01  0.395907379566E+01
  0.205246550326E+01  0.125000000000E+01  0.306828197606E+01  0.397245519226E+01  0.433168271247E+01  0.250000000000E+01  0.375000000000E+01
  0.500000000000E+01  0.500000000000E+01  0.500000000000E+01  0.500000000000E+01  0.500000000000E+01
  0.000000000000E+00  0.000000000000E+00  0.000000000000E+00  0.380991677071E+00  0.000000000000E+00  0.343629846333E+00  0.585283712637E+00
  0.579371274939E+00  0.000000000000E+00  0.501053781697E+00  0.508459764195E+00  0.435372705232E+00  0.572637650783E+00  0.537001621764E+00
  0.568921604272E+00  0.514994863512E+00  0.508249384174E+00  0.527254272376E+00  0.567446148296E+00  0.531657889979E+00  0.505982349932E+00
  0.520795557933E+00  0.443623519427E+00  0.490664279058E+00  0.492156105736E+00  0.501392667577E+00  0.467732961393E+00  0.488211579388E+00
  0.490002415326E+00  0.491354393416E+00  0.486078174930E+00  0.490037677861E+00  0.495097551278E+00
  0.999993511960E+00  0.999993715260E+00  0.999993570321E+00  0.989539101465E+00  0.999993167142E+00  0.985524838689E+00  0.989838839696E+00
  0.991798259717E+00  0.999992753610E+00  0.984411184056E+00  0.985091609572E+00  0.984689131748E+00  0.990058406085E+00  0.100289567776E+01
  0.999855182158E+00  0.100485299288E+01  0.100121572260E+01  0.100055639449E+01  0.997896752171E+00  0.100350023825E+01  0.100058089063E+01
  0.101093252220E+01  0.104043187424E+01  0.100326541074E+01  0.100254508116E+01  0.100045601675E+01  0.100976788455E+01  0.100405369623E+01
  0.100192661355E+01  0.100045469615E+01  0.100058772260E+01  0.100109988203E+01  0.100176128351E+01
  0.631321369861E-01  0.497921163913E-01  0.303279694526E-01 -0.582062857341E+00 -0.593138225367E-01 -0.192680279654E+01  0.129410998784E+00
 -0.193834681199E-01 -0.762518909333E-01 -0.893570405941E+00  0.166021616651E+00  0.190802343728E+00  0.130506305350E+00  0.111423685796E+00
  0.819963822552E-01  0.749336298314E-01  0.552034408933E-01  0.638367383473E-01  0.104810353495E+00  0.124749950957E+00  0.832523042409E-01
 -0.313755109250E-01 -0.609124194822E+00  0.844388269239E-01  0.153632134629E+00  0.100304637119E+00  0.887429870399E-01  0.174936215498E+00
  0.731980580891E+00  0.872342190584E-01  0.334356280011E+00  0.643067563993E+00  0.813556575269E+00
 -0.171109245923E-01  0.472898477856E-02 -0.443244229767E-03 -0.100523928853E+00  0.109534948976E-01 -0.239843266713E+00  0.106330681290E-03
  0.977082956816E-02 -0.688079341921E-02 -0.105674623991E+00 -0.374849477223E-01 -0.186602927342E-02 -0.192557530874E-01 -0.285016528685E-01
 -0.190923170905E-01 -0.175713517937E-01 -0.210991229881E-01 -0.176392274043E-01 -0.673590824100E-02  0.101735841605E-01 -0.758365769360E-02
  0.858970693277E-02 -0.746856645253E-01  0.553137380001E-02  0.176661668758E-01 -0.104284743448E-01  0.224069753270E-01  0.372967850845E-01
  0.131640471730E+00 -0.440822048491E-02  0.335863874858E-01  0.999404654430E-01  0.169228358446E+00
  0.380326643381E-02 -0.100770917046E-02 -0.590725211708E-02 -0.135950783334E-01 -0.314172996068E-02 -0.239145008130E-01  0.189449835132E-02
 -0.151959481586E-03  0.600421902033E-02 -0.919793354073E-02  0.220242822424E-02  0.707370492569E-02 -0.135959543979E-03 -0.211591205236E-03
 -0.168962832800E-03  0.332934038857E-03 -0.440207320850E-04  0.176719400876E-03 -0.268399298319E-03 -0.648185921680E-03  0.425245479252E-03
 -0.693227716135E-03  0.265391685959E-02 -0.117320097926E-03  0.680517347998E-04  0.148334083421E-03  0.559554404841E-03  0.194458556320E-03
  0.623451483951E-04  0.574197816348E-04 -0.140282052234E-04 -0.429114762374E-04 -0.172732063424E-03
  0.496481428084E-02  0.497875550205E-02  0.754140831060E-02 -0.256690882713E-01  0.174398415874E-01 -0.540807874314E-02 -0.387128803952E-01
 -0.516711286725E-01  0.149191569944E-01 -0.243589720881E-01 -0.736010908552E-02 -0.270602618532E-01 -0.156430842693E-01 -0.708480081627E-02
 -0.162600024664E-01 -0.596593652158E-02 -0.158573680634E-01 -0.223985021647E-01 -0.264937618377E-01 -0.275955581636E-01 -0.258860572499E-01
 -0.412498470071E-01 -0.284918060809E-01 -0.293805546947E-01 -0.259599222509E-01 -0.223787629297E-01 -0.424986043339E-01 -0.287358880149E-01
 -0.174862135727E-01 -0.930242353625E-02 -0.202543009784E-01 -0.219807348089E-01 -0.124590636973E-01
 -0.169936482514E-01 -0.478785108303E-01 -0.834041985588E-01  0.265852080476E+00 -0.100535367945E+00  0.825634035191E+00 -0.382799983284E-01
  0.106593416191E-01  0.249388881476E-01  0.370511442172E+00 -0.359560915304E-01 -0.576602180133E-01 -0.320205413718E-01 -0.213619742101E-01
 -0.159816163441E-01 -0.151532943813E-01 -0.757676258524E-02 -0.115775879106E-01 -0.285941292198E-01 -0.422128204606E-01 -0.222403590114E-01
  0.146108300237E-01  0.248473233594E+00 -0.271074809701E-01 -0.560271785417E-01 -0.273737573731E-01 -0.321223513901E-01 -0.694656865629E-01
 -0.297398077420E+00 -0.263610046961E-01 -0.125468307294E+00 -0.255684039928E+00 -0.337665695409E+00
  0.296105550259E-10  0.329671558034E-09  0.654474271768E-09  0.346940200471E-07  0.247819527817E-08  0.784803494866E-07  0.335337760010E-07
  0.201845807742E-06  0.798560125671E-08  0.161765814949E-06  0.366380966274E-08  0.903663849981E-08 -0.139624969172E-07 -0.586621719387E-08
 -0.662840979844E-09  0.299443770769E-08  0.449555681537E-08  0.722618640634E-08  0.145817216918E-07  0.415411824654E-07  0.141742361174E-07
  0.147587362402E-06  0.131952935734E-06  0.570824879712E-07  0.173662306903E-07  0.868606323803E-08  0.746350738923E-07  0.369694297207E-07
  0.198689037874E-07  0.246191509944E-09  0.475266864978E-08  0.165002439481E-07  0.754322553069E-08
        15         7        19        19
         8        20        19        19
        18        19        21        21
         7         4         8         8
         3         6         4         4
        19         7         8         8
        19        18        15        15
        14        13        15        15
         8        22        20        20
        27        24        22        22
        19        20        21        21
        32        26        21        21
        17        18        26        26
        17        16        15        15
        25        29        21        21
        12         7        13        13
        10         8         6         6
        25        20        24        24
         4         6         8         8
        12         2         4         4
        10        23        22        22
        26        31        17        17
        30        16        17        17
         4         7        12        12
        13        11        12        12
        21        20        25        25
        24        28        25        25
        22         8        10        10
         6         5        10        10
        31        26        32        32
         4         2         3         3
         5         6         3         3
        11        13        14        14
        22        23        27        27
        28        24        27        27
        15        13         7         7
         2        12         1         1
        29        25        33        33
        23        10         9         9
        21        26        18        18
        16        14        15        15
        18        17        15        15
        29        32        21        21
        22        24        20        20
        28        33        25        25
        11         1        12        12
        31        30        17        17
         5         9        10        10
zone t="boundary 3 bc-3", solutiontime= 0.3000000E+02, strandid=1003, i=33, j=48, f=feblock
  0.375000000000E+01  0.250000000000E+01  0.500000000000E+01  0.403552511878E+01  0.288078410721E+01  0.125000000000E+01  0.190974100652E+01
  0.500000000000E+01  0.326683758169E+01  0.423153924130E+01  0.201431602454E+01  0.000000000000E+00  0.963108083381E+00  0.500000000000E+01
  0.267000324704E+01  0.385533350601E+01  0.893127759452E+00  0.154774304040E+01  0.000000000000E+00  0.500000000000E+01  0.315249557942E+01
  0.218329375016E+01  0.398173246726E+01  0.000000000000E+00  0.698517061619E+00  0.964171764089E+00  0.125000000000E+01  0.000000000000E+00
  0.500000000000E+01  0.310324758057E+01  0.250000000000E+01  0.375000000000E+01  0.000000000000E+00
  0.250000000000E+01  0.250000000000E+01  0.250000000000E+01  0.250000000000E+01  0.250000000000E+01  0.250000000000E+01  0.250000000000E+01
  0.250000000000E+01  0.250000000000E+01  0.250000000000E+01  0.250000000000E+01  0.250000000000E+01  0.250000000000E+01  0.250000000000E+01
  0.250000000000E+01  0.250000000000E+01  0.250000000000E+01  0.250000000000E+01  0.250000000000E+01  0.250000000000E+01  0.250000000000E+01
  0.250000000000E+01  0.250000000000E+01  0.250000000000E+01  0.250000000000E+01  0.250000000000E+01  0.250000000000E+01  0.250000000000E+01
  0.250000000000E+01  0.250000000000E+01  0.250000000000E+01  0.250000000000E+01  0.250000000000E+01
  0.000000000000E+00  0.000000000000E+00  0.000000000000E+00  0.101201586758E+01  0.904659890645E+00  0.000000000000E+00  0.717002441913E+00
  0.125000000000E+01  0.188609243358E+01  0.191586535653E+01  0.176246431481E+01  0.000000000000E+00  0.961328577125E+00  0.250000000000E+01
  0.285047954584E+01  0.293121848150E+01  0.205246550326E+01  0.292817774674E+01  0.125000000000E+01  0.375000000000E+01  0.363585050272E+01
  0.395907379566E+01  0.406975391361E+01  0.250000000000E+01  0.306828197606E+01  0.397245519226E+01  0.500000000000E+01  0.375000000000E+01
  0.500000000000E+01  0.433168271247E+01  0.500000000000E+01  0.500000000000E+01  0.500000000000E+01
  0.000000000000E+00  0.000000000000E+00  0.000000000000E+00  0.443768049813E+00  0.402287063289E+00  0.000000000000E+00  0.377550015530E+00
  0.509231651017E+00  0.575830373842E+00  0.573705119893E+00  0.562552484917E+00  0.000000000000E+00  0.490560996922E+00  0.534526640478E+00
  0.556587161529E+00  0.564391003890E+00  0.522730520214E+00  0.522053035057E+00  0.441238864710E+00  0.517182885172E+00  0.524230081365E+00
  0.503688666615E+00  0.509490322369E+00  0.469815278546E+00  0.495614921017E+00  0.494483812152E+00  0.488562139423E+00  0.488960767301E+00
  0.492982637025E+00  0.499007441401E+00  0.486462299176E+00  0.484599832491E+00  0.495345969094E+00
  0.999989380190E+00  0.999989451040E+00  0.999989665041E+00  0.981541820811E+00  0.988773959065E+00  0.999989868921E+00  0.982469495615E+00
  0.984104107106E+00  0.990427340160E+00  0.990355127069E+00  0.994362617112E+00  0.999990335442E+00  0.988651707786E+00  0.100368299998E+01
  0.999769041194E+00  0.100118460274E+01  0.100834871539E+01  0.100252122579E+01  0.102982730935E+01  0.100443305346E+01  0.100199527495E+01
  0.100082072308E+01  0.100138208455E+01  0.100826302705E+01  0.100298818591E+01  0.100192398684E+01  0.100215265586E+01  0.100355656280E+01
  0.100047708080E+01  0.100056610141E+01  0.100126814609E+01  0.100066576236E+01  0.100179353455E+01
  0.438265659885E-01 -0.329849850644E-01  0.716810139904E-01 -0.408061538105E+00 -0.156416859957E+01 -0.970679578367E-01 -0.155705577683E+01
  0.245709468320E+00  0.123915234430E+00  0.154469926674E+00 -0.261329684285E+00 -0.154109498513E+00 -0.105794179959E+01  0.116983717334E+00
  0.136453977999E+00  0.963356646575E-01 -0.330943259430E-01  0.131909578159E+00 -0.780400144453E+00  0.797199314774E-01  0.583415568989E-01
  0.798172717244E-01  0.608075511975E-01  0.435343434062E-01  0.112746428545E+00  0.211397474718E+00  0.648576579709E+00  0.235807983753E+00
  0.755320387050E-01  0.928735874740E-01  0.606239079740E+00  0.328733010406E+00  0.861090614051E+00
  0.101454781498E-01  0.978639032087E-02 -0.180144304093E-01 -0.113926003357E+00 -0.216392553351E+00  0.206082703947E-01 -0.193891809325E+00
 -0.399978656937E-01  0.176721874875E-02 -0.212178447650E-01 -0.569479459717E-02 -0.595547278954E-02 -0.803076880382E-01 -0.306124183943E-01
  0.180106555888E-02 -0.161571937836E-01  0.283777453678E-01  0.136592332710E-01 -0.113287006898E+00 -0.195477532101E-01 -0.170199657172E-01
 -0.933709887283E-02 -0.197817965522E-01  0.200813093048E-01  0.262646839522E-01  0.264622468605E-01  0.114992717107E+00  0.518282188625E-01
 -0.688089837331E-02 -0.109705157182E-01  0.939729716330E-01  0.326121041588E-01  0.176794428332E+00
  0.191047423344E-02 -0.108299940391E-02 -0.239721671629E-02  0.782843428120E-02  0.222026372037E-01 -0.869304024599E-02  0.465045517482E-03
 -0.106066009692E-04  0.245710433312E-02 -0.376638481554E-03  0.204608591550E-02 -0.104709769329E-01 -0.117848642965E-01 -0.884883800003E-03
  0.116331277816E-03 -0.111741741017E-03  0.407462944409E-02  0.154907103575E-02 -0.321881083615E-02 -0.496985923945E-03 -0.247170881328E-03
 -0.106749980149E-02 -0.172051984897E-04  0.343601745210E-03  0.930065974060E-03 -0.300533237635E-03 -0.440314994069E-03  0.712888201195E-04
 -0.177293915373E-03  0.781170650547E-05 -0.990974112079E-04  0.246070140122E-04 -0.883064431741E-04
  0.120434495544E-01  0.225730893697E-01  0.624002686949E-02 -0.160557136028E-01 -0.264064194232E-01  0.217482855673E-01 -0.803625270183E-02
 -0.952893266356E-02 -0.488502012143E-01 -0.234887799333E-01 -0.712341567360E-01  0.374068988946E-01 -0.234564300466E-01 -0.937820307894E-02
 -0.250958002499E-01 -0.208859495020E-01 -0.601372695485E-01 -0.268794369127E-01  0.332899614444E-01 -0.832008973630E-02 -0.240925398479E-01
 -0.249550662719E-01 -0.179715566811E-01 -0.401294370948E-01 -0.386997119349E-01 -0.257895733602E-01 -0.184639715271E-01 -0.328643549819E-01
 -0.886004071024E-02 -0.233893063859E-01 -0.223620898124E-01 -0.203705662798E-01 -0.116713808960E-01
 -0.181805041160E+00 -0.789693460570E-01 -0.357083393438E-01  0.211243821894E+00  0.677254373980E+00 -0.745024232749E-02  0.654511317967E+00
 -0.627558141126E-01 -0.383221912132E-01 -0.399055418438E-01  0.102234815341E+00  0.123592526768E+00  0.417043514519E+00 -0.220106782721E-01
 -0.430784881424E-01 -0.217869310874E-01  0.103141309665E-01 -0.456357479825E-01  0.321546655770E+00 -0.156420203895E-01 -0.962414580017E-02
 -0.205276074733E-01 -0.989710219974E-02 -0.175030982592E-01 -0.411196112994E-01 -0.795111318050E-01 -0.262196739465E+00 -0.950963154584E-01
 -0.213982859796E-01 -0.244948168258E-01 -0.240541180941E+00 -0.123043833752E+00 -0.357466279199E+00
  0.721536582101E-09  0.253250472721E-08  0.205086144388E-09  0.236756350086E-07  0.421410377180E-07  0.171133594922E-07  0.325740815902E-06
  0.439903723402E-08  0.662095151194E-07 -0.189693524774E-07  0.226546164041E-06  0.714354308760E-07  0.393314378820E-06 -0.535965187662E-08
  0.165019427245E-07 -0.303429026028E-08  0.157617340638E-06  0.542890576142E-07  0.152577051853E-06  0.295368159595E-08  0.222460507924E-08
  0.808498275036E-08  0.332255338192E-08  0.678026278092E-07  0.780974932987E-07  0.173762418553E-07  0.954967342739E-08  0.483240144282E-07
  0.739584229592E-09  0.391297897125E-08  0.647124509607E-08  0.123602953500E-08  0.730064992200E-08
        15         9        16        16
        15        18        11        11
        22        15        21        21
        11         5         9         9
         5         7         2         2
        11         9        15        15
        16        21        15        15
        16        10        14        14
        18        17        11        11
        17        25        24        24
        22        18        15        15
        22        30        31        31
        30        21        23        23
        16        20        23        23
        22        27        26        26
        10         9         4         4
         7        11        13        13
        25        18        26        26
        11         7         5         5
         5         1         4         4
        17        19        13        13
        23        32        30        30
        23        20        29        29
         4         9         5         5
         4         8        10        10
        26        18        22        22
        26        28        25        25
        13        11        17        17
        13         6         7         7
        31        30        32        32
         2         1         5         5
         2         7         6         6
        14        10         8         8
        24        19        17        17
        24        25        28        28
         9        10        16        16
         3         4         1         1
        33        26        27        27
        12        13        19        19
        21        30        22        22
        16        14        20        20
        16        23        21        21
        22        31        27        27
        18        25        17        17
        26        33        28        28
         4         3         8         8
        23        29        32        32
        13        12         6         6
zone t="boundary 4 bc-4", solutiontime= 0.3000000E+02, strandid=1004, i=32, j=46, f=feblock
  0.125000000000E+01  0.219251206392E+01  0.103724302461E+01  0.500000000000E+01  0.250000000000E+01  0.375000000000E+01  0.404200324774E+01
  0.500000000000E+01  0.000000000000E+00  0.310152362409E+01  0.202479342020E+01  0.324151231464E+01  0.922061490191E+00  0.000000000000E+00
  0.299062775774E+01  0.394624082883E+01  0.500000000000E+01  0.409252726285E+01  0.500000000000E+01  0.429310310915E+01  0.175434191980E+01
  0.284428995242E+01  0.000000000000E+00  0.000000000000E+00  0.715990576545E+00  0.930412228790E+00  0.125000000000E+01  0.187029682677E+01
  0.500000000000E+01  0.375000000000E+01  0.250000000000E+01  0.000000000000E+00
  0.250000000000E+01  0.157686156160E+01  0.146289271009E+01  0.250000000000E+01  0.250000000000E+01  0.250000000000E+01  0.155830813274E+01
  0.125000000000E+01  0.250000000000E+01  0.177790177481E+01  0.477386199275E+00  0.742988685424E+00  0.308372018325E+00  0.125000000000E+01
 -0.487811078581E+00 -0.144524380962E+01 -0.125000000000E+01 -0.345533899378E+00  0.000000000000E+00  0.627766083140E+00 -0.739814786992E+00
 -0.158811787973E+01  0.000000000000E+00 -0.125000000000E+01 -0.600232012419E+00 -0.154800130438E+01 -0.250000000000E+01 -0.178862290564E+01
 -0.250000000000E+01 -0.250000000000E+01 -0.250000000000E+01 -0.250000000000E+01
  0.500000000000E+01  0.500000000000E+01  0.500000000000E+01  0.500000000000E+01  0.500000000000E+01  0.500000000000E+01  0.500000000000E+01
  0.500000000000E+01  0.500000000000E+01  0.500000000000E+01  0.500000000000E+01  0.500000000000E+01  0.500000000000E+01  0.500000000000E+01
  0.500000000000E+01  0.500000000000E+01  0.500000000000E+01  0.500000000000E+01  0.500000000000E+01  0.500000000000E+01  0.500000000000E+01
  0.500000000000E+01  0.500000000000E+01  0.500000000000E+01  0.500000000000E+01  0.500000000000E+01  0.500000000000E+01  0.500000000000E+01
  0.500000000000E+01  0.500000000000E+01  0.500000000000E+01  0.500000000000E+01