title="tecplot geometry and solution file"
variables = x y z mach temperature lambda1 lambda2 lambda3 lambda4 lambda5 lambda6
zone t="boundary 1 bc-1", solutiontime= 0.4000000E+02, strandid=1001, i=32, j=46, f=feblock
  0.000000000000E+00  0.000000000000E+00  0.000000000000E+00  0.000000000000E+00  0.000000000000E+00  0.000000000000E+00  0.000000000000E+00
  0.000000000000E+00  0.000000000000E+00  0.000000000000E+00  0.000000000000E+00  0.000000000000E+00  0.000000000000E+00  0.000000000000E+00
  0.000000000000E+00  0.000000000000E+00  0.000000000000E+00  0.000000000000E+00  0.000000000000E+00  0.000000000000E+00  0.000000000000E+00
  0.000000000000E+00  0.000000000000E+00  0.000000000000E+00  0.000000000000E+00  0.000000000000E+00  0.000000000000E+00  0.000000000000E+00
  0.000000000000E+00  0.000000000000E+00  0.000000000000E+00  0.000000000000E+00
  0.250000000000E+01  0.250000000000E+01  0.125000000000E+01  0.146289271009E+01  0.157686156160E+01  0.308372018325E+00  0.000000000000E+00
 -0.125000000000E+01 -0.600232012419E+00  0.250000000000E+01  0.477386199275E+00  0.742988685424E+00 -0.739814786992E+00  0.177790177481E+01
  0.155830813274E+01  0.250000000000E+01 -0.250000000000E+01 -0.154800130438E+01 -0.487811078581E+00  0.250000000000E+01  0.627766083140E+00
 -0.345533899378E+00 -0.178862290564E+01 -0.158811787973E+01  0.125000000000E+01 -0.250000000000E+01 -0.144524380962E+01  0.000000000000E+00
 -0.125000000000E+01 -0.250000000000E+01 -0.250000000000E+01 -0.250000000000E+01
  0.000000000000E+00  0.125000000000E+01  0.000000000000E+00  0.103724302461E+01  0.219251206392E+01  0.922061490191E+00  0.000000000000E+00
  0.000000000000E+00  0.715990576545E+00  0.250000000000E+01  0.202479342020E+01  0.324151231464E+01  0.175434191980E+01  0.310152362409E+01
  0.404200324774E+01  0.375000000000E+01  0.000000000000E+00  0.930412228790E+00  0.299062775774E+01  0.500000000000E+01  0.429310310915E+01
  0.409252726285E+01  0.187029682677E+01  0.284428995242E+01  0.500000000000E+01  0.125000000000E+01  0.394624082883E+01  0.500000000000E+01
  0.500000000000E+01  0.250000000000E+01  0.375000000000E+01  0.500000000000E+01
  0.000000000000E+00  0.441238864710E+00  0.000000000000E+00  0.475212333418E+00  0.460125600047E+00  0.468825459916E+00  0.000000000000E+00
  0.000000000000E+00  0.402299647307E+00  0.469815278546E+00  0.464413480260E+00  0.478714152972E+00  0.489298547802E+00  0.483067971662E+00
  0.487929224832E+00  0.488960767301E+00  0.000000000000E+00  0.464773408827E+00  0.473796242669E+00  0.495345969094E+00  0.490265403772E+00
  0.486285557293E+00  0.445720648663E+00  0.464383522981E+00  0.496127006189E+00  0.443623519427E+00  0.486963956588E+00  0.497245800655E+00
  0.496058644718E+00  0.467732961393E+00  0.488211579388E+00  0.495097551278E+00
  0.999990335442E+00  0.102982730935E+01  0.999990797222E+00  0.104247144519E+01  0.101190167613E+01  0.102520600953E+01  0.999991453848E+00
  0.999992202332E+00  0.103891124272E+01  0.100826302705E+01  0.101252909219E+01  0.100300571845E+01  0.102702848665E+01  0.100605562865E+01
  0.100244399774E+01  0.100355656280E+01  0.999992753610E+00  0.103239691667E+01  0.100459561267E+01  0.100179353455E+01  0.100260307775E+01
  0.100234974224E+01  0.101657231252E+01  0.100617628259E+01  0.100168864675E+01  0.104043187424E+01  0.100303393289E+01  0.100118748788E+01
  0.100134189338E+01  0.100976788455E+01  0.100405369623E+01  0.100176128351E+01
  0.589608696049E-03  0.340831094397E-02  0.791815032585E-03  0.574391015986E-02  0.346407312748E-03  0.798188791483E-02  0.658758531601E-03
  0.398076535762E-03  0.815370933807E-02 -0.254368381480E-03  0.623773867739E-03 -0.957059196102E-03  0.831995004804E-03 -0.516931431595E-03
 -0.132133933830E-02 -0.127156438387E-02  0.721716714517E-03  0.854870492922E-02 -0.743491192125E-03 -0.488128292878E-02 -0.176749130383E-02
 -0.121732993149E-02  0.253915789681E-03 -0.770098447966E-03 -0.508142069543E-02  0.502424398825E-02 -0.969940566819E-03 -0.569378286834E-02
 -0.511280054619E-02 -0.667006122662E-03 -0.107842720855E-02 -0.482625861680E-02
  0.279227313072E-04  0.476659660732E-03  0.500694679349E-04  0.726495314354E-03 -0.579981989309E-06  0.119048362971E-02  0.609773175634E-04
  0.663302279857E-04  0.118944662940E-02 -0.112552811847E-03  0.560407543421E-04 -0.203332491244E-03  0.320539146939E-04 -0.151041592081E-03
 -0.259410987447E-03 -0.276875977965E-03  0.524024032463E-04  0.135353082408E-02 -0.146668518959E-03 -0.100455308907E-02 -0.352092696586E-03
 -0.233905330860E-03 -0.402901841116E-04 -0.141632418916E-03 -0.106457598445E-02  0.636498638672E-03 -0.190150165684E-03 -0.119620514477E-02
 -0.106947305721E-02 -0.153294873150E-03 -0.227932752447E-03 -0.100441709874E-02
  0.285308484991E-04  0.128828078700E-04  0.389436336452E-04  0.138591178966E-03  0.298653510006E-04  0.865717432930E-04  0.423597145397E-04
 -0.410052447671E-04  0.791515098948E-04 -0.146205032356E-05  0.523554948168E-04  0.433146577512E-04  0.610483104191E-04  0.176226359939E-04
  0.590267062549E-05 -0.715226241381E-06 -0.574876089463E-04 -0.770849572024E-04  0.362028803366E-04  0.128143580729E-07  0.141305160226E-04
  0.133897297689E-04  0.299857980964E-04  0.858947993638E-05  0.233791931967E-04 -0.260784694897E-04 -0.138488807661E-05  0.111476607237E-04
 -0.258665076234E-05 -0.298317126725E-05 -0.235545952321E-05  0.477353127644E-06
 -0.164929162320E-03 -0.130152009610E-03 -0.195225390861E-03  0.319892180799E-05  0.172356037010E-03  0.184043614547E-03 -0.113068707978E-03
 -0.148107924248E-03  0.420123955289E-04  0.189981938449E-03  0.378560669666E-03  0.223252606334E-03  0.480640791017E-03  0.189682264922E-03
  0.145177106258E-03  0.163172737380E-03 -0.129038384159E-03  0.205623104822E-03  0.279801353136E-03  0.650353584089E-04  0.145043674892E-03
  0.182944933037E-03  0.425524158385E-03  0.244653989427E-03  0.636330136845E-04  0.241033699437E-03  0.176492690075E-03  0.611387529413E-04
  0.754799511607E-04  0.297936071133E-03  0.182574762375E-03  0.743906980687E-04
 -0.466987024545E-03 -0.141025285133E-02 -0.759310705701E-03 -0.230735160923E-02 -0.150069932634E-03 -0.329765538018E-02 -0.376878399497E-04
  0.147528379546E-03 -0.334790606050E-02  0.976942131825E-04 -0.274274381064E-03  0.373629177253E-03 -0.348785553755E-03  0.201705035962E-03
  0.527490852050E-03  0.511382002178E-03 -0.191730549498E-03 -0.356747922926E-02  0.274266213027E-03  0.202687779754E-02  0.714242793432E-03
  0.482256195512E-03 -0.122531390657E-03  0.279377322460E-03  0.211351719793E-02 -0.203276551302E-02  0.378836348174E-03  0.237507639670E-02
  0.212766137573E-02  0.247565942599E-03  0.429715983606E-03  0.200325815958E-02
 -0.287477902538E-09 -0.373603719901E-09 -0.373725564847E-09 -0.990801047250E-09 -0.299867562443E-09 -0.806137164605E-09  0.175978673654E-09
  0.802294657405E-10  0.608600363965E-08 -0.246001674702E-09 -0.126489458676E-08 -0.529268433423E-09 -0.113597335228E-08 -0.347194789685E-09
 -0.117821057782E-09 -0.213778932885E-09 -0.483446961416E-10  0.213252862598E-08 -0.665385567411E-09 -0.295412559149E-10 -0.617225243410E-10
 -0.127208206426E-09 -0.568298449141E-09 -0.664979716234E-09  0.116202413356E-10 -0.944614254671E-09 -0.176808495132E-09  0.348049335860E-10
 -0.788462408095E-11 -0.520754637215E-09 -0.259959342613E-09 -0.551416638974E-10
        12        19        11        11
        11         5        12        12
        10        14         5         5
        19        13        11        11
        19        24        13        13
        30        23        24        24
        19        12        22        22
        28        22        21        21
        11        13         6         6
         7         6         9         9
        15        12        14        14
        18        13        23        23
        15        25        21        21
        27        19        22        22
        18         8         9         9
        27        31        24        24
         4        11         6         6
         5        14        12        12
         4         2         5         5
        21        12        15        15
        14        16        15        15
        24        19        27        27
        22        29        27        27
        23        26        18        18
        17         8        18        18
         5        11         4         4
         6         3         4         4
        26        23        30        30
         5         2        10        10
        16        14        10        10
         3         6         7         7
        21        25        28        28
        29        22        28        28
         6        13         9         9
         2         4         1         1
        31        27        32        32
        25        15        20        20
        24        23        13        13
         8         7         9         9
        13        18         9         9
        31        30        24        24
        12        21        22        22
        29        32        27        27
         3         1         4         4
        26        17        18        18
        16        20        15        15
zone t="boundary 2 bc-2", solutiontime= 0.4000000E+02, strandid=1002, i=33, j=48, f=feblock
  0.500000000000E+01  0.375000000000E+01  0.250000000000E+01  0.288078410721E+01  0.125000000000E+01  0.190974100652E+01  0.326683758169E+01
  0.201431602454E+01  0.000000000000E+00  0.963108083381E+00  0.500000000000E+01  0.403552511878E+01  0.423153924130E+01  0.500000000000E+01
  0.385533350601E+01  0.500000000000E+01  0.398173246726E+01  0.315249557942E+01  0.267000324704E+01  0.154774304040E+01  0.218329375016E+01
  0.893127759452E+00  0.000000000000E+00  0.698517061619E+00  0.964171764089E+00  0.310324758057E+01  0.000000000000E+00  0.000000000000E+00
  0.125000000000E+01  0.500000000000E+01  0.375000000000E+01  0.250000000000E+01  0.000000000000E+00
 -0.250000000000E+01 -0.250000000000E+01 -0.250000000000E+01 -0.250000000000E+01 -0.250000000000E+01 -0.250000000000E+01 -0.250000000000E+01
 -0.250000000000E+01 -0.250000000000E+01 -0.250000000000E+01 -0.250000000000E+01 -0.250000000000E+01 -0.250000000000E+01 -0.250000000000E+01
 -0.250000000000E+01 -0.250000000000E+01 -0.250000000000E+01 -0.250000000000E+01 -0.250000000000E+01 -0.250000000000E+01 -0.250000000000E+01
 -0.250000000000E+01 -0.250000000000E+01 -0.250000000000E+01 -0.250000000000E+01 -0.250000000000E+01 -0.250000000000E+01 -0.250000000000E+01
 -0.250000000000E+01 -0.250000000000E+01 -0.250000000000E+01 -0.250000000000E+01 -0.250000000000E+01
  0.000000000000E+00  0.000000000000E+00  0.000000000000E+00  0.904659890645E+00  0.000000000000E+00  0.717002441913E+00  0.188609243358E+01
  0.176246431481E+01  0.000000000000E+00  0.961328577125E+00  0.125000000000E+01  0.101201586758E+01  0.191586535653E+01  0.250000000000E+01
  0.293121848150E+01  0.375000000000E+01  0.406975391361E+01  0.363585050272E+01  0.285047954584E+01  0.292817774674E+01  0.395907379566E+01
  0.205246550326E+01  0.125000000000E+01  0.306828197606E+01  0.397245519226E+01  0.433168271247E+01  0.250000000000E+01  0.375000000000E+01
  0.500000000000E+01  0.500000000000E+01  0.500000000000E+01  0.500000000000E+01  0.500000000000E+01
  0.000000000000E+00  0.000000000000E+00  0.000000000000E+00  0.380991677071E+00  0.000000000000E+00  0.343629846333E+00  0.585283712637E+00
  0.579371274939E+00  0.000000000000E+00  0.501053781697E+00  0.508459764195E+00  0.435372705232E+00  0.572637650783E+00  0.537001621764E+00
  0.568921604272E+00  0.514994863512E+00  0.508249384174E+00  0.527254272376E+00  0.567446148296E+00  0.531657889979E+00  0.505982349932E+00
  0.520795557933E+00  0.443623519427E+00  0.490664279058E+00  0.492156105736E+00  0.501392667577E+00  0.467732961393E+00  0.488211579388E+00
  0.490002415326E+00  0.491354393416E+00  0.486078174930E+00  0.490037677861E+00  0.495097551278E+00
  0.999993511960E+00  0.999993715260E+00  0.999993570321E+00  0.989539101465E+00  0.999993167142E+00  0.985524838689E+00  0.989838839696E+00
  0.991798259717E+00  0.999992753610E+00  0.984411184056E+00  0.985091609572E+00  0.984689131748E+00  0.990058406085E+00  0.100289567776E+01
  0.999855182158E+00  0.100485299288E+01  0.100121572260E+01  0.100055639449E+01  0.997896752171E+00  0.100350023825E+01  0.100058089063E+01
  0.101093252220E+01  0.104043187424E+01  0.100326541074E+01  0.100254508116E+01  0.100045601675E+01  0.100976788455E+01  0.100405369623E+01
  0.100192661355E+01  0.100045469615E+01  0.100058772260E+01  0.100109988203E+01  0.100176128351E+01
 -0.350896839592E-03 -0.303322302769E-03 -0.325548339917E-03  0.259355357621E-02  0.439704449455E-03  0.141392149053E-01 -0.749166682856E-03
 -0.166636267747E-03  0.721716714517E-03  0.721748770519E-02 -0.102587172453E-02 -0.939528109586E-03 -0.809041891747E-03 -0.671336255347E-03
 -0.496990818753E-03 -0.446979741448E-03 -0.330118390292E-03 -0.388653775203E-03 -0.595275119111E-03 -0.780057098493E-03 -0.501577112523E-03
  0.227125557406E-03  0.502424398825E-02 -0.544184166128E-03 -0.918326651299E-03 -0.601616066645E-03 -0.667006122662E-03 -0.107842720855E-02
 -0.434746583496E-02 -0.521788278611E-03 -0.198696318649E-02 -0.381264368382E-02 -0.482625861680E-02
  0.864339021515E-04 -0.108222620055E-04  0.109991310033E-04  0.597668333501E-03 -0.102446257372E-03  0.190274803868E-02  0.293040184367E-04
 -0.800078328973E-04  0.524024032463E-04  0.942521295142E-03  0.224952741126E-03  0.358325325641E-04  0.105245516085E-03  0.172269184113E-03
  0.110651349065E-03  0.105185533135E-03  0.125327853998E-03  0.103154617458E-03  0.531618465366E-04 -0.613899055820E-04  0.443997885525E-04
 -0.631986132430E-04  0.636498638672E-03 -0.323313019124E-04 -0.103867820222E-03  0.612032897361E-04 -0.153294873150E-03 -0.227932752447E-03
 -0.782683591638E-03  0.258242568605E-04 -0.199538193846E-03 -0.593863957956E-03 -0.100441709874E-02
 -0.237481236998E-04  0.977437629770E-05  0.379491415158E-04  0.942358247771E-04  0.172499342080E-04  0.193274412698E-03 -0.393422259507E-05
  0.615337025888E-05 -0.574876089463E-04  0.985627432950E-04 -0.187691656067E-04 -0.361815757970E-04 -0.461423871581E-06  0.138576065935E-05
  0.416106676440E-06 -0.210885993261E-05  0.258667561359E-06 -0.193266870294E-05  0.911411534381E-06  0.487905400264E-05 -0.276470777661E-05
  0.962965292480E-05 -0.260784694897E-04  0.770173931364E-07 -0.926483747553E-06 -0.983517506370E-06 -0.298317126725E-05 -0.235545952321E-05
 -0.429024222916E-06 -0.485323797775E-06 -0.623261785232E-07  0.383516930783E-06  0.477353127644E-06
 -0.375879808030E-04 -0.190862583713E-04 -0.457288240787E-04  0.195303422949E-03 -0.136286386682E-03  0.107835014087E-03  0.223084573700E-03
  0.357513643612E-03 -0.129038384159E-03  0.236376674190E-03  0.464838407295E-04  0.131895765319E-03  0.974241322667E-04  0.454770629092E-04
  0.998060417424E-04  0.361871556242E-04  0.950702503526E-04  0.138177264818E-03  0.167536954366E-03  0.175447405073E-03  0.159778235167E-03
  0.317847614480E-03  0.241033699437E-03  0.193241363664E-03  0.162313146347E-03  0.136043779966E-03  0.297936071133E-03  0.182574762375E-03
  0.104846197212E-03  0.555149370247E-04  0.120263051713E-03  0.130423525833E-03  0.743906980687E-04
  0.120222738039E-03  0.199831537998E-03  0.542340569222E-03 -0.125572732213E-02  0.106185524831E-02 -0.611372306296E-02  0.207418171693E-03
  0.473270413361E-04 -0.191730549498E-03 -0.302020431955E-02  0.223883626653E-03  0.261872162062E-03  0.205066088764E-03  0.128352373863E-03
  0.990818002078E-04  0.901642610914E-04  0.457094837211E-04  0.723731068804E-04  0.155116776508E-03  0.264709800459E-03  0.134770057890E-03
 -0.970011670710E-04 -0.203276551302E-02  0.175581294562E-03  0.334464633179E-03  0.164648146540E-03  0.247565942599E-03  0.429715983606E-03
  0.176659547865E-02  0.157848421655E-03  0.745681266030E-03  0.151636994411E-02  0.200325815958E-02
 -0.341892539166E-12 -0.359168932123E-11 -0.437184772889E-11 -0.231752863333E-09 -0.181244710330E-10 -0.573956345119E-09 -0.123667578206E-09
 -0.127973039387E-08 -0.483446961416E-10 -0.113978834871E-08 -0.422333757516E-10 -0.110728473039E-09  0.642244264444E-10  0.416403209011E-10
  0.493995656628E-11 -0.166515590206E-10 -0.267001885806E-10 -0.490033403853E-10 -0.887661427772E-10 -0.273501559440E-09 -0.917344275221E-10
 -0.110909648045E-08 -0.944614254671E-09 -0.403974820614E-09 -0.117459493110E-09 -0.535473642805E-10 -0.520754637215E-09 -0.259959342613E-09
 -0.123746525847E-09 -0.149329956130E-11 -0.286841994745E-10 -0.100378961675E-09 -0.551416638974E-10
        15         7        19        19
         8        20        19        19
        18        19        21        21
         7         4         8         8
         3         6         4         4
        19         7         8         8
        19        18        15        15
        14        13        15        15
         8        22        20        20
        27        24        22        22
        19        20        21        21
        32        26        21        21
        17        18        26        26
        17        16        15        15
        25        29        21        21
        12         7        13        13
        10         8         6         6
        25        20        24        24
         4         6         8         8
        12         2         4         4
        10        23        22        22
        26        31        17        17
        30        16        17        17
         4         7        12        12
        13        11        12        12
        21        20        25        25
        24        28        25        25
        22         8        10        10
         6         5        10        10
        31        26        32        32
         4         2         3         3
         5         6         3         3
        11        13        14        14
        22        23        27        27
        28        24        27        27
        15        13         7         7
         2        12         1         1
        29        25        33        33
        23        10         9         9
        21        26        18        18
        16        14        15        15
        18        17        15        15
        29        32        21        21
        22        24        20        20
        28        33        25        25
        11         1        12        12
        31        30        17        17
         5         9        10        10
zone t="boundary 3 bc-3", solutiontime= 0.4000000E+02, strandid=1003, i=33, j=48, f=feblock
  0.375000000000E+01  0.250000000000E+01  0.500000000000E+01  0.403552511878E+01  0.288078410721E+01  0.125000000000E+01  0.190974100652E+01
  0.500000000000E+01  0.326683758169E+01  0.423153924130E+01  0.201431602454E+01  0.000000000000E+00  0.963108083381E+00  0.500000000000E+01
  0.267000324704E+01  0.385533350601E+01  0.893127759452E+00  0.154774304040E+01  0.000000000000E+00  0.500000000000E+01  0.315249557942E+01
  0.218329375016E+01  0.398173246726E+01  0.000000000000E+00  0.698517061619E+00  0.964171764089E+00  0.125000000000E+01  0.000000000000E+00
  0.500000000000E+01  0.310324758057E+01  0.250000000000E+01  0.375000000000E+01  0.000000000000E+00
  0.250000000000E+01  0.250000000000E+01  0.250000000000E+01  0.250000000000E+01  0.250000000000E+01  0.250000000000E+01  0.250000000000E+01
  0.250000000000E+01  0.250000000000E+01  0.250000000000E+01  0.250000000000E+01  0.250000000000E+01  0.250000000000E+01  0.250000000000E+01
  0.250000000000E+01  0.250000000000E+01  0.250000000000E+01  0.250000000000E+01  0.250000000000E+01  0.250000000000E+01  0.250000000000E+01
  0.250000000000E+01  0.250000000000E+01  0.250000000000E+01  0.250000000000E+01  0.250000000000E+01  0.250000000000E+01  0.250000000000E+01
  0.250000000000E+01  0.250000000000E+01  0.250000000000E+01  0.250000000000E+01  0.250000000000E+01
  0.000000000000E+00  0.000000000000E+00  0.000000000000E+00  0.101201586758E+01  0.904659890645E+00  0.000000000000E+00  0.717002441913E+00
  0.125000000000E+01  0.188609243358E+01  0.191586535653E+01  0.176246431481E+01  0.000000000000E+00  0.961328577125E+00  0.250000000000E+01
  0.285047954584E+01  0.293121848150E+01  0.205246550326E+01  0.292817774674E+01  0.125000000000E+01  0.375000000000E+01  0.363585050272E+01
  0.395907379566E+01  0.406975391361E+01  0.250000000000E+01  0.306828197606E+01  0.397245519226E+01  0.500000000000E+01  0.375000000000E+01
  0.500000000000E+01  0.433168271247E+01  0.500000000000E+01  0.500000000000E+01  0.500000000000E+01
  0.000000000000E+00  0.000000000000E+00  0.000000000000E+00  0.443768049813E+00  0.402287063289E+00  0.000000000000E+00  0.377550015530E+00
  0.509231651017E+00  0.575830373842E+00  0.573705119893E+00  0.562552484917E+00  0.000000000000E+00  0.490560996922E+00  0.534526640478E+00
  0.556587161529E+00  0.564391003890E+00  0.522730520214E+00  0.522053035057E+00  0.441238864710E+00  0.517182885172E+00  0.524230081365E+00
  0.503688666615E+00  0.509490322369E+00  0.469815278546E+00  0.495614921017E+00  0.494483812152E+00  0.488562139423E+00  0.488960767301E+00
  0.492982637025E+00  0.499007441401E+00  0.486462299176E+00  0.484599832491E+00  0.495345969094E+00
  0.999989380190E+00  0.999989451040E+00  0.999989665041E+00  0.981541820811E+00  0.988773959065E+00  0.999989868921E+00  0.982469495615E+00
  0.984104107106E+00  0.990427340160E+00  0.990355127069E+00  0.994362617112E+00  0.999990335442E+00  0.988651707786E+00  0.100368299998E+01
  0.999769041194E+00  0.100118460274E+01  0.100834871539E+01  0.100252122579E+01  0.102982730935E+01  0.100443305346E+01  0.100199527495E+01
  0.100082072308E+01  0.100138208455E+01  0.100826302705E+01  0.100298818591E+01  0.100192398684E+01  0.100215265586E+01  0.100355656280E+01
  0.100047708080E+01  0.100056610141E+01  0.100126814609E+01  0.100066576236E+01  0.100179353455E+01
 -0.224285748737E-03  0.188908799475E-03 -0.382210956030E-03  0.159226706014E-02  0.761054599567E-02  0.423924881428E-03  0.694015382303E-02
 -0.129340347320E-02 -0.754898823657E-03 -0.836770700629E-03  0.117408214546E-02  0.589608696049E-03  0.457449207564E-02 -0.654980009697E-03
 -0.737525489426E-03 -0.535495117908E-03  0.884251639717E-04 -0.721006363953E-03  0.340831094397E-02 -0.450626030919E-03 -0.327425355957E-03
 -0.442682315343E-03 -0.344858687829E-03 -0.254368381480E-03 -0.587811445189E-03 -0.118491317306E-02 -0.367689280169E-02 -0.127156438387E-02
 -0.429836220648E-03 -0.527439444259E-03 -0.344122414417E-02 -0.186771409234E-02 -0.488128292878E-02
 -0.564646768369E-04 -0.638691929987E-04  0.925709433067E-04  0.472324816902E-03  0.981886471741E-03 -0.704493403982E-04  0.715128202808E-03
  0.223798655187E-03 -0.268561607095E-04  0.116372491375E-03 -0.358904546464E-04  0.279227313072E-04  0.319291853517E-03  0.171076774409E-03
 -0.103763975589E-04  0.890183178643E-04 -0.160737600219E-03 -0.817354013106E-04  0.476659660732E-03  0.110415711907E-03  0.955763455880E-04
  0.495439159614E-04  0.111781361287E-03 -0.112552811847E-03 -0.134123122921E-03 -0.153616181193E-03 -0.652435760265E-03 -0.276875977965E-03
  0.391470659292E-04  0.608649770522E-04 -0.532075176275E-03 -0.185604282505E-03 -0.100455308907E-02
 -0.109320733438E-04  0.804431467600E-06  0.156102151260E-04 -0.206702604842E-04 -0.967894526714E-04  0.239970272310E-04  0.413590891001E-05
  0.153217815935E-05 -0.122862303772E-04  0.319892078690E-05 -0.100639691291E-04  0.285308484991E-04  0.363033754505E-04  0.507255959259E-05
 -0.258504266811E-06  0.122640142814E-05 -0.152711787802E-04 -0.782329804432E-05  0.128828078700E-04  0.268314913805E-05  0.554865046954E-06
  0.631577715198E-05  0.277429295725E-06 -0.146205032356E-05 -0.396818625611E-05  0.221973058959E-05  0.183619019960E-05 -0.715226241381E-06
  0.863183443334E-06  0.501149525566E-07  0.517266374868E-06 -0.189446006608E-06  0.128143580729E-07
 -0.562101488711E-04 -0.107410102239E-03 -0.330313729071E-04  0.840862144740E-04  0.125228455795E-03 -0.919823030863E-04  0.447200261315E-05
  0.437125532513E-04  0.244008488907E-03  0.121291436926E-03  0.336323782429E-03 -0.164929162320E-03  0.719184796465E-04  0.512952551533E-04
  0.129680621685E-03  0.112135646946E-03  0.259070769705E-03  0.133033694749E-03 -0.130152009610E-03  0.466794503198E-04  0.129350923965E-03
  0.133219528894E-03  0.100164978174E-03  0.189981938449E-03  0.183469969950E-03  0.133787601499E-03  0.103243125147E-03  0.163172737380E-03
  0.505375255132E-04  0.129245137647E-03  0.126130395351E-03  0.115347753361E-03  0.650353584089E-04
  0.931647079023E-03  0.284833756147E-03  0.167836474962E-03 -0.863136018926E-03 -0.328931565362E-02 -0.369604003463E-05 -0.286817515400E-02
  0.321852355308E-03  0.240537465510E-03  0.214036636658E-03 -0.451292954223E-03 -0.466987024545E-03 -0.180328815559E-02  0.123494505497E-03
  0.232271016052E-03  0.121292310661E-03 -0.235906410387E-04  0.251497979386E-03 -0.141025285133E-02  0.884335350523E-04  0.537918527432E-04
  0.113783693907E-03  0.563751811015E-04  0.976942131825E-04  0.213656846926E-03  0.446731443150E-03  0.148649135862E-02  0.511382002178E-03
  0.121793497044E-03  0.139754742710E-03  0.136509535816E-02  0.699152824433E-03  0.202687779754E-02
 -0.356168895312E-11 -0.111758132246E-10 -0.120650651721E-11 -0.116870906673E-09 -0.186001324618E-09 -0.721069387710E-10 -0.137249674901E-08
 -0.219743963644E-10 -0.336937100787E-09  0.112148412274E-09 -0.116131786196E-08 -0.287477902538E-09 -0.150297591838E-08  0.299608787367E-10
 -0.732317437586E-10  0.220495986401E-10 -0.620897254236E-09 -0.247101491596E-09 -0.373603719901E-09 -0.156442014871E-10 -0.761048959363E-11
 -0.396601099217E-10 -0.170173962179E-10 -0.246001674702E-09 -0.328931834970E-09 -0.808347280029E-10 -0.480782958077E-10 -0.213778932885E-09
 -0.388950778145E-11 -0.193302678783E-10 -0.331378304096E-10 -0.557191444917E-11 -0.295412559149E-10
        15         9        16        16
        15        18        11        11
        22        15        21        21
        11         5         9         9
         5         7         2         2
        11         9        15        15
        16        21        15        15
        16        10        14        14
        18        17        11        11
        17        25        24        24
        22        18        15        15
        22        30        31        31
        30        21        23        23
        16        20        23        23
        22        27        26        26
        10         9         4         4
         7        11        13        13
        25        18        26        26
        11         7         5         5
         5         1         4         4
        17        19        13        13
        23        32        30        30
        23        20        29        29
         4         9         5         5
         4         8        10        10
        26        18        22        22
        26        28        25        25
        13        11        17        17
        13         6         7         7
        31        30        32        32
         2         1         5         5
         2         7         6         6
        14        10         8         8
        24        19        17        17
        24        25        28        28
         9        10        16        16
         3         4         1         1
        33        26        27        27
        12        13        19        19
        21        30        22        22
        16        14        20        20
        16        23        21        21
        22        31        27        27
        18        25        17        17
        26        33        28        28
         4         3         8         8
        23        29        32        32
        13        12         6         6
zone t="boundary 4 bc-4", solutiontime= 0.4000000E+02, strandid=1004, i=32, j=46, f=feblock
  0.125000000000E+01  0.219251206392E+01  0.103724302461E+01  0.500000000000E+01  0.250000000000E+01  0.375000000000E+01  0.404200324774E+01
  0.500000000000E+01  0.000000000000E+00  0.310152362409E+01  0.202479342020E+01  0.324151231464E+01  0.922061490191E+00  0.000000000000E+00
  0.299062775774E+01  0.394624082883E+01  0.500000000000E+01  0.409252726285E+01  0.500000000000E+01  0.429310310915E+01  0.175434191980E+01
  0.284428995242E+01  0.000000000000E+00  0.000000000000E+00  0.715990576545E+00  0.930412228790E+00  0.125000000000E+01  0.187029682677E+01
  0.500000000000E+01  0.375000000000E+01  0.250000000000E+01  0.000000000000E+00
  0.250000000000E+01  0.157686156160E+01  0.146289271009E+01  0.250000000000E+01  0.250000000000E+01  0.250000000000E+01  0.155830813274E+01
  0.125000000000E+01  0.250000000000E+01  0.177790177481E+01  0.477386199275E+00  0.742988685424E+00  0.308372018325E+00  0.125000000000E+01
 -0.487811078581E+00 -0.144524380962E+01 -0.125000000000E+01 -0.345533899378E+00  0.000000000000E+00  0.627766083140E+00 -0.739814786992E+00
 -0.158811787973E+01  0.000000000000E+00 -0.125000000000E+01 -0.600232012419E+00 -0.154800130438E+01 -0.250000000000E+01 -0.178862290564E+01
 -0.250000000000E+01 -0.250000000000E+01 -0.250000000000E+01 -0.250000000000E+01
  0.500000000000E+01  0.500000000000E+01  0.500000000000E+01  0.500000000000E+01  0.500000000000E+01  0.500000000000E+01  0.500000000000E+01
  0.500000000000E+01  0.500000000000E+01  0.500000000000E+01  0.500000000000E+01  0.500000000000E+01  0.500000000000E+01  0.500000000000E+01
  0.500000000000E+01  0.500000000000E+01  0.500000000000E+01  0.500000000000E+01  0.500000000000E+01  0.500000000000E+01  0.500000000000E+01
  0.500000000000E+01  0.500000000000E+01  0.500000000000E+01  0.500000000000E+01  0.500000000000E+01  0.500000000000E+01  0.500000000000E+01
  0.500000000000E+01  0.500000000000E+01  0.500000000000E+01  0.500000000000E+01