title="tecplot geometry and solution file"
variables = x y z mach temperature lambda1 lambda2 lambda3 lambda4 lambda5 lambda6
zone t="boundary 1 bc-1", solutiontime= 0.3000000E+02, strandid=1001, i=32, j=46, f=feblock
  0.000000000000E+00  0.000000000000E+00  0.000000000000E+00  0.000000000000E+00  0.000000000000E+00  0.000000000000E+00  0.000000000000E+00
  0.000000000000E+00  0.000000000000E+00  0.000000000000E+00  0.000000000000E+00  0.000000000000E+00  0.000000000000E+00  0.000000000000E+00
  0.000000000000E+00  0.000000000000E+00  0.000000000000E+00  0.000000000000E+00  0.000000000000E+00  0.000000000000E+00  0.000000000000E+00
  0.000000000000E+00  0.000000000000E+00  0.000000000000E+00  0.000000000000E+00  0.000000000000E+00  0.000000000000E+00  0.000000000000E+00
  0.000000000000E+00  0.000000000000E+00  0.000000000000E+00  0.000000000000E+00
  0.250000000000E+01  0.250000000000E+01  0.125000000000E+01  0.146289271009E+01  0.157686156160E+01  0.308372018325E+00  0.000000000000E+00
 -0.125000000000E+01 -0.600232012419E+00  0.250000000000E+01  0.477386199275E+00  0.742988685424E+00 -0.739814786992E+00  0.177790177481E+01
  0.155830813274E+01  0.250000000000E+01 -0.250000000000E+01 -0.154800130438E+01 -0.487811078581E+00  0.250000000000E+01  0.627766083140E+00
 -0.345533899378E+00 -0.178862290564E+01 -0.158811787973E+01  0.125000000000E+01 -0.250000000000E+01 -0.144524380962E+01  0.000000000000E+00
 -0.125000000000E+01 -0.250000000000E+01 -0.250000000000E+01 -0.250000000000E+01
  0.000000000000E+00  0.125000000000E+01  0.000000000000E+00  0.103724302461E+01  0.219251206392E+01  0.922061490191E+00  0.000000000000E+00
  0.000000000000E+00  0.715990576545E+00  0.250000000000E+01  0.202479342020E+01  0.324151231464E+01  0.175434191980E+01  0.310152362409E+01
  0.404200324774E+01  0.375000000000E+01  0.000000000000E+00  0.930412228790E+00  0.299062775774E+01  0.500000000000E+01  0.429310310915E+01
  0.409252726285E+01  0.187029682677E+01  0.284428995242E+01  0.500000000000E+01  0.125000000000E+01  0.394624082883E+01  0.500000000000E+01
  0.500000000000E+01  0.250000000000E+01  0.375000000000E+01  0.500000000000E+01
  0.000000000000E+00  0.441238864710E+00  0.000000000000E+00  0.475212333418E+00  0.460125600047E+00  0.468825459916E+00  0.000000000000E+00
  0.000000000000E+00  0.402299647307E+00  0.469815278546E+00  0.464413480260E+00  0.478714152972E+00  0.489298547802E+00  0.483067971662E+00
  0.487929224832E+00  0.488960767301E+00  0.000000000000E+00  0.464773408827E+00  0.473796242669E+00  0.495345969094E+00  0.490265403772E+00
  0.486285557293E+00  0.445720648663E+00  0.464383522981E+00  0.496127006189E+00  0.443623519427E+00  0.486963956588E+00  0.497245800655E+00
  0.496058644718E+00  0.467732961393E+00  0.488211579388E+00  0.495097551278E+00
  0.999990335442E+00  0.102982730935E+01  0.999990797222E+00  0.104247144519E+01  0.101190167613E+01  0.102520600953E+01  0.999991453848E+00
  0.999992202332E+00  0.103891124272E+01  0.100826302705E+01  0.101252909219E+01  0.100300571845E+01  0.102702848665E+01  0.100605562865E+01
  0.100244399774E+01  0.100355656280E+01  0.999992753610E+00  0.103239691667E+01  0.100459561267E+01  0.100179353455E+01  0.100260307775E+01
  0.100234974224E+01  0.101657231252E+01  0.100617628259E+01  0.100168864675E+01  0.104043187424E+01  0.100303393289E+01  0.100118748788E+01
  0.100134189338E+01  0.100976788455E+01  0.100405369623E+01  0.100176128351E+01
  0.589601751599E-03  0.340811856083E-02  0.791847419582E-03  0.574384761730E-02  0.346378514323E-03  0.798217592252E-02  0.658789435906E-03
  0.398071646407E-03  0.815374900265E-02 -0.254296477997E-03  0.623642066292E-03 -0.956850234905E-03  0.831737417855E-03 -0.516832252447E-03
 -0.132148420466E-02 -0.127130955194E-02  0.721712510096E-03  0.854849707972E-02 -0.743359477541E-03 -0.488136236826E-02 -0.176768941221E-02
 -0.121695967982E-02  0.253980241571E-03 -0.770126548052E-03 -0.508139454038E-02  0.502453850366E-02 -0.969919979992E-03 -0.569392890865E-02
 -0.511313203836E-02 -0.666962015611E-03 -0.107839916669E-02 -0.482625931930E-02
  0.279230325025E-04  0.476619561881E-03  0.500686816885E-04  0.726475602215E-03 -0.586502420802E-06  0.119053232009E-02  0.609788392777E-04
  0.663292708024E-04  0.118944499979E-02 -0.112542229635E-03  0.560244051007E-04 -0.203290446205E-03  0.320022327362E-04 -0.151029855330E-03
 -0.259485862782E-03 -0.276836915455E-03  0.524024756281E-04  0.135349490004E-02 -0.146636199843E-03 -0.100450584637E-02 -0.352174571464E-03
 -0.233853900163E-03 -0.402788948183E-04 -0.141644480286E-03 -0.106452274446E-02  0.636554789489E-03 -0.190170805033E-03 -0.119616932445E-02
 -0.106951346767E-02 -0.153285673533E-03 -0.227937014916E-03 -0.100438823561E-02
  0.285272223694E-04  0.128820384574E-04  0.389392500748E-04  0.138570395772E-03  0.298637434317E-04  0.865670569806E-04  0.423638469969E-04
 -0.410023511996E-04  0.791495099903E-04 -0.146283808370E-05  0.523509285289E-04  0.433292575039E-04  0.610504536783E-04  0.176233172625E-04
  0.589814701553E-05 -0.716483558771E-06 -0.574872831305E-04 -0.770736661714E-04  0.362078987658E-04  0.117095262399E-07  0.141436859832E-04
  0.134037858694E-04  0.299905873620E-04  0.859372857724E-05  0.233692761278E-04 -0.260777825675E-04 -0.137606022739E-05  0.111127344723E-04
 -0.261032628721E-05 -0.298351597191E-05 -0.235554284373E-05  0.477345337472E-06
 -0.164928462396E-03 -0.130166057938E-03 -0.195233258683E-03  0.317571908097E-05  0.172337215891E-03  0.184040803374E-03 -0.113073314791E-03
 -0.148106141941E-03  0.420111073954E-04  0.189974068049E-03  0.378571814231E-03  0.223250448962E-03  0.480649462369E-03  0.189680135304E-03
  0.145187428752E-03  0.163200943493E-03 -0.129037662933E-03  0.205619636625E-03  0.279804281629E-03  0.650216917842E-04  0.145056943221E-03
  0.182963823217E-03  0.425519638151E-03  0.244652536105E-03  0.636201321237E-04  0.241036645078E-03  0.176487909378E-03  0.611261486215E-04
  0.754762563678E-04  0.297930961962E-03  0.182577469102E-03  0.743852353302E-04
 -0.466979405941E-03 -0.141017166629E-02 -0.759346610095E-03 -0.230732356534E-02 -0.150056525613E-03 -0.329777201792E-02 -0.377023090553E-04
  0.147533407522E-03 -0.334791969566E-02  0.976655726402E-04 -0.274219494058E-03  0.373541718207E-03 -0.348677544621E-03  0.201666236775E-03
  0.527562370482E-03  0.511275241931E-03 -0.191728157607E-03 -0.356739287459E-02  0.274210018980E-03  0.202690344244E-02  0.714335933522E-03
  0.482104748916E-03 -0.122558073188E-03  0.279389183735E-03  0.211350091381E-02 -0.203288651744E-02  0.378832122183E-03  0.237513041665E-02
  0.212779849005E-02  0.247547819448E-03  0.429705321513E-03  0.200325591572E-02
 -0.287488603626E-09 -0.373695741581E-09 -0.373781721737E-09 -0.991124920833E-09 -0.299966705965E-09 -0.806730114259E-09  0.175918614015E-09
  0.802123811257E-10  0.608570649256E-08 -0.246045735406E-09 -0.126513479988E-08 -0.529359502730E-09 -0.113616234602E-08 -0.347242093501E-09
 -0.117840029211E-09 -0.213794428323E-09 -0.483483481734E-10  0.213238954533E-08 -0.665493910970E-09 -0.295492924353E-10 -0.617559664019E-10
 -0.127237375552E-09 -0.568296767086E-09 -0.665045172840E-09  0.115894285467E-10 -0.944402425155E-09 -0.176826915721E-09  0.347798162025E-10
 -0.787976141153E-11 -0.520745917803E-09 -0.259974607033E-09 -0.551323899038E-10
        12        19        11        11
        11         5        12        12
        10        14         5         5
        19        13        11        11
        19        24        13        13
        30        23        24        24
        19        12        22        22
        28        22        21        21
        11        13         6         6
         7         6         9         9
        15        12        14        14
        18        13        23        23
        15        25        21        21
        27        19        22        22
        18         8         9         9
        27        31        24        24
         4        11         6         6
         5        14        12        12
         4         2         5         5
        21        12        15        15
        14        16        15        15
        24        19        27        27
        22        29        27        27
        23        26        18        18
        17         8        18        18
         5        11         4         4
         6         3         4         4
        26        23        30        30
         5         2        10        10
        16        14        10        10
         3         6         7         7
        21        25        28        28
        29        22        28        28
         6        13         9         9
         2         4         1         1
        31        27        32        32
        25        15        20        20
        24        23        13        13
         8         7         9         9
        13        18         9         9
        31        30        24        24
        12        21        22        22
        29        32        27        27
         3         1         4         4
        26        17        18        18
        16        20        15        15
zone t="boundary 2 bc-2", solutiontime= 0.3000000E+02, strandid=1002, i=33, j=48, f=feblock
  0.500000000000E+01  0.375000000000E+01  0.250000000000E+01  0.288078410721E+01  0.125000000000E+01  0.190974100652E+01  0.326683758169E+01
  0.201431602454E+01  0.000000000000E+00  0.963108083381E+00  0.500000000000E+01  0.403552511878E+01  0.423153924130E+01  0.500000000000E+01
  0.385533350601E+01  0.500000000000E+01  0.398173246726E+01  0.315249557942E+01  0.267000324704E+01  0.154774304040E+01  0.218329375016E+01
  0.893127759452E+00  0.000000000000E+00  0.698517061619E+00  0.964171764089E+00  0.310324758057E+01  0.000000000000E+00  0.000000000000E+00
  0.125000000000E+01  0.500000000000E+01  0.375000000000E+01  0.250000000000E+01  0.000000000000E+00
 -0.250000000000E+01 -0.250000000000E+01 -0.250000000000E+01 -0.250000000000E+01 -0.250000000000E+01 -0.250000000000E+01 -0.250000000000E+01
 -0.250000000000E+01 -0.250000000000E+01 -0.250000000000E+01 -0.250000000000E+01 -0.250000000000E+01 -0.250000000000E+01 -0.250000000000E+01
 -0.250000000000E+01 -0.250000000000E+01 -0.250000000000E+01 -0.250000000000E+01 -0.250000000000E+01 -0.250000000000E+01 -0.250000000000E+01
 -0.250000000000E+01 -0.250000000000E+01 -0.250000000000E+01 -0.250000000000E+01 -0.250000000000E+01 -0.250000000000E+01 -0.250000000000E+01
 -0.250000000000E+01 -0.250000000000E+01 -0.250000000000E+01 -0.250000000000E+01 -0.250000000000E+01
  0.000000000000E+00  0.000000000000E+00  0.000000000000E+00  0.904659890645E+00  0.000000000000E+00  0.717002441913E+00  0.188609243358E+01
  0.176246431481E+01  0.000000000000E+00  0.961328577125E+00  0.125000000000E+01  0.101201586758E+01  0.191586535653E+01  0.250000000000E+01
  0.293121848150E+01  0.375000000000E+01  0.406975391361E+01  0.363585050272E+01  0.285047954584E+01  0.292817774674E+01  0.395907379566E+01
  0.205246550326E+01  0.125000000000E+01  0.306828197606E+01  0.397245519226E+01  0.433168271247E+01  0.250000000000E+01  0.375000000000E+01
  0.500000000000E+01  0.500000000000E+01  0.500000000000E+01  0.500000000000E+01  0.500000000000E+01
  0.000000000000E+00  0.000000000000E+00  0.000000000000E+00  0.380991677071E+00  0.000000000000E+00  0.343629846333E+00  0.585283712637E+00
  0.579371274939E+00  0.000000000000E+00  0.501053781697E+00  0.508459764195E+00  0.435372705232E+00  0.572637650783E+00  0.537001621764E+00
  0.568921604272E+00  0.514994863512E+00  0.508249384174E+00  0.527254272376E+00  0.567446148296E+00  0.531657889979E+00  0.505982349932E+00
  0.520795557933E+00  0.443623519427E+00  0.490664279058E+00  0.492156105736E+00  0.501392667577E+00  0.467732961393E+00  0.488211579388E+00
  0.490002415326E+00  0.491354393416E+00  0.486078174930E+00  0.490037677861E+00  0.495097551278E+00
  0.999993511960E+00  0.999993715260E+00  0.999993570321E+00  0.989539101465E+00  0.999993167142E+00  0.985524838689E+00  0.989838839696E+00
  0.991798259717E+00  0.999992753610E+00  0.984411184056E+00  0.985091609572E+00  0.984689131748E+00  0.990058406085E+00  0.100289567776E+01
  0.999855182158E+00  0.100485299288E+01  0.100121572260E+01  0.100055639449E+01  0.997896752171E+00  0.100350023825E+01  0.100058089063E+01
  0.101093252220E+01  0.104043187424E+01  0.100326541074E+01  0.100254508116E+01  0.100045601675E+01  0.100976788455E+01  0.100405369623E+01
  0.100192661355E+01  0.100045469615E+01  0.100058772260E+01  0.100109988203E+01  0.100176128351E+01
 -0.350891740256E-03 -0.303321175264E-03 -0.325547130821E-03  0.259359110243E-02  0.439698826358E-03  0.141390501717E-01 -0.749148552911E-03
 -0.166592154057E-03  0.721712510096E-03  0.721748118202E-02 -0.102588297083E-02 -0.939403126636E-03 -0.809062230401E-03 -0.671330586312E-03
 -0.496994454936E-03 -0.446976794564E-03 -0.330114798444E-03 -0.388659512431E-03 -0.595250702586E-03 -0.780007055449E-03 -0.501588081613E-03
  0.227127844984E-03  0.502453850366E-02 -0.544171858951E-03 -0.918340574472E-03 -0.601599063739E-03 -0.666962015611E-03 -0.107839916669E-02
 -0.434765497398E-02 -0.521794136931E-03 -0.198697140144E-02 -0.381269175779E-02 -0.482625931930E-02
  0.864331937102E-04 -0.108211167090E-04  0.109993468930E-04  0.597674855472E-03 -0.102445472980E-03  0.190272337663E-02  0.293067948098E-04
 -0.799953138262E-04  0.524024756281E-04  0.942521421148E-03  0.224948249046E-03  0.358582392019E-04  0.105238966906E-03  0.172269320862E-03
  0.110651637434E-03  0.105185204678E-03  0.125326489674E-03  0.103151973724E-03  0.531756391562E-04 -0.613757833271E-04  0.443846943946E-04
 -0.631988958488E-04  0.636554789489E-03 -0.323316864856E-04 -0.103882956040E-03  0.611970055580E-04 -0.153285673533E-03 -0.227937014916E-03
 -0.782693985144E-03  0.258238750829E-04 -0.199536241944E-03 -0.593853879527E-03 -0.100438823561E-02
 -0.237486909307E-04  0.977384694672E-05  0.379487487581E-04  0.942364699253E-04  0.172500601948E-04  0.193273973606E-03 -0.393378328147E-05
  0.615362340558E-05 -0.574872831305E-04  0.985618771560E-04 -0.187691790150E-04 -0.361804378871E-04 -0.461727582682E-06  0.138574482436E-05
  0.416113408929E-06 -0.210878455701E-05  0.258734890639E-06 -0.193239878161E-05  0.911942938622E-06  0.487928080240E-05 -0.276468886739E-05
  0.962678104902E-05 -0.260777825675E-04  0.757675490614E-07 -0.927605088139E-06 -0.983667209481E-06 -0.298351597191E-05 -0.235554284373E-05
 -0.429541205007E-06 -0.485231144680E-06 -0.623821778413E-07  0.383293449318E-06  0.477345337472E-06
 -0.375880855719E-04 -0.190860502739E-04 -0.457289935070E-04  0.195299454715E-03 -0.136285050876E-03  0.107830273501E-03  0.223081850255E-03
  0.357511451509E-03 -0.129037662933E-03  0.236376918093E-03  0.464836203638E-04  0.131886791256E-03  0.974235283112E-04  0.454768377397E-04
  0.998061970701E-04  0.361870264451E-04  0.950692721042E-04  0.138178990404E-03  0.167538853685E-03  0.175451399056E-03  0.159772913827E-03
  0.317851066689E-03  0.241036645078E-03  0.193239501042E-03  0.162305829465E-03  0.136037349947E-03  0.297930961962E-03  0.182577469102E-03
  0.104847285063E-03  0.555155273575E-04  0.120263141352E-03  0.130426170830E-03  0.743852353302E-04
  0.120219522429E-03  0.199830601386E-03  0.542338319978E-03 -0.125574329747E-02  0.106185679750E-02 -0.611365376951E-02  0.207410879789E-03
  0.473072059298E-04 -0.191728157607E-03 -0.302020265367E-02  0.223889398971E-03  0.261817936653E-03  0.205075673591E-03  0.128350447059E-03
  0.990829948549E-04  0.901634868540E-04  0.457085770460E-04  0.723754863794E-04  0.155104073134E-03  0.264686733496E-03  0.134777667106E-03
 -0.970016510518E-04 -0.203288651744E-02  0.175576028171E-03  0.334472937104E-03  0.164643612229E-03  0.247547819448E-03  0.429705321513E-03
  0.176666938897E-02  0.157850501453E-03  0.745683618655E-03  0.151638489128E-02  0.200325591572E-02
 -0.341916837889E-12 -0.359225298823E-11 -0.437211747616E-11 -0.231767166651E-09 -0.181245044311E-10 -0.573957413365E-09 -0.123674653697E-09
 -0.127971939279E-08 -0.483483481734E-10 -0.113977965831E-08 -0.422363973617E-10 -0.110748912085E-09  0.642210804173E-10  0.416412693525E-10
  0.493827406027E-11 -0.166518685447E-10 -0.266981682041E-10 -0.490114904169E-10 -0.887766797296E-10 -0.273516147145E-09 -0.917317502419E-10
 -0.110907449229E-08 -0.944402425155E-09 -0.404004025479E-09 -0.117460023272E-09 -0.535377160013E-10 -0.520745917803E-09 -0.259974607033E-09
 -0.123718667437E-09 -0.149162165918E-11 -0.286750100362E-10 -0.100351920332E-09 -0.551323899038E-10
        15         7        19        19
         8        20        19        19
        18        19        21        21
         7         4         8         8
         3         6         4         4
        19         7         8         8
        19        18        15        15
        14        13        15        15
         8        22        20        20
        27        24        22        22
        19        20        21        21
        32        26        21        21
        17        18        26        26
        17        16        15        15
        25        29        21        21
        12         7        13        13
        10         8         6         6
        25        20        24        24
         4         6         8         8
        12         2         4         4
        10        23        22        22
        26        31        17        17
        30        16        17        17
         4         7        12        12
        13        11        12        12
        21        20        25        25
        24        28        25        25
        22         8        10        10
         6         5        10        10
        31        26        32        32
         4         2         3         3
         5         6         3         3
        11        13        14        14
        22        23        27        27
        28        24        27        27
        15        13         7         7
         2        12         1         1
        29        25        33        33
        23        10         9         9
        21        26        18        18
        16        14        15        15
        18        17        15        15
        29        32        21        21
        22        24        20        20
        28        33        25        25
        11         1        12        12
        31        30        17        17
         5         9        10        10
zone t="boundary 3 bc-3", solutiontime= 0.3000000E+02, strandid=1003, i=33, j=48, f=feblock
  0.375000000000E+01  0.250000000000E+01  0.500000000000E+01  0.403552511878E+01  0.288078410721E+01  0.125000000000E+01  0.190974100652E+01
  0.500000000000E+01  0.326683758169E+01  0.423153924130E+01  0.201431602454E+01  0.000000000000E+00  0.963108083381E+00  0.500000000000E+01
  0.267000324704E+01  0.385533350601E+01  0.893127759452E+00  0.154774304040E+01  0.000000000000E+00  0.500000000000E+01  0.315249557942E+01
  0.218329375016E+01  0.398173246726E+01  0.000000000000E+00  0.698517061619E+00  0.964171764089E+00  0.125000000000E+01  0.000000000000E+00
  0.500000000000E+01  0.310324758057E+01  0.250000000000E+01  0.375000000000E+01  0.000000000000E+00
  0.250000000000E+01  0.250000000000E+01  0.250000000000E+01  0.250000000000E+01  0.250000000000E+01  0.250000000000E+01  0.250000000000E+01
  0.250000000000E+01  0.250000000000E+01  0.250000000000E+01  0.250000000000E+01  0.250000000000E+01  0.250000000000E+01  0.250000000000E+01
  0.250000000000E+01  0.250000000000E+01  0.250000000000E+01  0.250000000000E+01  0.250000000000E+01  0.250000000000E+01  0.250000000000E+01
  0.250000000000E+01  0.250000000000E+01  0.250000000000E+01  0.250000000000E+01  0.250000000000E+01  0.250000000000E+01  0.250000000000E+01
  0.250000000000E+01  0.250000000000E+01  0.250000000000E+01  0.250000000000E+01  0.250000000000E+01
  0.000000000000E+00  0.000000000000E+00  0.000000000000E+00  0.101201586758E+01  0.904659890645E+00  0.000000000000E+00  0.717002441913E+00
  0.125000000000E+01  0.188609243358E+01  0.191586535653E+01  0.176246431481E+01  0.000000000000E+00  0.961328577125E+00  0.250000000000E+01
  0.285047954584E+01  0.293121848150E+01  0.205246550326E+01  0.292817774674E+01  0.125000000000E+01  0.375000000000E+01  0.363585050272E+01
  0.395907379566E+01  0.406975391361E+01  0.250000000000E+01  0.306828197606E+01  0.397245519226E+01  0.500000000000E+01  0.375000000000E+01
  0.500000000000E+01  0.433168271247E+01  0.500000000000E+01  0.500000000000E+01  0.500000000000E+01
  0.000000000000E+00  0.000000000000E+00  0.000000000000E+00  0.443768049813E+00  0.402287063289E+00  0.000000000000E+00  0.377550015530E+00
  0.509231651017E+00  0.575830373842E+00  0.573705119893E+00  0.562552484917E+00  0.000000000000E+00  0.490560996922E+00  0.534526640478E+00
  0.556587161529E+00  0.564391003890E+00  0.522730520214E+00  0.522053035057E+00  0.441238864710E+00  0.517182885172E+00  0.524230081365E+00
  0.503688666615E+00  0.509490322369E+00  0.469815278546E+00  0.495614921017E+00  0.494483812152E+00  0.488562139423E+00  0.488960767301E+00
  0.492982637025E+00  0.499007441401E+00  0.486462299176E+00  0.484599832491E+00  0.495345969094E+00
  0.999989380190E+00  0.999989451040E+00  0.999989665041E+00  0.981541820811E+00  0.988773959065E+00  0.999989868921E+00  0.982469495615E+00
  0.984104107106E+00  0.990427340160E+00  0.990355127069E+00  0.994362617112E+00  0.999990335442E+00  0.988651707786E+00  0.100368299998E+01
  0.999769041194E+00  0.100118460274E+01  0.100834871539E+01  0.100252122579E+01  0.102982730935E+01  0.100443305346E+01  0.100199527495E+01
  0.100082072308E+01  0.100138208455E+01  0.100826302705E+01  0.100298818591E+01  0.100192398684E+01  0.100215265586E+01  0.100355656280E+01
  0.100047708080E+01  0.100056610141E+01  0.100126814609E+01  0.100066576236E+01  0.100179353455E+01
 -0.224269683346E-03  0.188902695368E-03 -0.382210670642E-03  0.159249519427E-02  0.761017147032E-02  0.423917612557E-03  0.693973158976E-02
 -0.129344266770E-02 -0.754817215726E-03 -0.836814070894E-03  0.117409304914E-02  0.589601751599E-03  0.457425267688E-02 -0.654971226713E-03
 -0.737526661263E-03 -0.535500921031E-03  0.884281300146E-04 -0.721033276095E-03  0.340811856083E-02 -0.450625280351E-03 -0.327419348622E-03
 -0.442709501712E-03 -0.344870579163E-03 -0.254296477997E-03 -0.587859459701E-03 -0.118483619535E-02 -0.367703623576E-02 -0.127130955194E-02
 -0.429837793060E-03 -0.527418760662E-03 -0.344121191844E-02 -0.186773496035E-02 -0.488136236826E-02
 -0.564623940253E-04 -0.638642776391E-04  0.925675826532E-04  0.472346158744E-03  0.981798605539E-03 -0.704476969891E-04  0.715021281938E-03
  0.223785604954E-03 -0.268371653285E-04  0.116358189744E-03 -0.358947470540E-04  0.279230325025E-04  0.319220132776E-03  0.171078149564E-03
 -0.103730213390E-04  0.890171629169E-04 -0.160757260458E-03 -0.817434295563E-04  0.476619561881E-03  0.110415195435E-03  0.955802643401E-04
  0.495338691258E-04  0.111778111552E-03 -0.112542229635E-03 -0.134157635151E-03 -0.153600921235E-03 -0.652479746768E-03 -0.276836915455E-03
  0.391474775447E-04  0.608638410477E-04 -0.532047704620E-03 -0.185606430087E-03 -0.100450584637E-02
 -0.109318851544E-04  0.804214741631E-06  0.156091467556E-04 -0.206700288853E-04 -0.967847944883E-04  0.239961079365E-04  0.413783358833E-05
  0.153226335026E-05 -0.122873132819E-04  0.319950423204E-05 -0.100641989263E-04  0.285272223694E-04  0.363074367507E-04  0.507258628620E-05
 -0.258916581937E-06  0.122627709369E-05 -0.152685445938E-04 -0.782199755920E-05  0.128820384574E-04  0.268308437338E-05  0.554681225220E-06
  0.631605630896E-05  0.277608829550E-06 -0.146283808370E-05 -0.396823795179E-05  0.222052343925E-05  0.183787187916E-05 -0.716483558771E-06
  0.863186784719E-06  0.502859074113E-07  0.517183006545E-06 -0.189209731251E-06  0.117095262399E-07
 -0.562123008804E-04 -0.107405155252E-03 -0.330296209812E-04  0.840729584336E-04  0.125227772860E-03 -0.919789341880E-04  0.448360677992E-05
  0.437168697032E-04  0.244005096311E-03  0.121291104048E-03  0.336315336250E-03 -0.164928462396E-03  0.719310947499E-04  0.512943527288E-04
  0.129679808536E-03  0.112133982717E-03  0.259084586603E-03  0.133032514300E-03 -0.130166057938E-03  0.466795040228E-04  0.129351330611E-03
  0.133215360943E-03  0.100165124863E-03  0.189974068049E-03  0.183475456310E-03  0.133778556223E-03  0.103246429811E-03  0.163200943493E-03
  0.505376491695E-04  0.129241036331E-03  0.126131091846E-03  0.115348114154E-03  0.650216917842E-04
  0.931638390929E-03  0.284839015654E-03  0.167842275574E-03 -0.863228639291E-03 -0.328915164449E-02 -0.368883953086E-05 -0.286798804031E-02
  0.321871892157E-03  0.240501208601E-03  0.214057139640E-03 -0.451297454464E-03 -0.466979405941E-03 -0.180318143938E-02  0.123491020575E-03
  0.232270814481E-03  0.121294854648E-03 -0.235886312764E-04  0.251509749468E-03 -0.141017166629E-02  0.884334937773E-04  0.537883196080E-04
  0.113796218072E-03  0.563804759286E-04  0.976655726402E-04  0.213683280221E-03  0.446699320685E-03  0.148655515980E-02  0.511275241931E-03
  0.121793861068E-03  0.139747243838E-03  0.136508470455E-02  0.699160724866E-03  0.202690344244E-02
 -0.356194257761E-11 -0.111752531033E-10 -0.120659022342E-11 -0.116879229724E-09 -0.185992021631E-09 -0.721018390699E-10 -0.137239980795E-08
 -0.219816680079E-10 -0.336958192621E-09  0.112140708056E-09 -0.116129816091E-08 -0.287488603626E-09 -0.150297351865E-08  0.299674947109E-10
 -0.732450805305E-10  0.220559072646E-10 -0.620897885171E-09 -0.247131208730E-09 -0.373695741581E-09 -0.156442001575E-10 -0.760855485380E-11
 -0.396547435999E-10 -0.170164355182E-10 -0.246045735406E-09 -0.328961046751E-09 -0.808389877100E-10 -0.480614705025E-10 -0.213794428323E-09
 -0.388922292525E-11 -0.193237173278E-10 -0.331184788884E-10 -0.556602620529E-11 -0.295492924353E-10
        15         9        16        16
        15        18        11        11
        22        15        21        21
        11         5         9         9
         5         7         2         2
        11         9        15        15
        16        21        15        15
        16        10        14        14
        18        17        11        11
        17        25        24        24
        22        18        15        15
        22        30        31        31
        30        21        23        23
        16        20        23        23
        22        27        26        26
        10         9         4         4
         7        11        13        13
        25        18        26        26
        11         7         5         5
         5         1         4         4
        17        19        13        13
        23        32        30        30
        23        20        29        29
         4         9         5         5
         4         8        10        10
        26        18        22        22
        26        28        25        25
        13        11        17        17
        13         6         7         7
        31        30        32        32
         2         1         5         5
         2         7         6         6
        14        10         8         8
        24        19        17        17
        24        25        28        28
         9        10        16        16
         3         4         1         1
        33        26        27        27
        12        13        19        19
        21        30        22        22
        16        14        20        20
        16        23        21        21
        22        31        27        27
        18        25        17        17
        26        33        28        28
         4         3         8         8
        23        29        32        32
        13        12         6         6
zone t="boundary 4 bc-4", solutiontime= 0.3000000E+02, strandid=1004, i=32, j=46, f=feblock
  0.125000000000E+01  0.219251206392E+01  0.103724302461E+01  0.500000000000E+01  0.250000000000E+01  0.375000000000E+01  0.404200324774E+01
  0.500000000000E+01  0.000000000000E+00  0.310152362409E+01  0.202479342020E+01  0.324151231464E+01  0.922061490191E+00  0.000000000000E+00
  0.299062775774E+01  0.394624082883E+01  0.500000000000E+01  0.409252726285E+01  0.500000000000E+01  0.429310310915E+01  0.175434191980E+01
  0.284428995242E+01  0.000000000000E+00  0.000000000000E+00  0.715990576545E+00  0.930412228790E+00  0.125000000000E+01  0.187029682677E+01
  0.500000000000E+01  0.375000000000E+01  0.250000000000E+01  0.000000000000E+00
  0.250000000000E+01  0.157686156160E+01  0.146289271009E+01  0.250000000000E+01  0.250000000000E+01  0.250000000000E+01  0.155830813274E+01
  0.125000000000E+01  0.250000000000E+01  0.177790177481E+01  0.477386199275E+00  0.742988685424E+00  0.308372018325E+00  0.125000000000E+01
 -0.487811078581E+00 -0.144524380962E+01 -0.125000000000E+01 -0.345533899378E+00  0.000000000000E+00  0.627766083140E+00 -0.739814786992E+00
 -0.158811787973E+01  0.000000000000E+00 -0.125000000000E+01 -0.600232012419E+00 -0.154800130438E+01 -0.250000000000E+01 -0.178862290564E+01
 -0.250000000000E+01 -0.250000000000E+01 -0.250000000000E+01 -0.250000000000E+01
  0.500000000000E+01  0.500000000000E+01  0.500000000000E+01  0.500000000000E+01  0.500000000000E+01  0.500000000000E+01  0.500000000000E+01
  0.500000000000E+01  0.500000000000E+01  0.500000000000E+01  0.500000000000E+01  0.500000000000E+01  0.500000000000E+01  0.500000000000E+01
  0.500000000000E+01  0.500000000000E+01  0.500000000000E+01  0.500000000000E+01  0.500000000000E+01  0.500000000000E+01  0.500000000000E+01
  0.500000000000E+01  0.500000000000E+01  0.500000000000E+01  0.500000000000E+01  0.500000000000E+01  0.500000000000E+01  0.500000000000E+01
  0.500000000000E+01  0.500000000000E+01  0.500000000000E+01  0.500000000000E+01