# vtk DataFile Version 2.0
FUN3D:global_image_vtk
ASCII
DATASET UNSTRUCTURED_GRID
POINTS 213 double
    0.0000000000000000E+00    0.2500000000000000E+01    0.0000000000000000E+00
    0.1250000000000000E+01    0.2500000000000000E+01    0.0000000000000000E+00
    0.2500000000000000E+01    0.2500000000000000E+01    0.0000000000000000E+00
    0.3750000000000000E+01    0.2500000000000000E+01    0.0000000000000000E+00
    0.5000000000000000E+01    0.2500000000000000E+01    0.0000000000000000E+00
    0.5000000000000000E+01    0.1250000000000000E+01    0.0000000000000000E+00
    0.5000000000000000E+01    0.0000000000000000E+00    0.0000000000000000E+00
    0.5000000000000000E+01   -0.1250000000000000E+01    0.0000000000000000E+00
    0.5000000000000000E+01   -0.2500000000000000E+01    0.0000000000000000E+00
    0.3750000000000000E+01   -0.2500000000000000E+01    0.0000000000000000E+00
    0.2500000000000000E+01   -0.2500000000000000E+01    0.0000000000000000E+00
    0.1250000000000000E+01   -0.2500000000000000E+01    0.0000000000000000E+00
    0.0000000000000000E+00   -0.2500000000000000E+01    0.0000000000000000E+00
    0.0000000000000000E+00   -0.1250000000000000E+01    0.0000000000000000E+00
    0.0000000000000000E+00    0.0000000000000000E+00    0.0000000000000000E+00
    0.0000000000000000E+00    0.1250000000000000E+01    0.0000000000000000E+00
    0.9058375365086910E+00    0.1578994732800803E+01    0.0000000000000000E+00
    0.3982050490726493E+01   -0.1583989954232354E+01    0.0000000000000000E+00
    0.4033849428301197E+01    0.1453322699199022E+01    0.0000000000000000E+00
    0.1040505887381675E+01   -0.1479596339503735E+01    0.0000000000000000E+00
    0.1099454400140349E+01   -0.3227322616384110E+00    0.0000000000000000E+00
    0.7354504170366591E+00    0.6593508822075582E+00    0.0000000000000000E+00
    0.1622302608453282E+01    0.8256214013940779E+00    0.0000000000000000E+00
    0.2145871574390382E+01   -0.1650070333782557E+01    0.0000000000000000E+00
    0.4086422318222992E+01   -0.4612828702537229E+00    0.0000000000000000E+00
    0.2979540174134984E+01   -0.8579242121530853E+00    0.0000000000000000E+00
    0.3045064261640043E+01   -0.1836846154397680E+01    0.0000000000000000E+00
    0.3428197553792836E+01    0.3508002863614053E+00    0.0000000000000000E+00
    0.4309693860063405E+01    0.5185680230613409E+00    0.0000000000000000E+00
    0.1827272193562204E+01    0.1738996113203182E+01    0.0000000000000000E+00
    0.2808563282768077E+01    0.1325493893339706E+01    0.0000000000000000E+00
    0.1895995683864404E+01   -0.8731419609589618E+00    0.0000000000000000E+00
    0.2273179336307740E+01    0.4906150219227333E-01    0.0000000000000000E+00
    0.5000000000000000E+01    0.2500000000000000E+01    0.1250000000000000E+01
    0.5000000000000000E+01    0.2500000000000000E+01    0.2500000000000000E+01
    0.5000000000000000E+01    0.2500000000000000E+01    0.3750000000000000E+01
    0.5000000000000000E+01    0.2500000000000000E+01    0.5000000000000000E+01
    0.3750000000000000E+01    0.2500000000000000E+01    0.5000000000000000E+01
    0.2500000000000000E+01    0.2500000000000000E+01    0.5000000000000000E+01
    0.1250000000000000E+01    0.2500000000000000E+01    0.5000000000000000E+01
    0.0000000000000000E+00    0.2500000000000000E+01    0.5000000000000000E+01
    0.0000000000000000E+00    0.2500000000000000E+01    0.3750000000000000E+01
    0.0000000000000000E+00    0.2500000000000000E+01    0.2500000000000000E+01
    0.0000000000000000E+00    0.2500000000000000E+01    0.1250000000000000E+01
    0.9631080833812172E+00    0.2500000000000000E+01    0.9613285771248219E+00
    0.3981732467264904E+01    0.2500000000000000E+01    0.4069753913607991E+01
    0.4035525118777670E+01    0.2500000000000000E+01    0.1012015867579395E+01
    0.9641717640894248E+00    0.2500000000000000E+01    0.3972455192261839E+01
    0.1547743040396780E+01    0.2500000000000000E+01    0.2928177746738678E+01
    0.6985170616192014E+00    0.2500000000000000E+01    0.3068281976055466E+01
    0.8931277594515110E+00    0.2500000000000000E+01    0.2052465503257726E+01
    0.2183293750162785E+01    0.2500000000000000E+01    0.3959073795658649E+01
    0.3855333506014705E+01    0.2500000000000000E+01    0.2931218481500625E+01
    0.3152495579421047E+01    0.2500000000000000E+01    0.3635850502723324E+01
    0.3103247580566054E+01    0.2500000000000000E+01    0.4331682712472464E+01
    0.3266837581688852E+01    0.2500000000000000E+01    0.1886092433583972E+01
    0.4231539241296245E+01    0.2500000000000000E+01    0.1915865356532799E+01
    0.1909741006522088E+01    0.2500000000000000E+01    0.7170024419130505E+00
    0.2880784107213163E+01    0.2500000000000000E+01    0.9046598906449592E+00
    0.2014316024535771E+01    0.2500000000000000E+01    0.1762464314805728E+01
    0.2670003247036656E+01    0.2500000000000000E+01    0.2850479545835163E+01
    0.5000000000000000E+01    0.1250000000000000E+01    0.5000000000000000E+01
    0.5000000000000000E+01    0.0000000000000000E+00    0.5000000000000000E+01
    0.5000000000000000E+01   -0.1250000000000000E+01    0.5000000000000000E+01
    0.5000000000000000E+01   -0.2500000000000000E+01    0.5000000000000000E+01
    0.5000000000000000E+01   -0.2500000000000000E+01    0.3750000000000000E+01
    0.5000000000000000E+01   -0.2500000000000000E+01    0.2500000000000000E+01
    0.5000000000000000E+01   -0.2500000000000000E+01    0.1250000000000000E+01
    0.5000000000000000E+01    0.1578994732800803E+01    0.9058375365086910E+00
    0.5000000000000000E+01   -0.1583989954232354E+01    0.3982050490726493E+01
    0.5000000000000000E+01    0.1453322699199022E+01    0.4033849428301197E+01
    0.5000000000000000E+01   -0.1479596339503735E+01    0.1040505887381675E+01
    0.5000000000000000E+01   -0.3227322616384110E+00    0.1099454400140349E+01
    0.5000000000000000E+01    0.6593508822075582E+00    0.7354504170366591E+00
    0.5000000000000000E+01    0.8256214013940779E+00    0.1622302608453282E+01
    0.5000000000000000E+01   -0.1650070333782557E+01    0.2145871574390382E+01
    0.5000000000000000E+01   -0.4612828702537229E+00    0.4086422318222992E+01
    0.5000000000000000E+01   -0.8579242121530853E+00    0.2979540174134984E+01
    0.5000000000000000E+01   -0.1836846154397680E+01    0.3045064261640043E+01
    0.5000000000000000E+01    0.3508002863614053E+00    0.3428197553792836E+01
    0.5000000000000000E+01    0.5185680230613409E+00    0.4309693860063405E+01
    0.5000000000000000E+01    0.1738996113203182E+01    0.1827272193562204E+01
    0.5000000000000000E+01    0.1325493893339706E+01    0.2808563282768077E+01
    0.5000000000000000E+01   -0.8731419609589618E+00    0.1895995683864404E+01
    0.5000000000000000E+01    0.4906150219227333E-01    0.2273179336307740E+01
    0.0000000000000000E+00    0.1250000000000000E+01    0.5000000000000000E+01
    0.0000000000000000E+00    0.0000000000000000E+00    0.5000000000000000E+01
    0.0000000000000000E+00   -0.1250000000000000E+01    0.5000000000000000E+01
    0.0000000000000000E+00   -0.2500000000000000E+01    0.5000000000000000E+01
    0.1250000000000000E+01   -0.2500000000000000E+01    0.5000000000000000E+01
    0.2500000000000000E+01   -0.2500000000000000E+01    0.5000000000000000E+01
    0.3750000000000000E+01   -0.2500000000000000E+01    0.5000000000000000E+01
    0.4042003247744892E+01    0.1558308132739014E+01    0.5000000000000000E+01
    0.9304122287900499E+00   -0.1548001304379777E+01    0.5000000000000000E+01
    0.1037243024609388E+01    0.1462892710085612E+01    0.5000000000000000E+01
    0.3946240828834967E+01   -0.1445243809615570E+01    0.5000000000000000E+01
    0.4092527262848217E+01   -0.3455338993778935E+00    0.5000000000000000E+01
    0.4293103109154542E+01    0.6277660831404320E+00    0.5000000000000000E+01
    0.3241512314643519E+01    0.7429886854239611E+00    0.5000000000000000E+01
    0.2844289952419609E+01   -0.1588117879734118E+01    0.5000000000000000E+01
    0.7159905765450471E+00   -0.6002320124191652E+00    0.5000000000000000E+01
    0.1754341919796891E+01   -0.7398147869923652E+00    0.5000000000000000E+01
    0.1870296826774691E+01   -0.1788622905643739E+01    0.5000000000000000E+01
    0.9220614901912976E+00    0.3083720183248586E+00    0.5000000000000000E+01
    0.3101523624086016E+01    0.1777901774806180E+01    0.5000000000000000E+01
    0.2192512063922564E+01    0.1576861561598471E+01    0.5000000000000000E+01
    0.2024793420196460E+01    0.4773861992750707E+00    0.5000000000000000E+01
    0.2990627757741975E+01   -0.4878110785814084E+00    0.5000000000000000E+01
    0.0000000000000000E+00   -0.2500000000000000E+01    0.1250000000000000E+01
    0.0000000000000000E+00   -0.2500000000000000E+01    0.2500000000000000E+01
    0.0000000000000000E+00   -0.2500000000000000E+01    0.3750000000000000E+01
    0.0000000000000000E+00    0.1558308132739014E+01    0.4042003247744892E+01
    0.0000000000000000E+00   -0.1548001304379777E+01    0.9304122287900499E+00
    0.0000000000000000E+00    0.1462892710085612E+01    0.1037243024609388E+01
    0.0000000000000000E+00   -0.1445243809615570E+01    0.3946240828834967E+01
    0.0000000000000000E+00   -0.3455338993778935E+00    0.4092527262848217E+01
    0.0000000000000000E+00    0.6277660831404320E+00    0.4293103109154542E+01
    0.0000000000000000E+00    0.7429886854239611E+00    0.3241512314643519E+01
    0.0000000000000000E+00   -0.1588117879734118E+01    0.2844289952419609E+01
    0.0000000000000000E+00   -0.6002320124191652E+00    0.7159905765450471E+00
    0.0000000000000000E+00   -0.7398147869923652E+00    0.1754341919796891E+01
    0.0000000000000000E+00   -0.1788622905643739E+01    0.1870296826774691E+01
    0.0000000000000000E+00    0.3083720183248586E+00    0.9220614901912976E+00
    0.0000000000000000E+00    0.1777901774806180E+01    0.3101523624086016E+01
    0.0000000000000000E+00    0.1576861561598471E+01    0.2192512063922564E+01
[...]
POINT_DATA 213
SCALARS p double 1
LOOKUP_TABLE default
   0.9601855855076481E+00
   0.6835482513323695E+00
   0.6759190654405932E+00
   0.6727509326142237E+00
   0.6026580301547138E+00
   0.5527088821783619E+00
   0.5449820720848569E+00
   0.5474655332569918E+00
   0.5934152920752589E+00
   0.6680651416431024E+00
   0.6672973342417433E+00
   0.6869384699720873E+00
   0.1035320316386188E+01
   0.1067200879307856E+01
   0.1174754319859636E+01
   0.1018443767983991E+01
   0.7207189949256766E+00
   0.6791964028973964E+00
   0.6740292474401065E+00
   0.6843928082405288E+00
   0.6725556349312239E+00
   0.7402637213470981E+00
   0.6611486253400044E+00
   0.6658778838293723E+00
   0.6812432631406692E+00
   0.6799071584195414E+00
   0.6677515770268265E+00
   0.6831382946214084E+00
   0.6697149837056439E+00
   0.6643266691354189E+00
   0.6746471619229774E+00
   0.6331027567753821E+00
   0.6731069182423534E+00
   0.6772738394312156E+00
   0.7228656502230831E+00
   0.7222845009048794E+00
   0.7160306449107291E+00
   0.7170624729413250E+00
   0.7181467840482674E+00
   0.7195663072715689E+00
   0.7186154965073540E+00
   0.7227821162791618E+00
   0.7373956508588384E+00
   0.7823415323668250E+00
   0.7197267268651667E+00
   0.7165465048402825E+00
   0.6760934394443592E+00
   0.7194415067230765E+00
   0.7166030282098194E+00
   0.7226834300594981E+00
   0.7260679077855848E+00
   0.7165516403881986E+00
   0.7137005141026543E+00
   0.7161283600461562E+00
   0.7158477879250461E+00
   0.6952016011438121E+00
   0.6962503097694980E+00
   0.6900662985268754E+00
   0.6913088603229619E+00
   0.7033440284999098E+00
   0.7094475992980559E+00
   0.7160838993149888E+00
   0.7162557348760005E+00
   0.7165053624017083E+00
   0.7158931911621654E+00
   0.7247706647221336E+00
   0.7209587365146296E+00
   0.6725904411450546E+00
   0.6451077611776551E+00
   0.7221026437968382E+00
   0.7196943561844173E+00
   0.6358192506346269E+00
   0.6307815332561026E+00
   0.5995164665579944E+00
   0.6915331510218724E+00
   0.7155267410966298E+00
   0.7212041959560923E+00
   0.7290131894477453E+00
   0.7268947463288170E+00
   0.7265260912806081E+00
   0.7204474240923415E+00
   0.7037432128824573E+00
   0.7205066906329866E+00
   0.7023645670226014E+00
   0.7220876877985071E+00
   0.7185313780337624E+00
   0.7171997450718969E+00
   0.7176372475031851E+00
   0.7184010087160291E+00
   0.7193131847734028E+00
   0.7173679630564870E+00
   0.7166088852196369E+00
   0.7163146486492441E+00
   0.7184766079892195E+00
   0.7186512801042281E+00
   0.7154647270554755E+00
   0.7160687199089392E+00
   0.7162707759869503E+00
   0.7172829017547294E+00
   0.7174031824244540E+00
   0.7175450701029055E+00
   0.7186986467532105E+00
   0.7185412888825796E+00
   0.7180784296311059E+00
   0.7177506310533995E+00
   0.7184734769816151E+00
   0.7184295436328669E+00
   0.7175638752296428E+00
   0.7910447916121537E+00
   0.7417998001637578E+00
   0.7240569897706279E+00
   0.7207854218991770E+00
   0.8583189184805349E+00
   0.8087280708034443E+00
   0.7221083395728928E+00
   0.7211519427290644E+00
   0.7210138422731965E+00
   0.7257594585333383E+00
   0.7326287293961082E+00
   0.9166231764820797E+00
   0.7574566243300825E+00
   0.7600185935091452E+00
   0.8794486095730860E+00
   0.7291887898631068E+00
   0.7461263205621222E+00
   0.7435543662891171E+00
   0.7280652160392903E+00
   0.7236952008311178E+00
   0.7165804870104838E+00
   0.6757024543508291E+00
   0.7210109445194138E+00
   0.7177374683229039E+00
   0.7243733504434439E+00
   0.7309384017104809E+00
   0.7153766313542983E+00
   0.7126908408652374E+00
   0.7132987063768053E+00
   0.7154575129943564E+00
   0.6958113925641641E+00
   0.6940926117788184E+00
   0.6792012761148964E+00
   0.6842573998133458E+00
   0.7023438027781425E+00
   0.7064294036707508E+00
   0.7092516528372709E+00
   0.7176151528605844E+00
   0.7173907926624018E+00
   0.7117195769450418E+00
   0.7288331835955081E+00
   0.7352327514792441E+00
   0.7097529733600451E+00
   0.7230460147659318E+00
   0.7189791897708091E+00
   0.7231648255732889E+00
   0.7128302392816106E+00
   0.6918509477125817E+00
   0.7175393653389975E+00
   0.7113153222249048E+00
   0.6973276785771086E+00
   0.7095402573401913E+00
   0.7134565311350923E+00
   0.7078897989655765E+00
   0.7159199134364412E+00
   0.7175570424736381E+00
   0.7166974114593068E+00
   0.7110653937525052E+00
   0.7103506453925068E+00
   0.7187209087534775E+00
   0.7362206901760200E+00
   0.7210424010693803E+00
   0.6966938156683596E+00
   0.7191729578600400E+00
   0.7279742366698223E+00
   0.6957912732417102E+00
   0.6741413819683005E+00
   0.7020820630027619E+00
   0.7006029317730645E+00
   0.6996545710033736E+00
   0.7043405634214012E+00
   0.6875494859966300E+00
   0.7541453086877425E+00
   0.7257250050126034E+00
   0.7163730576653599E+00
   0.7164941955107474E+00
   0.7072977827402877E+00
   0.7062387301965692E+00
   0.6798330232475414E+00
   0.7081018174722645E+00
   0.7211938876062373E+00
   0.7177387867653542E+00
   0.7069474956878252E+00
   0.6847280450655068E+00
   0.6585988941331602E+00
   0.6907372989467379E+00
   0.6956026914364311E+00
   0.6931209807970310E+00
   0.6873766858828466E+00
   0.6731741247305421E+00
   0.6669550176967756E+00
   0.6793674967173743E+00
   0.7172157002513166E+00
   0.7168066014323549E+00
   0.7154499078203840E+00
   0.7175315261280908E+00
   0.6789121632334748E+00
   0.6691423832951328E+00
   0.6790153574828770E+00
   0.7156262414753481E+00
   0.7152941144485906E+00
   0.7168557068800977E+00
   0.6951126042801542E+00
   0.6910822042327214E+00
   0.6838693478853014E+00
SCALARS mach double 1
LOOKUP_TABLE default
   0.0000000000000000E+00
   0.0000000000000000E+00
   0.0000000000000000E+00
   0.0000000000000000E+00
   0.0000000000000000E+00
   0.0000000000000000E+00
   0.0000000000000000E+00
   0.0000000000000000E+00
   0.0000000000000000E+00
   0.0000000000000000E+00
   0.0000000000000000E+00
   0.0000000000000000E+00
   0.0000000000000000E+00
   0.0000000000000000E+00
   0.0000000000000000E+00
   0.0000000000000000E+00
   0.0000000000000000E+00
   0.0000000000000000E+00
   0.0000000000000000E+00
   0.0000000000000000E+00
   0.0000000000000000E+00
   0.0000000000000000E+00
   0.0000000000000000E+00
   0.0000000000000000E+00
   0.0000000000000000E+00
   0.0000000000000000E+00
   0.0000000000000000E+00
   0.0000000000000000E+00
   0.0000000000000000E+00
   0.0000000000000000E+00
   0.0000000000000000E+00
   0.0000000000000000E+00
   0.0000000000000000E+00
   0.5092316510168537E+00
   0.5345266404776657E+00
   0.5171828851720923E+00
   0.4929826370252304E+00
   0.4845998324913184E+00
   0.4864622991759195E+00
   0.4885621394231883E+00
   0.4953459690935933E+00
   0.4889607673012709E+00
   0.4698152785456366E+00
   0.4412388647100463E+00
   0.4905609969216747E+00
   0.5094903223686122E+00
   0.4437680498130009E+00
   0.4944838121517863E+00
   0.5220530350573276E+00
   0.4956149210170302E+00
   0.5227305202140526E+00
   0.5036886666153623E+00
   0.5643910038896021E+00
   0.5242300813645183E+00
   0.4990074414012353E+00
   0.5758303738416497E+00
   0.5737051198929582E+00
   0.3775500155300865E+00
   0.4022870632889258E+00
   0.5625524849171742E+00
   0.5565871615292090E+00
   0.4941652979855332E+00
   0.4947408786745457E+00
   0.4923972844266501E+00
   0.4913543934163687E+00
   0.5149948635124098E+00
   0.5370016217635346E+00
   0.5084597641947607E+00
   0.4720986603958177E+00
   0.5119119073712975E+00
   0.5110376819329545E+00
   0.4956045127080293E+00
   0.5103559851231472E+00
   0.4808056036974578E+00
   0.5354782659548117E+00
   0.5337779389647209E+00
   0.5120049583115523E+00
   0.5311732864573844E+00
   0.5295541635456161E+00
   0.5292772959870051E+00
   0.5056219939340827E+00
   0.5358284403341605E+00
   0.5407855099462324E+00
   0.5429789453437930E+00
   0.5391868994674877E+00
   0.4961270061892202E+00
   0.4972458006546560E+00
   0.4960586447183725E+00
   0.4950975512775713E+00
   0.4900024153259276E+00
   0.4900376778611042E+00
   0.4860781749296755E+00
   0.4853510563284303E+00
   0.4927997956853007E+00
   0.4905625259688466E+00
   0.4832229149675196E+00
   0.4872175951378959E+00
   0.4879622233654299E+00
   0.4870715677829097E+00
   0.4880308123569229E+00
   0.4949503983267450E+00
   0.4896774183086234E+00
   0.4900053939254861E+00
   0.4940452457447851E+00
   0.4865303852733455E+00
   0.4888740005613921E+00
   0.4878208686395140E+00
   0.4876145750240386E+00
   0.4436235194266632E+00
   0.4677329613932599E+00
   0.4882115793884090E+00
   0.4879292248317199E+00
   0.4647734088269070E+00
   0.4752123334176712E+00
   0.4869639565875084E+00
   0.4862855572929016E+00
   0.4902654037723447E+00
   0.4787141529717937E+00
   0.4643835229810741E+00
   0.4022996473074985E+00
   0.4892985478023367E+00
   0.4457206486634807E+00
   0.4688254599159185E+00
   0.4830679716623246E+00
   0.4601256000470805E+00
   0.4644134802602934E+00
   0.4737962426687881E+00
   0.5010537816969893E+00
   0.5082493841744837E+00
   0.4353727052320392E+00
   0.4921561057357283E+00
   0.5316578899790895E+00
   0.4906642790576540E+00
   0.5207955579331733E+00
   0.5059823499320912E+00
   0.5689216042718364E+00
   0.5272542723761994E+00
   0.5013926675767613E+00
   0.5852837126367505E+00
   0.5726376507831908E+00
   0.3436298463328738E+00
   0.3809916770709494E+00
   0.5793712749390230E+00
   0.5674461482962774E+00
   0.5707654255658439E+00
   0.5288682538964727E+00
   0.5447476935809444E+00
   0.5732728414810405E+00
   0.5383802069387511E+00
   0.5542539897125786E+00
   0.5870602581598063E+00
   0.4918966050482912E+00
   0.5038462103075565E+00
   0.4955073218517979E+00
   0.5581655046989645E+00
   0.4899042332644542E+00
   0.4947408023466994E+00
   0.5497815361407492E+00
   0.5912714812982770E+00
   0.5845138445807274E+00
   0.5465425247044247E+00
   0.5815205522585432E+00
   0.5103956940786286E+00
   0.5026524429128780E+00
   0.5030727922656478E+00
   0.5675215026827176E+00
   0.5563190594453725E+00
   0.4944371374416071E+00
   0.5523470321923035E+00
   0.5528913350063899E+00
   0.5690553633916978E+00
   0.4915647960354031E+00
   0.4913829270400850E+00
   0.3894726836890058E+00
   0.3711844399314070E+00
   0.5592878931079271E+00
   0.5784848378518291E+00
   0.4227804377643535E+00
   0.5854876613007984E+00
   0.4393465126488370E+00
   0.5443809298429669E+00
   0.5169017588681989E+00
   0.5115829927587559E+00
   0.5046291181083684E+00
   0.5758006058918659E+00
   0.5884484890205316E+00
   0.5427316557566567E+00
   0.5687390031666527E+00
   0.5341718551397687E+00
   0.5330412179680654E+00
   0.5585871919573722E+00
   0.5562731355700832E+00
   0.4330681806243677E+00
   0.5315643195228738E+00
   0.5812967124565258E+00
   0.3318898729995061E+00
   0.4786006762738897E+00
   0.5494637381644958E+00
   0.4851061196926669E+00
   0.3009035099971696E+00
   0.5029798725128980E+00
   0.5014733263950925E+00
   0.5126202708071808E+00
   0.5407118625145398E+00
   0.3456736097368517E+00
   0.3422980690068313E+00
   0.3204831628410800E+00
   0.5064090437287748E+00
   0.5121161214814720E+00
   0.5323895710813036E+00
   0.5909228094419197E+00
   0.4690168284869350E+00
   0.3541833525958680E+00
SCALARS temperature double 1
LOOKUP_TABLE default
   0.9999903354419442E+00
   0.9999898689205649E+00
   0.9999894510400693E+00
   0.9999893801902686E+00
   0.9999896650411060E+00
   0.9999903149781376E+00
   0.9999915203668056E+00
   0.9999928468985742E+00
   0.9999935119603565E+00
   0.9999937152598012E+00
   0.9999935703212826E+00
   0.9999931671422051E+00
   0.9999927536104493E+00
   0.9999922023317354E+00
   0.9999914538476085E+00
   0.9999907972221939E+00
   0.9999904103872141E+00
   0.9999934212757091E+00
   0.9999896369470587E+00
   0.9999925510879653E+00
   0.9999916801684354E+00
   0.9999909561694326E+00
   0.9999906199977006E+00
   0.9999931823322323E+00
   0.9999921699858076E+00
   0.9999927192043122E+00
   0.9999935059120919E+00
   0.9999905262668654E+00
   0.9999907171386885E+00
   0.9999898385468370E+00
   0.9999896592085086E+00
   0.9999923505495052E+00
   0.9999912666267794E+00
   0.9841041071060891E+00
   0.1003682999983998E+01
   0.1004433053458641E+01
   0.1000477080796083E+01
   0.1000665762355459E+01
   0.1001268146092537E+01
   0.1002152655857852E+01
   0.1001793534547652E+01
   0.1003556562795912E+01
   0.1008263027046867E+01
   0.1029827309347704E+01
   0.9886517077855718E+00
   0.1001382084548938E+01
   0.9815418208109842E+00
   0.1001923986838667E+01
   0.1002521225785721E+01
   0.1002988185910657E+01
   0.1008348715386544E+01
   0.1000820723079400E+01
   0.1001184602739038E+01
   0.1001995274948803E+01
   0.1000566101408257E+01
   0.9904273401599606E+00
   0.9903551270688242E+00
   0.9824694956149063E+00
   0.9887739590654971E+00
   0.9943626171121479E+00
   0.9997690411944421E+00
   0.1000504390234352E+01
   0.1000621968463506E+01
   0.1000829046622080E+01
   0.1000454696154764E+01
   0.1004852992884451E+01
   0.1002895677755085E+01
   0.9850916095724521E+00
   0.9764440656429180E+00
   0.1003879552495329E+01
   0.1003053353777527E+01
   0.9735158283848740E+00
   0.9715373647723622E+00
   0.9590424091687564E+00
   0.9912160311558307E+00
   0.1001285661326475E+01
   0.1003832283692312E+01
   0.1007638000393390E+01
   0.1005965003899548E+01
   0.1006629021486246E+01
   0.1003140701339287E+01
   0.9944290333582548E+00
   0.1003551346990671E+01
   0.9972161049224189E+00
   0.1005284557617575E+01
   0.1001688646753434E+01
   0.1001187487881274E+01
   0.1001341893380822E+01
   0.1001761283510026E+01
   0.1001926613549071E+01
   0.1001099882025656E+01
   0.1000587722603056E+01
   0.1000253737115933E+01
   0.1001798823401195E+01
   0.1001783504316859E+01
   0.1000008882343447E+01
   0.1000222846891846E+01
   0.1000235234197714E+01
   0.1000724341475849E+01
   0.1000988500557081E+01
   0.1001326510613484E+01
   0.1001746391750218E+01
   0.1001637483031527E+01
   0.1001643734432242E+01
   0.1001123623622594E+01
   0.1001526509550428E+01
   0.1001330480873259E+01
   0.1000962730846559E+01
   0.1040431874235100E+01
   0.1009767884549366E+01
   0.1004053696228779E+01
   0.1002443997740152E+01
   0.1032396916668705E+01
   0.1042471445190920E+01
   0.1003033932889598E+01
   0.1002349742243341E+01
   0.1002603077749414E+01
   0.1003005718453321E+01
   0.1006176282591543E+01
   0.1038911242721211E+01
   0.1027028486645175E+01
   0.1016572312524887E+01
   0.1025206009527876E+01
   0.1006055628645845E+01
   0.1011901676127853E+01
   0.1012529092191372E+01
   0.1004595612672385E+01
   0.9844111840563375E+00
   0.1001215722601364E+01
   0.9846891317483676E+00
   0.1002545081162788E+01
   0.1003500238250133E+01
   0.1003265410743760E+01
   0.1010932522196300E+01
   0.1000580890629382E+01
   0.9998551821576279E+00
   0.1000556394492429E+01
   0.1000456016748769E+01
   0.9898388396963075E+00
   0.9900584060845675E+00
   0.9855248386894121E+00
   0.9895391014648648E+00
   0.9917982597172333E+00
   0.9978967521710498E+00
   0.1000400665098202E+01
   0.1002928488754824E+01
   0.1005009240602285E+01
   0.1002279220189607E+01
   0.1013233438491736E+01
   0.1006635293626022E+01
   0.9925739088452750E+00
   0.1003435433866048E+01
   0.1001788548303900E+01
   0.1003349964558429E+01
   0.1001319118654576E+01
   0.9637831601817598E+00
   0.1001225521032244E+01
   0.1000902908696896E+01
   0.9928715321909369E+00
   0.9989547674349364E+00
   0.1001501152223989E+01
   0.9978124306319042E+00
   0.1000980367577530E+01
   0.1001573690667030E+01
   0.1001190440114208E+01
   0.1000788259793306E+01
   0.1000698707745251E+01
   0.1001334969412603E+01
   0.1010421100387482E+01
   0.1004072317823486E+01
   0.9935535173427383E+00
   0.1001859735875068E+01
   0.1006698329130213E+01
   0.9867961148559892E+00
   0.9881139509642987E+00
   0.9963581812076541E+00
   0.9943136310957997E+00
   0.9875207630284852E+00
   0.9926772818487604E+00
   0.9669777728248600E+00
   0.1017799936473287E+01
   0.9830460560490042E+00
   0.1001477051598621E+01
   0.1001159311543601E+01
   0.9989604763481043E+00
   0.9976211437751148E+00
   0.9864412373254596E+00
   0.9980017420843139E+00
   0.1003591443287340E+01
   0.1002874922721030E+01
   0.9988423948732168E+00
   0.9841137479587450E+00
   0.9789346932716477E+00
   0.9848203264474009E+00
   0.9942455071203828E+00
   0.9999509607358992E+00
   0.9900002013672591E+00
   0.9860936525722585E+00
   0.9832199553102068E+00
   0.9981606462560990E+00
   0.1001438729640102E+01
   0.1001055193268220E+01
   0.1001120204329873E+01
   0.1002862206389264E+01
   0.9892634071046780E+00
   0.9869749857591829E+00
   0.9918320399207642E+00
   0.1000754920930170E+01
   0.1000915434571680E+01
   0.1002438690650330E+01
   0.9922711175082857E+00
   0.9866562387926614E+00
   0.9943602880204373E+00
SCALARS lambda1 double 1
LOOKUP_TABLE default
   0.5887431580496327E-03
   0.4116416075093808E-03
   0.1751702580535273E-03
  -0.2211338334683378E-03
  -0.3805437771240906E-03
  -0.3554894032706554E-03
  -0.5130851284827003E-03
  -0.3341049628909339E-03
  -0.3482607235813794E-03
  -0.3020167152053732E-03
  -0.3204705134642301E-03
   0.4268598679143317E-03
   0.7090609393688884E-03
   0.3906298574473958E-03
   0.6353631532931955E-03
   0.7818338722164539E-03
   0.4812979900149817E-03
  -0.3239595417150649E-03
  -0.3188150713592533E-03
   0.3572174008680448E-03
   0.2840129960579724E-03
   0.4858632001306997E-03
   0.2626136060584121E-03
  -0.4796079196186777E-04
  -0.3810377909172561E-03
  -0.4763112958962907E-04
  -0.1040200295378559E-03
  -0.1328409001143253E-03
  -0.3852230114385034E-03
   0.2379949157140334E-03
   0.5590804174440404E-04
   0.2500614857360492E-03
   0.1178313046377965E-03
  -0.1298752361751881E-02
  -0.6507436111105281E-03
  -0.4517445052987429E-03
  -0.4275846197771104E-03
  -0.1908651983979352E-02
  -0.3423541221644123E-02
  -0.3636472694671385E-02
  -0.4394890178961942E-02
  -0.1465818564563908E-02
  -0.1505582316475316E-03
   0.3362263343256258E-02
   0.4485581283451962E-02
  -0.3414632427790449E-03
   0.1639300096701737E-02
  -0.1213065869100233E-02
  -0.7164007313240538E-03
  -0.6434784144814486E-03
   0.1283363457994424E-03
  -0.4780502093236651E-03
  -0.5339017524047663E-03
  -0.2968897691020331E-03
  -0.5549442931497223E-03
  -0.7213830069191561E-03
  -0.8407619719809291E-03
   0.6679700643275479E-02
   0.7295390115491118E-02
   0.1145690441038033E-02
  -0.7266549161444402E-03
  -0.4246907844552113E-03
  -0.4044618703481400E-03
  -0.5018775056411005E-03
  -0.5245151071719497E-03
  -0.4451377111653444E-03
  -0.6691031156685828E-03
  -0.1024868484201015E-02
  -0.1644449466108954E-02
  -0.3625041917244090E-03
  -0.3600500709408881E-03
  -0.3701892435162084E-03
  -0.6912209746488234E-03
  -0.4661379389144190E-03
  -0.9924438641199544E-03
  -0.7710792920858592E-03
  -0.3219865903070497E-03
  -0.5699336290190219E-03
  -0.5592388923693656E-03
  -0.4723042003691087E-03
  -0.2901424374563734E-03
  -0.8728745114909128E-03
  -0.5722786385566629E-03
  -0.7804007411505286E-03
  -0.7162282288408043E-03
  -0.4650677159512001E-02
  -0.5169511843024103E-02
  -0.4734982960233702E-02
  -0.4529560201738495E-02
  -0.4302958785453586E-02
  -0.3817069820545619E-02
  -0.1992456301229521E-02
  -0.1319834060537903E-02
  -0.4150290430639332E-02
  -0.3493987753578389E-02
  -0.1296720884677273E-02
  -0.1655005867436512E-02
  -0.1629457865191858E-02
  -0.2741931469028435E-02
  -0.2922577553535901E-02
  -0.4933482813202710E-02
  -0.4774035753280789E-02
  -0.4525862580200731E-02
  -0.4215658186733921E-02
  -0.2842908217582679E-02
  -0.3532328017297891E-02
  -0.3846508805176626E-02
  -0.3101463264366578E-02
   0.5019786481644414E-02
  -0.6465375254329865E-03
  -0.1248133857238294E-02
  -0.1559099397339400E-02
   0.8430198977567881E-02
   0.5603448805748177E-02
  -0.1221646331248776E-02
  -0.1449000336648374E-02
  -0.1979738351267840E-02
  -0.1016791252935107E-02
  -0.8150610857871333E-03
   0.7985936928001886E-02
   0.1123051257488045E-02
   0.3836891871678096E-03