title="tecplot geometry and solution file"
variables = x y z mach temperature lambda1 lambda2 lambda3 lambda4 lambda5
zone t="boundary 1 bc-1", solutiontime= 0.3000000E+02, strandid=1001, i=32, j=46, f=feblock
  0.000000000000E+00  0.000000000000E+00  0.000000000000E+00  0.000000000000E+00  0.000000000000E+00  0.000000000000E+00  0.000000000000E+00
  0.000000000000E+00  0.000000000000E+00  0.000000000000E+00  0.000000000000E+00  0.000000000000E+00  0.000000000000E+00  0.000000000000E+00
  0.000000000000E+00  0.000000000000E+00  0.000000000000E+00  0.000000000000E+00  0.000000000000E+00  0.000000000000E+00  0.000000000000E+00
  0.000000000000E+00  0.000000000000E+00  0.000000000000E+00  0.000000000000E+00  0.000000000000E+00  0.000000000000E+00  0.000000000000E+00
  0.000000000000E+00  0.000000000000E+00  0.000000000000E+00  0.000000000000E+00
  0.250000000000E+01  0.250000000000E+01  0.125000000000E+01  0.146289271009E+01  0.157686156160E+01  0.308372018325E+00  0.000000000000E+00
 -0.125000000000E+01 -0.600232012419E+00  0.250000000000E+01  0.477386199275E+00  0.742988685424E+00 -0.739814786992E+00  0.177790177481E+01
  0.155830813274E+01  0.250000000000E+01 -0.250000000000E+01 -0.154800130438E+01 -0.487811078581E+00  0.250000000000E+01  0.627766083140E+00
 -0.345533899378E+00 -0.178862290564E+01 -0.158811787973E+01  0.125000000000E+01 -0.250000000000E+01 -0.144524380962E+01  0.000000000000E+00
 -0.125000000000E+01 -0.250000000000E+01 -0.250000000000E+01 -0.250000000000E+01
  0.000000000000E+00  0.125000000000E+01  0.000000000000E+00  0.103724302461E+01  0.219251206392E+01  0.922061490191E+00  0.000000000000E+00
  0.000000000000E+00  0.715990576545E+00  0.250000000000E+01  0.202479342020E+01  0.324151231464E+01  0.175434191980E+01  0.310152362409E+01
  0.404200324774E+01  0.375000000000E+01  0.000000000000E+00  0.930412228790E+00  0.299062775774E+01  0.500000000000E+01  0.429310310915E+01
  0.409252726285E+01  0.187029682677E+01  0.284428995242E+01  0.500000000000E+01  0.125000000000E+01  0.394624082883E+01  0.500000000000E+01
  0.500000000000E+01  0.250000000000E+01  0.375000000000E+01  0.500000000000E+01
  0.000000000000E+00  0.441238348384E+00  0.000000000000E+00  0.475214987021E+00  0.460123708856E+00  0.468827815405E+00  0.000000000000E+00
  0.000000000000E+00  0.402302516798E+00  0.469814974359E+00  0.464411128942E+00  0.478714034184E+00  0.489298241651E+00  0.483068557888E+00
  0.487930073118E+00  0.488961654628E+00  0.000000000000E+00  0.464775721414E+00  0.473795651891E+00  0.495346592024E+00  0.490266103446E+00
  0.486286083902E+00  0.445717618051E+00  0.464382274634E+00  0.496127394917E+00  0.443624103833E+00  0.486964461957E+00  0.497246279768E+00
  0.496059270892E+00  0.467732355362E+00  0.488212087362E+00  0.495098264817E+00
  0.999990295028E+00  0.102982719499E+01  0.999990757903E+00  0.104247294232E+01  0.101190080524E+01  0.102520618293E+01  0.999991416700E+00
  0.999992168096E+00  0.103891223624E+01  0.100826277309E+01  0.101252833877E+01  0.100300548289E+01  0.102702865700E+01  0.100605563290E+01
  0.100244400478E+01  0.100355660048E+01  0.999992721792E+00  0.103239739214E+01  0.100459524090E+01  0.100179336279E+01  0.100260305842E+01
  0.100234966417E+01  0.101657153079E+01  0.100617544692E+01  0.100168844809E+01  0.104043292670E+01  0.100303376377E+01  0.100118726928E+01
  0.100134171022E+01  0.100976788415E+01  0.100405369352E+01  0.100176112495E+01
  0.525477010882E-04 -0.357143249849E-03 -0.277771669017E-04 -0.110200870187E-02 -0.116117248422E-03 -0.172282856841E-02 -0.568748115014E-04
 -0.576392787863E-04 -0.279594087727E-02  0.602122762909E-04 -0.696619920957E-03  0.336176358197E-03 -0.975005582532E-03  0.173717972297E-03
  0.359492825803E-03  0.342854194408E-03 -0.919590000140E-04 -0.129531591293E-02  0.274024461997E-03  0.938310781385E-03  0.485931850210E-03
  0.436398188419E-03 -0.296858815714E-03  0.250857715074E-03  0.996831259324E-03 -0.109970479356E-02  0.333098737322E-03  0.115976579798E-02
  0.106427485698E-02  0.186508050506E-03  0.354476730719E-03  0.101806771635E-02
 -0.421686053477E-05 -0.340531264694E-04 -0.264726188964E-04 -0.145535371527E-03  0.566945013727E-05 -0.267925824980E-03 -0.332620458659E-04
 -0.417014645686E-04 -0.490096136005E-03  0.350977458898E-04 -0.875138843047E-04  0.713189637468E-04 -0.127213112598E-03  0.466922573621E-04
  0.700917534227E-04  0.700527278579E-04 -0.268674124680E-04 -0.191582202675E-03  0.588115178677E-04  0.195109847099E-03  0.967278568299E-04
  0.862141772155E-04 -0.134805802865E-04  0.567070454407E-04  0.209785232569E-03 -0.128752139349E-03  0.689285742583E-04  0.243351664315E-03
  0.221786351142E-03  0.529501859837E-04  0.755618995845E-04  0.211002112906E-03
  0.100724642818E-04  0.980040124855E-07  0.322973750308E-04  0.358599974533E-04  0.336380397001E-05 -0.946580807085E-05 -0.740573081238E-05
  0.150109299020E-04 -0.399329904162E-04  0.694688502485E-07  0.999342967248E-05 -0.149133180890E-04 -0.111423851639E-04 -0.101956798591E-04
 -0.119692648272E-04 -0.287700682322E-06  0.769507028543E-06  0.427040852174E-04 -0.863356680027E-05  0.213230899287E-06 -0.155982141024E-04
 -0.114765616883E-04 -0.193484808281E-04 -0.394517399052E-05 -0.115408866429E-04 -0.877104027308E-06 -0.220165530507E-05 -0.845795994459E-05
 -0.468284776151E-06  0.106358299694E-05  0.106276261028E-05  0.319060391307E-06
  0.123475326133E-04  0.172152106611E-04  0.235055455389E-04  0.107674785903E-04  0.262490985088E-06  0.693477890690E-04  0.102502248715E-04
  0.364772804378E-04 -0.109509695103E-04  0.377444004656E-05 -0.321556893293E-04 -0.396903566804E-04 -0.500945325403E-04 -0.160977410835E-04
 -0.165761879937E-04 -0.113379939451E-04  0.177192534856E-04  0.702813740511E-04 -0.483019458126E-04 -0.110467406026E-04 -0.259509641990E-04
 -0.381291032468E-04 -0.236964745595E-04 -0.318831183256E-04 -0.115615712192E-04  0.123891955756E-04 -0.334958758976E-04 -0.118378827164E-04
 -0.142456659156E-04 -0.322482835854E-04 -0.319352563309E-04 -0.126179920261E-04
 -0.373078879225E-04  0.150857303625E-03  0.507309595105E-04  0.453987484526E-03  0.518664494969E-04  0.688522525858E-03  0.833618609796E-04
  0.505992988363E-04  0.118633914812E-02 -0.213370262623E-04  0.288685118071E-03 -0.136124916523E-03  0.396803143816E-03 -0.692850335959E-04
 -0.145403135755E-03 -0.138386385526E-03  0.750762516419E-04  0.523316953086E-03 -0.107296195042E-03 -0.389820725145E-03 -0.198691681231E-03
 -0.177632068206E-03  0.121381550140E-03 -0.974130764091E-04 -0.414937310453E-03  0.444989209571E-03 -0.134620653882E-03 -0.483968649997E-03
 -0.443042972115E-03 -0.745685632121E-04 -0.144662477977E-03 -0.422952467932E-03
        12        19        11        11
        11         5        12        12
        10        14         5         5
        19        13        11        11
        19        24        13        13
        30        23        24        24
        19        12        22        22
        28        22        21        21
        11        13         6         6
         7         6         9         9
        15        12        14        14
        18        13        23        23
        15        25        21        21
        27        19        22        22
        18         8         9         9
        27        31        24        24
         4        11         6         6
         5        14        12        12
         4         2         5         5
        21        12        15        15
        14        16        15        15
        24        19        27        27
        22        29        27        27
        23        26        18        18
        17         8        18        18
         5        11         4         4
         6         3         4         4
        26        23        30        30
         5         2        10        10
        16        14        10        10
         3         6         7         7
        21        25        28        28
        29        22        28        28
         6        13         9         9
         2         4         1         1
        31        27        32        32
        25        15        20        20
        24        23        13        13
         8         7         9         9
        13        18         9         9
        31        30        24        24
        12        21        22        22
        29        32        27        27
         3         1         4         4
        26        17        18        18
        16        20        15        15
zone t="boundary 2 bc-2", solutiontime= 0.3000000E+02, strandid=1002, i=33, j=48, f=feblock
  0.500000000000E+01  0.375000000000E+01  0.250000000000E+01  0.288078410721E+01  0.125000000000E+01  0.190974100652E+01  0.326683758169E+01
  0.201431602454E+01  0.000000000000E+00  0.963108083381E+00  0.500000000000E+01  0.403552511878E+01  0.423153924130E+01  0.500000000000E+01
  0.385533350601E+01  0.500000000000E+01  0.398173246726E+01  0.315249557942E+01  0.267000324704E+01  0.154774304040E+01  0.218329375016E+01
  0.893127759452E+00  0.000000000000E+00  0.698517061619E+00  0.964171764089E+00  0.310324758057E+01  0.000000000000E+00  0.000000000000E+00
  0.125000000000E+01  0.500000000000E+01  0.375000000000E+01  0.250000000000E+01  0.000000000000E+00
 -0.250000000000E+01 -0.250000000000E+01 -0.250000000000E+01 -0.250000000000E+01 -0.250000000000E+01 -0.250000000000E+01 -0.250000000000E+01
 -0.250000000000E+01 -0.250000000000E+01 -0.250000000000E+01 -0.250000000000E+01 -0.250000000000E+01 -0.250000000000E+01 -0.250000000000E+01
 -0.250000000000E+01 -0.250000000000E+01 -0.250000000000E+01 -0.250000000000E+01 -0.250000000000E+01 -0.250000000000E+01 -0.250000000000E+01
 -0.250000000000E+01 -0.250000000000E+01 -0.250000000000E+01 -0.250000000000E+01 -0.250000000000E+01 -0.250000000000E+01 -0.250000000000E+01
 -0.250000000000E+01 -0.250000000000E+01 -0.250000000000E+01 -0.250000000000E+01 -0.250000000000E+01
  0.000000000000E+00  0.000000000000E+00  0.000000000000E+00  0.904659890645E+00  0.000000000000E+00  0.717002441913E+00  0.188609243358E+01
  0.176246431481E+01  0.000000000000E+00  0.961328577125E+00  0.125000000000E+01  0.101201586758E+01  0.191586535653E+01  0.250000000000E+01
  0.293121848150E+01  0.375000000000E+01  0.406975391361E+01  0.363585050272E+01  0.285047954584E+01  0.292817774674E+01  0.395907379566E+01
  0.205246550326E+01  0.125000000000E+01  0.306828197606E+01  0.397245519226E+01  0.433168271247E+01  0.250000000000E+01  0.375000000000E+01
  0.500000000000E+01  0.500000000000E+01  0.500000000000E+01  0.500000000000E+01  0.500000000000E+01
  0.000000000000E+00  0.000000000000E+00  0.000000000000E+00  0.380991906500E+00  0.000000000000E+00  0.343629824950E+00  0.585286157424E+00
  0.579373264282E+00  0.000000000000E+00  0.501056069140E+00  0.508460362676E+00  0.435373026572E+00  0.572640041190E+00  0.537002098944E+00
  0.568922553871E+00  0.514994090651E+00  0.508247257160E+00  0.527252853130E+00  0.567446661127E+00  0.531657143909E+00  0.505981016593E+00
  0.520795579399E+00  0.443624103833E+00  0.490663730453E+00  0.492155873749E+00  0.501390784676E+00  0.467732355362E+00  0.488212087362E+00
  0.490002767114E+00  0.491352304715E+00  0.486075475228E+00  0.490036479234E+00  0.495098264817E+00
  0.999993487379E+00  0.999993690057E+00  0.999993543115E+00  0.989539055875E+00  0.999993137282E+00  0.985524707174E+00  0.989838908967E+00
  0.991798516580E+00  0.999992721792E+00  0.984411112416E+00  0.985091906406E+00  0.984689080896E+00  0.990058464829E+00  0.100289621837E+01
  0.999855369243E+00  0.100485306649E+01  0.100121554699E+01  0.100055642931E+01  0.997896793475E+00  0.100350029570E+01  0.100058068723E+01
  0.101093276247E+01  0.104043292670E+01  0.100326475367E+01  0.100254498742E+01  0.100045587387E+01  0.100976788415E+01  0.100405369352E+01
  0.100192656835E+01  0.100045434508E+01  0.100058774183E+01  0.100109993754E+01  0.100176112495E+01
  0.145244560586E-03  0.484755334629E-04  0.506859313370E-05 -0.863462242356E-03 -0.221346128194E-03 -0.538032933416E-02  0.205430500047E-03
 -0.176807485892E-03 -0.919590000140E-04 -0.177652413603E-02  0.331505166815E-03  0.354043653693E-03  0.236279650179E-03  0.209440472982E-03
  0.139768570243E-03  0.123087449045E-03  0.890638389854E-04  0.993283107083E-04  0.204972669269E-03  0.296654385577E-03  0.128947314379E-03
 -0.106072579461E-03 -0.109970479356E-02  0.213535478429E-03  0.251382808993E-03  0.149357577594E-03  0.186508050506E-03  0.354476730719E-03
  0.949744694419E-03  0.140612516574E-03  0.488748748388E-03  0.876463164571E-03  0.101806771635E-02
 -0.367628739254E-04  0.273559809707E-04 -0.651760966195E-05 -0.298523845765E-04  0.169497698952E-04 -0.623238179384E-03  0.627895010743E-04
  0.993206357476E-04 -0.268674124680E-04 -0.892684587433E-04 -0.763229342361E-04  0.607171040041E-04 -0.146544632371E-04 -0.529153950079E-04
 -0.137742904490E-04 -0.289848529510E-04 -0.247728868493E-04 -0.110328819010E-04  0.332676791068E-04  0.786448003283E-04  0.648695345643E-05
  0.781323701073E-04 -0.128752139349E-03  0.504281426865E-04  0.416648981988E-04 -0.340865697523E-05  0.529501859837E-04  0.755618995845E-04
  0.180161616391E-03 -0.550025799755E-05  0.538212497095E-04  0.146668640027E-03  0.211002112906E-03
  0.660955161634E-05  0.156209491174E-06 -0.177283969017E-04 -0.303058862576E-05 -0.156180494310E-04 -0.747584039552E-04  0.930808805378E-05
  0.256862963291E-06  0.769507028543E-06 -0.136325421856E-04  0.662228994232E-05  0.265590198340E-04 -0.127848335779E-06 -0.524044905900E-06
 -0.166618213285E-06  0.817576222698E-06  0.538213766189E-06  0.504516703249E-06 -0.183608476771E-05 -0.368429515720E-05  0.128809322984E-05
  0.354528637023E-06 -0.877104027308E-06  0.214429469688E-06  0.909244423896E-06  0.532367454421E-06  0.106358299694E-05  0.106276261028E-05
  0.418965905142E-06  0.279298103782E-06 -0.136529203801E-06 -0.782107477309E-07  0.319060391307E-06
  0.115698066487E-04  0.131226333194E-04  0.162908047953E-04 -0.490136181250E-04  0.435142711803E-04 -0.135671487595E-04 -0.100280471728E-03
 -0.102792949653E-03  0.177192534856E-04 -0.105612208070E-04 -0.254752459269E-04 -0.901751103020E-04 -0.429457241446E-04 -0.177831321190E-04
 -0.330188911162E-04 -0.118751087970E-04 -0.272252664401E-04 -0.343406654680E-04 -0.447514963253E-04 -0.282848301797E-04 -0.343762807757E-04
 -0.424382698897E-04  0.123891955756E-04 -0.265623285661E-04 -0.256577870094E-04 -0.329979185837E-04 -0.322482835854E-04 -0.319352563309E-04
 -0.187422118571E-04 -0.149650421581E-04 -0.287404830743E-04 -0.280016625115E-04 -0.126179920261E-04
 -0.392136770410E-04 -0.118537470165E-03 -0.137668841715E-03  0.352168163187E-03 -0.118009167628E-03  0.228653571416E-02 -0.796805744523E-04
  0.424952824393E-04  0.750762516419E-04  0.679658478301E-03 -0.710718865282E-04 -0.125911505288E-03 -0.657656825769E-04 -0.404096925628E-04
 -0.343377255618E-04 -0.247971077533E-04 -0.156686315037E-04 -0.240211008792E-04 -0.734753851123E-04 -0.123101795842E-03 -0.413395533512E-04
  0.246233546407E-04  0.444989209571E-03 -0.839049773414E-04 -0.976605295138E-04 -0.447515487901E-04 -0.745685632121E-04 -0.144662477977E-03
 -0.388688670409E-03 -0.431517510256E-04 -0.184830620949E-03 -0.351493953963E-03 -0.422952467932E-03
        15         7        19        19
         8        20        19        19
        18        19        21        21
         7         4         8         8
         3         6         4         4
        19         7         8         8
        19        18        15        15
        14        13        15        15
         8        22        20        20
        27        24        22        22
        19        20        21        21
        32        26        21        21
        17        18        26        26
        17        16        15        15
        25        29        21        21
        12         7        13        13
        10         8         6         6
        25        20        24        24
         4         6         8         8
        12         2         4         4
        10        23        22        22
        26        31        17        17
        30        16        17        17
         4         7        12        12
        13        11        12        12
        21        20        25        25
        24        28        25        25
        22         8        10        10
         6         5        10        10
        31        26        32        32
         4         2         3         3
         5         6         3         3
        11        13        14        14
        22        23        27        27
        28        24        27        27
        15        13         7         7
         2        12         1         1
        29        25        33        33
        23        10         9         9
        21        26        18        18
        16        14        15        15
        18        17        15        15
        29        32        21        21
        22        24        20        20
        28        33        25        25
        11         1        12        12
        31        30        17        17
         5         9        10        10
zone t="boundary 3 bc-3", solutiontime= 0.3000000E+02, strandid=1003, i=33, j=48, f=feblock
  0.375000000000E+01  0.250000000000E+01  0.500000000000E+01  0.403552511878E+01  0.288078410721E+01  0.125000000000E+01  0.190974100652E+01
  0.500000000000E+01  0.326683758169E+01  0.423153924130E+01  0.201431602454E+01  0.000000000000E+00  0.963108083381E+00  0.500000000000E+01
  0.267000324704E+01  0.385533350601E+01  0.893127759452E+00  0.154774304040E+01  0.000000000000E+00  0.500000000000E+01  0.315249557942E+01
  0.218329375016E+01  0.398173246726E+01  0.000000000000E+00  0.698517061619E+00  0.964171764089E+00  0.125000000000E+01  0.000000000000E+00
  0.500000000000E+01  0.310324758057E+01  0.250000000000E+01  0.375000000000E+01  0.000000000000E+00
  0.250000000000E+01  0.250000000000E+01  0.250000000000E+01  0.250000000000E+01  0.250000000000E+01  0.250000000000E+01  0.250000000000E+01
  0.250000000000E+01  0.250000000000E+01  0.250000000000E+01  0.250000000000E+01  0.250000000000E+01  0.250000000000E+01  0.250000000000E+01
  0.250000000000E+01  0.250000000000E+01  0.250000000000E+01  0.250000000000E+01  0.250000000000E+01  0.250000000000E+01  0.250000000000E+01
  0.250000000000E+01  0.250000000000E+01  0.250000000000E+01  0.250000000000E+01  0.250000000000E+01  0.250000000000E+01  0.250000000000E+01
  0.250000000000E+01  0.250000000000E+01  0.250000000000E+01  0.250000000000E+01  0.250000000000E+01
  0.000000000000E+00  0.000000000000E+00  0.000000000000E+00  0.101201586758E+01  0.904659890645E+00  0.000000000000E+00  0.717002441913E+00
  0.125000000000E+01  0.188609243358E+01  0.191586535653E+01  0.176246431481E+01  0.000000000000E+00  0.961328577125E+00  0.250000000000E+01
  0.285047954584E+01  0.293121848150E+01  0.205246550326E+01  0.292817774674E+01  0.125000000000E+01  0.375000000000E+01  0.363585050272E+01
  0.395907379566E+01  0.406975391361E+01  0.250000000000E+01  0.306828197606E+01  0.397245519226E+01  0.500000000000E+01  0.375000000000E+01
  0.500000000000E+01  0.433168271247E+01  0.500000000000E+01  0.500000000000E+01  0.500000000000E+01
  0.000000000000E+00  0.000000000000E+00  0.000000000000E+00  0.443767745459E+00  0.402286944574E+00  0.000000000000E+00  0.377550369545E+00
  0.509232128688E+00  0.575832179754E+00  0.573707405285E+00  0.562554064412E+00  0.000000000000E+00  0.490563299840E+00  0.534527096543E+00
  0.556586982170E+00  0.564391577749E+00  0.522730517385E+00  0.522052000170E+00  0.441238348384E+00  0.517182331791E+00  0.524228630763E+00
  0.503687457534E+00  0.509488571178E+00  0.469814974359E+00  0.495614442414E+00  0.494483780212E+00  0.488562428343E+00  0.488961654628E+00
  0.492980744788E+00  0.499005552222E+00  0.486460936507E+00  0.484596927548E+00  0.495346592024E+00
  0.999989339439E+00  0.999989408764E+00  0.999989626853E+00  0.981541895460E+00  0.988773990194E+00  0.999989827144E+00  0.982469462434E+00
  0.984104309047E+00  0.990427545862E+00  0.990355285694E+00  0.994362997073E+00  0.999990295028E+00  0.988652071037E+00  0.100368369414E+01
  0.999769197113E+00  0.100118501219E+01  0.100834885320E+01  0.100252111043E+01  0.102982719499E+01  0.100443319461E+01  0.100199536635E+01
  0.100082056599E+01  0.100138192342E+01  0.100826277309E+01  0.100298787130E+01  0.100192389555E+01  0.100215267510E+01  0.100355660048E+01
  0.100047670023E+01  0.100056591053E+01  0.100126820231E+01  0.100066573360E+01  0.100179336279E+01
 -0.667513500567E-04 -0.175101827819E-03  0.143553007278E-03 -0.231455163986E-02 -0.194950031730E-02 -0.319437014503E-05  0.207322907994E-03
  0.596059442140E-03 -0.923592781248E-04  0.316471539633E-03 -0.482359588844E-03  0.525477010882E-04 -0.296389615741E-04  0.189442297231E-03
  0.185964707338E-03  0.158924110682E-03 -0.236051508635E-04  0.205863887233E-03 -0.357143249849E-03  0.115424393188E-03  0.851768220771E-04
  0.115506964401E-03  0.849503178180E-04  0.602122762909E-04  0.181230198721E-03  0.286320018755E-03  0.746878478396E-03  0.342854194408E-03
  0.108905839329E-03  0.120887205910E-03  0.733039146133E-03  0.428603934571E-03  0.938310781385E-03
  0.476745833949E-04  0.233498902947E-04 -0.269719116011E-04 -0.319439453348E-03  0.343230563146E-04 -0.323400469434E-04  0.302652932999E-03
 -0.546552408734E-04  0.494382606001E-04  0.886903261682E-05  0.100139162009E-03 -0.421686053477E-05  0.463208324593E-04 -0.507061939729E-04
  0.478485323955E-04  0.691676536808E-05  0.765773078064E-04  0.647767416349E-04 -0.340531264694E-04 -0.286539362983E-04 -0.232243686755E-05
  0.118227316307E-04 -0.185042299988E-04  0.350977458898E-04  0.600111658694E-04  0.491557388122E-04  0.139804105722E-03  0.700527278579E-04
 -0.839918740246E-05 -0.703316200801E-07  0.122433609350E-03  0.485128863007E-04  0.195109847099E-03
  0.273244534470E-05  0.763317002406E-05 -0.243741061673E-05  0.139781734482E-04 -0.350397047446E-04  0.113404176561E-04 -0.298547758489E-04
  0.597233838584E-07  0.529180584147E-05 -0.114868942174E-05  0.778503392527E-05  0.100724642818E-04  0.416221552276E-05 -0.307267166790E-05
  0.135654117942E-05 -0.613431498043E-06 -0.625950138957E-05  0.170956115241E-05  0.980040124855E-07 -0.115027453593E-05  0.412760528505E-06
 -0.248202143107E-05 -0.406666694620E-06  0.694688502485E-07 -0.175742939935E-05 -0.125899419901E-05  0.445774966577E-07 -0.287700682322E-06
 -0.114796219452E-06 -0.150438717717E-06 -0.138696789846E-06  0.239623871215E-06  0.213230899287E-06
  0.257361255513E-04  0.275447212604E-05  0.193752665203E-04 -0.231556304589E-04 -0.711775521866E-05 -0.727941381911E-05  0.687647341442E-04
 -0.384704281021E-04 -0.752607247037E-04 -0.583796603231E-04 -0.121370931319E-04  0.123475326133E-04  0.590490878112E-04 -0.207386949246E-04
 -0.206081339399E-04 -0.361469384089E-04  0.308903143035E-04  0.396567495484E-06  0.172152106611E-04 -0.164474198263E-04 -0.252562360439E-04
 -0.158723851641E-04 -0.265175544823E-04  0.377444004656E-05  0.281497616011E-05 -0.100968507901E-04 -0.165904909310E-04 -0.113379939451E-04
 -0.132254773175E-04 -0.272921411122E-04 -0.239692770728E-04 -0.253712491515E-04 -0.110467406026E-04
 -0.420144794659E-03  0.295641430745E-03 -0.121883707123E-03  0.102687736184E-02  0.744449094815E-03  0.108751303792E-03 -0.204840135263E-03
 -0.176185560625E-03  0.269688540053E-04 -0.106334250128E-03  0.159435214708E-03 -0.373078879225E-04  0.239597969320E-05 -0.345949148301E-04
 -0.752051184933E-04 -0.496615460521E-04 -0.415634323578E-06 -0.869728404624E-04  0.150857303625E-03 -0.222265633677E-04 -0.225944034039E-04
 -0.389220474576E-04 -0.170305367147E-04 -0.213370262623E-04 -0.750011643064E-04 -0.112512275245E-03 -0.304010189452E-03 -0.138386385526E-03
 -0.315336796849E-04 -0.364595691121E-04 -0.293337471923E-03 -0.162200336367E-03 -0.389820725145E-03
        15         9        16        16
        15        18        11        11
        22        15        21        21
        11         5         9         9
         5         7         2         2
        11         9        15        15
        16        21        15        15
        16        10        14        14
        18        17        11        11
        17        25        24        24
        22        18        15        15
        22        30        31        31
        30        21        23        23
        16        20        23        23
        22        27        26        26
        10         9         4         4
         7        11        13        13
        25        18        26        26
        11         7         5         5
         5         1         4         4
        17        19        13        13
        23        32        30        30
        23        20        29        29
         4         9         5         5
         4         8        10        10
        26        18        22        22
        26        28        25        25
        13        11        17        17
        13         6         7         7
        31        30        32        32
         2         1         5         5
         2         7         6         6
        14        10         8         8
        24        19        17        17
        24        25        28        28
         9        10        16        16
         3         4         1         1
        33        26        27        27
        12        13        19        19
        21        30        22        22
        16        14        20        20
        16        23        21        21
        22        31        27        27
        18        25        17        17
        26        33        28        28
         4         3         8         8
        23        29        32        32
        13        12         6         6
zone t="boundary 4 bc-4", solutiontime= 0.3000000E+02, strandid=1004, i=32, j=46, f=feblock
  0.125000000000E+01  0.219251206392E+01  0.103724302461E+01  0.500000000000E+01  0.250000000000E+01  0.375000000000E+01  0.404200324774E+01
  0.500000000000E+01  0.000000000000E+00  0.310152362409E+01  0.202479342020E+01  0.324151231464E+01  0.922061490191E+00  0.000000000000E+00
  0.299062775774E+01  0.394624082883E+01  0.500000000000E+01  0.409252726285E+01  0.500000000000E+01  0.429310310915E+01  0.175434191980E+01
  0.284428995242E+01  0.000000000000E+00  0.000000000000E+00  0.715990576545E+00  0.930412228790E+00  0.125000000000E+01  0.187029682677E+01
  0.500000000000E+01  0.375000000000E+01  0.250000000000E+01  0.000000000000E+00
  0.250000000000E+01  0.157686156160E+01  0.146289271009E+01  0.250000000000E+01  0.250000000000E+01  0.250000000000E+01  0.155830813274E+01
  0.125000000000E+01  0.250000000000E+01  0.177790177481E+01  0.477386199275E+00  0.742988685424E+00  0.308372018325E+00  0.125000000000E+01
 -0.487811078581E+00 -0.144524380962E+01 -0.125000000000E+01 -0.345533899378E+00  0.000000000000E+00  0.627766083140E+00 -0.739814786992E+00
 -0.158811787973E+01  0.000000000000E+00 -0.125000000000E+01 -0.600232012419E+00 -0.154800130438E+01 -0.250000000000E+01 -0.178862290564E+01
 -0.250000000000E+01 -0.250000000000E+01 -0.250000000000E+01 -0.250000000000E+01
  0.500000000000E+01  0.500000000000E+01  0.500000000000E+01  0.500000000000E+01  0.500000000000E+01  0.500000000000E+01  0.500000000000E+01
  0.500000000000E+01  0.500000000000E+01  0.500000000000E+01  0.500000000000E+01  0.500000000000E+01  0.500000000000E+01  0.500000000000E+01
  0.500000000000E+01  0.500000000000E+01  0.500000000000E+01  0.500000000000E+01  0.500000000000E+01  0.500000000000E+01  0.500000000000E+01
  0.500000000000E+01  0.500000000000E+01  0.500000000000E+01  0.500000000000E+01  0.500000000000E+01  0.500000000000E+01  0.500000000000E+01
  0.500000000000E+01  0.500000000000E+01  0.500000000000E+01  0.500000000000E+01
  0.488562428343E+00  0.488873127044E+00  0.490562939264E+00  0.492980744788E+00  0.486460936507E+00  0.484596927548E+00  0.485347896276E+00
  0.494163542317E+00  0.495346592024E+00  0.486528232758E+00  0.487819998460E+00  0.487068916091E+00  0.494045904395E+00  0.496127394917E+00
  0.487612357629E+00  0.483219722850E+00  0.492395510969E+00  0.487214141159E+00  0.494738985333E+00  0.487958525499E+00  0.489677249447E+00
  0.488029107105E+00  0.497246279768E+00  0.496059270892E+00  0.494951052257E+00  0.492800373677E+00  0.490002767114E+00  0.490005124553E+00
  0.491352304715E+00  0.486075475228E+00  0.490036479234E+00  0.495098264817E+00
  0.100215267510E+01  0.100152652958E+01  0.100178347660E+01  0.100047670023E+01  0.100126820231E+01  0.100066573360E+01  0.100025357725E+01
  0.100050391679E+01  0.100179336279E+01  0.100112367258E+01  0.100133045248E+01  0.100072432973E+01  0.100164366725E+01  0.100168844809E+01
  0.100096274503E+01  0.100000874853E+01  0.100082864314E+01  0.100022269190E+01  0.100062146074E+01  0.100023497311E+01  0.100174635719E+01
  0.100098855496E+01  0.100118726928E+01  0.100134171022E+01  0.100132635956E+01  0.100179873777E+01  0.100192656835E+01  0.100163748619E+01
  0.100045434508E+01  0.100058774183E+01  0.100109993754E+01  0.100176112495E+01
  0.746878478396E-03  0.755055476372E-03  0.737595485955E-03  0.108905839329E-03  0.733039146133E-03  0.428603934571E-03  0.305852803696E-03
  0.110485047388E-03  0.938310781385E-03  0.636395475795E-03  0.844097803950E-03  0.623629305500E-03  0.921581893483E-03  0.996831259324E-03
  0.724729630360E-03  0.324380673534E-03  0.138709138192E-03  0.403058443178E-03  0.109584204266E-03  0.385015345150E-03  0.107310484699E-02
  0.698053124531E-03  0.115976579798E-02  0.106427485698E-02  0.108227697669E-02  0.929203267543E-03  0.949744694419E-03  0.102504819873E-02
  0.140612516574E-03  0.488748748388E-03  0.876463164571E-03  0.101806771635E-02