title="tecplot geometry and solution file"
variables = x y z mach temperature lambda1 lambda2 lambda3 lambda4 lambda5
zone t="boundary 1 bc-1", solutiontime= 0.5000000E+02, strandid=1001, i=32, j=46, f=feblock
  0.000000000000E+00  0.000000000000E+00  0.000000000000E+00  0.000000000000E+00  0.000000000000E+00  0.000000000000E+00  0.000000000000E+00
  0.000000000000E+00  0.000000000000E+00  0.000000000000E+00  0.000000000000E+00  0.000000000000E+00  0.000000000000E+00  0.000000000000E+00
  0.000000000000E+00  0.000000000000E+00  0.000000000000E+00  0.000000000000E+00  0.000000000000E+00  0.000000000000E+00  0.000000000000E+00
  0.000000000000E+00  0.000000000000E+00  0.000000000000E+00  0.000000000000E+00  0.000000000000E+00  0.000000000000E+00  0.000000000000E+00
  0.000000000000E+00  0.000000000000E+00  0.000000000000E+00  0.000000000000E+00
  0.250000000000E+01  0.250000000000E+01  0.125000000000E+01  0.146289271009E+01  0.157686156160E+01  0.308372018325E+00  0.000000000000E+00
 -0.125000000000E+01 -0.600232012419E+00  0.250000000000E+01  0.477386199275E+00  0.742988685424E+00 -0.739814786992E+00  0.177790177481E+01
  0.155830813274E+01  0.250000000000E+01 -0.250000000000E+01 -0.154800130438E+01 -0.487811078581E+00  0.250000000000E+01  0.627766083140E+00
 -0.345533899378E+00 -0.178862290564E+01 -0.158811787973E+01  0.125000000000E+01 -0.250000000000E+01 -0.144524380962E+01  0.000000000000E+00
 -0.125000000000E+01 -0.250000000000E+01 -0.250000000000E+01 -0.250000000000E+01
  0.000000000000E+00  0.125000000000E+01  0.000000000000E+00  0.103724302461E+01  0.219251206392E+01  0.922061490191E+00  0.000000000000E+00
  0.000000000000E+00  0.715990576545E+00  0.250000000000E+01  0.202479342020E+01  0.324151231464E+01  0.175434191980E+01  0.310152362409E+01
  0.404200324774E+01  0.375000000000E+01  0.000000000000E+00  0.930412228790E+00  0.299062775774E+01  0.500000000000E+01  0.429310310915E+01
  0.409252726285E+01  0.187029682677E+01  0.284428995242E+01  0.500000000000E+01  0.125000000000E+01  0.394624082883E+01  0.500000000000E+01
  0.500000000000E+01  0.250000000000E+01  0.375000000000E+01  0.500000000000E+01
  0.000000000000E+00  0.441238348384E+00  0.000000000000E+00  0.475214987021E+00  0.460123708856E+00  0.468827815405E+00  0.000000000000E+00
  0.000000000000E+00  0.402302516798E+00  0.469814974359E+00  0.464411128942E+00  0.478714034184E+00  0.489298241651E+00  0.483068557888E+00
  0.487930073118E+00  0.488961654628E+00  0.000000000000E+00  0.464775721414E+00  0.473795651891E+00  0.495346592024E+00  0.490266103446E+00
  0.486286083902E+00  0.445717618051E+00  0.464382274634E+00  0.496127394917E+00  0.443624103833E+00  0.486964461957E+00  0.497246279768E+00
  0.496059270892E+00  0.467732355362E+00  0.488212087362E+00  0.495098264817E+00
  0.999990295028E+00  0.102982719499E+01  0.999990757903E+00  0.104247294232E+01  0.101190080524E+01  0.102520618293E+01  0.999991416700E+00
  0.999992168096E+00  0.103891223624E+01  0.100826277309E+01  0.101252833877E+01  0.100300548289E+01  0.102702865700E+01  0.100605563290E+01
  0.100244400478E+01  0.100355660048E+01  0.999992721792E+00  0.103239739214E+01  0.100459524090E+01  0.100179336279E+01  0.100260305842E+01
  0.100234966417E+01  0.101657153079E+01  0.100617544692E+01  0.100168844809E+01  0.104043292670E+01  0.100303376377E+01  0.100118726928E+01
  0.100134171022E+01  0.100976788415E+01  0.100405369352E+01  0.100176112495E+01
  0.525446000130E-04 -0.357252477307E-03 -0.277628676444E-04 -0.110203453760E-02 -0.116126594379E-03 -0.172269218755E-02 -0.568581858574E-04
 -0.576417200133E-04 -0.279590731578E-02  0.602404399322E-04 -0.696657336722E-03  0.336250016340E-03 -0.975091261204E-03  0.173753288515E-03
  0.359463355319E-03  0.342939084298E-03 -0.919592575901E-04 -0.129539864361E-02  0.274058411272E-03  0.938257639324E-03  0.485841991418E-03
  0.436459605529E-03 -0.296823143962E-03  0.250860957890E-03  0.996880545964E-03 -0.109968105430E-02  0.333098471678E-03  0.115980695021E-02
  0.106421065629E-02  0.186551820751E-03  0.354484239990E-03  0.101807806645E-02
 -0.421662708351E-05 -0.340725948060E-04 -0.264725714003E-04 -0.145541912067E-03  0.566691209543E-05 -0.267907560814E-03 -0.332614227421E-04
 -0.417018210160E-04 -0.490096022244E-03  0.351016902509E-04 -0.875162549672E-04  0.713325876472E-04 -0.127228271193E-03  0.466956133608E-04
  0.700703773043E-04  0.700644861549E-04 -0.268670910160E-04 -0.191597016405E-03  0.588204509844E-04  0.195121428798E-03  0.966950314631E-04
  0.862162081263E-04 -0.134752018115E-04  0.567058708610E-04  0.209812208670E-03 -0.128750039187E-03  0.689208038168E-04  0.243381029748E-03
  0.221780992599E-03  0.529589187067E-04  0.755609211640E-04  0.211011771406E-03
  0.100707687292E-04  0.977761019878E-07  0.322947290934E-04  0.358541264667E-04  0.336564444319E-05 -0.946558583730E-05 -0.740374587787E-05
  0.150123670697E-04 -0.399302889247E-04  0.691554726694E-07  0.999247314713E-05 -0.149087154478E-04 -0.111433971986E-04 -0.101941719622E-04
 -0.119715407611E-04 -0.288192315366E-06  0.769328675091E-06  0.427076277813E-04 -0.863170139662E-05  0.212952468812E-06 -0.155992029680E-04
 -0.114744655653E-04 -0.193474324507E-04 -0.394345854871E-05 -0.115400718767E-04 -0.876999040693E-06 -0.219829483607E-05 -0.846219766955E-05
 -0.473815559062E-06  0.106351577187E-05  0.106290807609E-05  0.319002681327E-06
  0.123476795158E-04  0.172036982945E-04  0.235021478439E-04  0.107565307395E-04  0.253795137861E-06  0.693511690217E-04  0.102480116194E-04
  0.364781113353E-04 -0.109508868872E-04  0.376698252311E-05 -0.321491095203E-04 -0.396894190471E-04 -0.500903470946E-04 -0.160994367357E-04
 -0.165723250745E-04 -0.113277859595E-04  0.177196115568E-04  0.702783364202E-04 -0.483003100744E-04 -0.110510310784E-04 -0.259501504797E-04
 -0.381262778914E-04 -0.236990742599E-04 -0.318816648236E-04 -0.115664421384E-04  0.123871265603E-04 -0.334975155888E-04 -0.118442352325E-04
 -0.142476497206E-04 -0.322493392766E-04 -0.319338609189E-04 -0.126201162170E-04
 -0.373043961391E-04  0.150902523184E-03  0.507158693905E-04  0.453998952871E-03  0.518711598071E-04  0.688467689128E-03  0.833546345494E-04
  0.506023295432E-04  0.118632682506E-02 -0.213483405971E-04  0.288700556844E-03 -0.136155654533E-03  0.396838668059E-03 -0.692986969042E-04
 -0.145387115132E-03 -0.138421804660E-03  0.750760860824E-04  0.523351476419E-03 -0.107310785775E-03 -0.389800936002E-03 -0.198649787724E-03
 -0.177655330804E-03  0.121367124264E-03 -0.974144400439E-04 -0.414959751293E-03  0.444980371783E-03 -0.134618935223E-03 -0.483988539012E-03
 -0.443016932673E-03 -0.745867508617E-04 -0.144665228924E-03 -0.422957306604E-03
        12        19        11        11
        11         5        12        12
        10        14         5         5
        19        13        11        11
        19        24        13        13
        30        23        24        24
        19        12        22        22
        28        22        21        21
        11        13         6         6
         7         6         9         9
        15        12        14        14
        18        13        23        23
        15        25        21        21
        27        19        22        22
        18         8         9         9
        27        31        24        24
         4        11         6         6
         5        14        12        12
         4         2         5         5
        21        12        15        15
        14        16        15        15
        24        19        27        27
        22        29        27        27
        23        26        18        18
        17         8        18        18
         5        11         4         4
         6         3         4         4
        26        23        30        30
         5         2        10        10
        16        14        10        10
         3         6         7         7
        21        25        28        28
        29        22        28        28
         6        13         9         9
         2         4         1         1
        31        27        32        32
        25        15        20        20
        24        23        13        13
         8         7         9         9
        13        18         9         9
        31        30        24        24
        12        21        22        22
        29        32        27        27
         3         1         4         4
        26        17        18        18
        16        20        15        15
zone t="boundary 2 bc-2", solutiontime= 0.5000000E+02, strandid=1002, i=33, j=48, f=feblock
  0.500000000000E+01  0.375000000000E+01  0.250000000000E+01  0.288078410721E+01  0.125000000000E+01  0.190974100652E+01  0.326683758169E+01
  0.201431602454E+01  0.000000000000E+00  0.963108083381E+00  0.500000000000E+01  0.403552511878E+01  0.423153924130E+01  0.500000000000E+01
  0.385533350601E+01  0.500000000000E+01  0.398173246726E+01  0.315249557942E+01  0.267000324704E+01  0.154774304040E+01  0.218329375016E+01
  0.893127759452E+00  0.000000000000E+00  0.698517061619E+00  0.964171764089E+00  0.310324758057E+01  0.000000000000E+00  0.000000000000E+00
  0.125000000000E+01  0.500000000000E+01  0.375000000000E+01  0.250000000000E+01  0.000000000000E+00
 -0.250000000000E+01 -0.250000000000E+01 -0.250000000000E+01 -0.250000000000E+01 -0.250000000000E+01 -0.250000000000E+01 -0.250000000000E+01
 -0.250000000000E+01 -0.250000000000E+01 -0.250000000000E+01 -0.250000000000E+01 -0.250000000000E+01 -0.250000000000E+01 -0.250000000000E+01
 -0.250000000000E+01 -0.250000000000E+01 -0.250000000000E+01 -0.250000000000E+01 -0.250000000000E+01 -0.250000000000E+01 -0.250000000000E+01
 -0.250000000000E+01 -0.250000000000E+01 -0.250000000000E+01 -0.250000000000E+01 -0.250000000000E+01 -0.250000000000E+01 -0.250000000000E+01
 -0.250000000000E+01 -0.250000000000E+01 -0.250000000000E+01 -0.250000000000E+01 -0.250000000000E+01
  0.000000000000E+00  0.000000000000E+00  0.000000000000E+00  0.904659890645E+00  0.000000000000E+00  0.717002441913E+00  0.188609243358E+01
  0.176246431481E+01  0.000000000000E+00  0.961328577125E+00  0.125000000000E+01  0.101201586758E+01  0.191586535653E+01  0.250000000000E+01
  0.293121848150E+01  0.375000000000E+01  0.406975391361E+01  0.363585050272E+01  0.285047954584E+01  0.292817774674E+01  0.395907379566E+01
  0.205246550326E+01  0.125000000000E+01  0.306828197606E+01  0.397245519226E+01  0.433168271247E+01  0.250000000000E+01  0.375000000000E+01
  0.500000000000E+01  0.500000000000E+01  0.500000000000E+01  0.500000000000E+01  0.500000000000E+01
  0.000000000000E+00  0.000000000000E+00  0.000000000000E+00  0.380991906500E+00  0.000000000000E+00  0.343629824950E+00  0.585286157424E+00
  0.579373264282E+00  0.000000000000E+00  0.501056069140E+00  0.508460362676E+00  0.435373026572E+00  0.572640041190E+00  0.537002098944E+00
  0.568922553871E+00  0.514994090651E+00  0.508247257160E+00  0.527252853130E+00  0.567446661127E+00  0.531657143909E+00  0.505981016593E+00
  0.520795579399E+00  0.443624103833E+00  0.490663730453E+00  0.492155873749E+00  0.501390784676E+00  0.467732355362E+00  0.488212087362E+00
  0.490002767114E+00  0.491352304715E+00  0.486075475228E+00  0.490036479234E+00  0.495098264817E+00
  0.999993487379E+00  0.999993690057E+00  0.999993543115E+00  0.989539055875E+00  0.999993137282E+00  0.985524707174E+00  0.989838908967E+00
  0.991798516580E+00  0.999992721792E+00  0.984411112416E+00  0.985091906406E+00  0.984689080896E+00  0.990058464829E+00  0.100289621837E+01
  0.999855369243E+00  0.100485306649E+01  0.100121554699E+01  0.100055642931E+01  0.997896793475E+00  0.100350029570E+01  0.100058068723E+01
  0.101093276247E+01  0.104043292670E+01  0.100326475367E+01  0.100254498742E+01  0.100045587387E+01  0.100976788415E+01  0.100405369352E+01
  0.100192656835E+01  0.100045434508E+01  0.100058774183E+01  0.100109993754E+01  0.100176112495E+01
  0.145248223631E-03  0.484764785882E-04  0.506904822797E-05 -0.863434005858E-03 -0.221347672990E-03 -0.538040626654E-02  0.205451014132E-03
 -0.176777750660E-03 -0.919592575901E-04 -0.177651903363E-02  0.331494611455E-03  0.354160615010E-03  0.236257315509E-03  0.209445597222E-03
  0.139763977641E-03  0.123088951087E-03  0.890668478963E-04  0.993245084161E-04  0.204989480564E-03  0.296673690142E-03  0.128934209790E-03
 -0.106046601730E-03 -0.109968105430E-02  0.213534339106E-03  0.251387167387E-03  0.149365546913E-03  0.186551820751E-03  0.354484239990E-03
  0.949703188559E-03  0.140611255835E-03  0.488747901571E-03  0.876448376708E-03  0.101807806645E-02
 -0.367635380805E-04  0.273569756635E-04 -0.651766425383E-05 -0.298491362655E-04  0.169500405632E-04 -0.623252142910E-03  0.627941238956E-04
  0.993269959818E-04 -0.268670910160E-04 -0.892691452154E-04 -0.763269212413E-04  0.607413721356E-04 -0.146616304460E-04 -0.529148685523E-04
 -0.137748066916E-04 -0.289849181251E-04 -0.247729109496E-04 -0.110339861974E-04  0.332747650716E-04  0.786490630283E-04  0.647990972546E-05
  0.781347703661E-04 -0.128750039187E-03  0.504273609950E-04  0.416635433816E-04 -0.341035224353E-05  0.529589187067E-04  0.755609211640E-04
  0.180161936445E-03 -0.550033540865E-05  0.538217823098E-04  0.146671302229E-03  0.211011771406E-03
  0.660924155674E-05  0.155823623010E-06 -0.177287887120E-04 -0.303018186407E-05 -0.156181930780E-04 -0.747588415021E-04  0.930855502929E-05
  0.257026786264E-06  0.769328675091E-06 -0.136329467500E-04  0.662228256778E-05  0.265601074494E-04 -0.128080982513E-06 -0.524055244752E-06
 -0.166641179090E-06  0.817621378971E-06  0.538259492560E-06  0.504608609447E-06 -0.183588715660E-05 -0.368423153079E-05  0.128797897651E-05
  0.353731996098E-06 -0.876999040693E-06  0.214088038981E-06  0.908926326181E-06  0.532280716355E-06  0.106351577187E-05  0.106290807609E-05
  0.418759248894E-06  0.279319043028E-06 -0.136569322751E-06 -0.782951317996E-07  0.319002681327E-06
  0.115698512202E-04  0.131226045003E-04  0.162907992540E-04 -0.490156596619E-04  0.435148707036E-04 -0.135680255447E-04 -0.100283202229E-03
 -0.102793924562E-03  0.177196115568E-04 -0.105601680563E-04 -0.254752351677E-04 -0.901836724598E-04 -0.429461734061E-04 -0.177833290656E-04
 -0.330191520246E-04 -0.118750776720E-04 -0.272255443913E-04 -0.343399076181E-04 -0.447508339296E-04 -0.282833879589E-04 -0.343777317394E-04
 -0.424359602699E-04  0.123871265603E-04 -0.265622313282E-04 -0.256599541262E-04 -0.329997461411E-04 -0.322493392766E-04 -0.319338609189E-04
 -0.187420186432E-04 -0.149649052949E-04 -0.287405769560E-04 -0.280011136104E-04 -0.126201162170E-04
 -0.392158887583E-04 -0.118538529792E-03 -0.137669951675E-03  0.352156500940E-03 -0.118008558005E-03  0.228656868951E-02 -0.796893574115E-04
  0.424823283122E-04  0.750760860824E-04  0.679656299668E-03 -0.710665757262E-04 -0.125962324750E-03 -0.657552165129E-04 -0.404115995728E-04
 -0.343358865606E-04 -0.247975546294E-04 -0.156696954725E-04 -0.240195259404E-04 -0.734834961746E-04 -0.123110318473E-03 -0.413329421391E-04
  0.246130869542E-04  0.444980371783E-03 -0.839045624068E-04 -0.976619235955E-04 -0.447539919494E-04 -0.745867508617E-04 -0.144665228924E-03
 -0.388672966693E-03 -0.431513046122E-04 -0.184830480639E-03 -0.351489223641E-03 -0.422957306604E-03
        15         7        19        19
         8        20        19        19
        18        19        21        21
         7         4         8         8
         3         6         4         4
        19         7         8         8
        19        18        15        15
        14        13        15        15
         8        22        20        20
        27        24        22        22
        19        20        21        21
        32        26        21        21
        17        18        26        26
        17        16        15        15
        25        29        21        21
        12         7        13        13
        10         8         6         6
        25        20        24        24
         4         6         8         8
        12         2         4         4
        10        23        22        22
        26        31        17        17
        30        16        17        17
         4         7        12        12
        13        11        12        12
        21        20        25        25
        24        28        25        25
        22         8        10        10
         6         5        10        10
        31        26        32        32
         4         2         3         3
         5         6         3         3
        11        13        14        14
        22        23        27        27
        28        24        27        27
        15        13         7         7
         2        12         1         1
        29        25        33        33
        23        10         9         9
        21        26        18        18
        16        14        15        15
        18        17        15        15
        29        32        21        21
        22        24        20        20
        28        33        25        25
        11         1        12        12
        31        30        17        17
         5         9        10        10
zone t="boundary 3 bc-3", solutiontime= 0.5000000E+02, strandid=1003, i=33, j=48, f=feblock
  0.375000000000E+01  0.250000000000E+01  0.500000000000E+01  0.403552511878E+01  0.288078410721E+01  0.125000000000E+01  0.190974100652E+01
  0.500000000000E+01  0.326683758169E+01  0.423153924130E+01  0.201431602454E+01  0.000000000000E+00  0.963108083381E+00  0.500000000000E+01
  0.267000324704E+01  0.385533350601E+01  0.893127759452E+00  0.154774304040E+01  0.000000000000E+00  0.500000000000E+01  0.315249557942E+01
  0.218329375016E+01  0.398173246726E+01  0.000000000000E+00  0.698517061619E+00  0.964171764089E+00  0.125000000000E+01  0.000000000000E+00
  0.500000000000E+01  0.310324758057E+01  0.250000000000E+01  0.375000000000E+01  0.000000000000E+00
  0.250000000000E+01  0.250000000000E+01  0.250000000000E+01  0.250000000000E+01  0.250000000000E+01  0.250000000000E+01  0.250000000000E+01
  0.250000000000E+01  0.250000000000E+01  0.250000000000E+01  0.250000000000E+01  0.250000000000E+01  0.250000000000E+01  0.250000000000E+01
  0.250000000000E+01  0.250000000000E+01  0.250000000000E+01  0.250000000000E+01  0.250000000000E+01  0.250000000000E+01  0.250000000000E+01
  0.250000000000E+01  0.250000000000E+01  0.250000000000E+01  0.250000000000E+01  0.250000000000E+01  0.250000000000E+01  0.250000000000E+01
  0.250000000000E+01  0.250000000000E+01  0.250000000000E+01  0.250000000000E+01  0.250000000000E+01
  0.000000000000E+00  0.000000000000E+00  0.000000000000E+00  0.101201586758E+01  0.904659890645E+00  0.000000000000E+00  0.717002441913E+00
  0.125000000000E+01  0.188609243358E+01  0.191586535653E+01  0.176246431481E+01  0.000000000000E+00  0.961328577125E+00  0.250000000000E+01
  0.285047954584E+01  0.293121848150E+01  0.205246550326E+01  0.292817774674E+01  0.125000000000E+01  0.375000000000E+01  0.363585050272E+01
  0.395907379566E+01  0.406975391361E+01  0.250000000000E+01  0.306828197606E+01  0.397245519226E+01  0.500000000000E+01  0.375000000000E+01
  0.500000000000E+01  0.433168271247E+01  0.500000000000E+01  0.500000000000E+01  0.500000000000E+01
  0.000000000000E+00  0.000000000000E+00  0.000000000000E+00  0.443767745459E+00  0.402286944574E+00  0.000000000000E+00  0.377550369545E+00
  0.509232128688E+00  0.575832179754E+00  0.573707405285E+00  0.562554064412E+00  0.000000000000E+00  0.490563299840E+00  0.534527096543E+00
  0.556586982170E+00  0.564391577749E+00  0.522730517385E+00  0.522052000170E+00  0.441238348384E+00  0.517182331791E+00  0.524228630763E+00
  0.503687457534E+00  0.509488571178E+00  0.469814974359E+00  0.495614442414E+00  0.494483780212E+00  0.488562428343E+00  0.488961654628E+00
  0.492980744788E+00  0.499005552222E+00  0.486460936507E+00  0.484596927548E+00  0.495346592024E+00
  0.999989339439E+00  0.999989408764E+00  0.999989626853E+00  0.981541895460E+00  0.988773990194E+00  0.999989827144E+00  0.982469462434E+00
  0.984104309047E+00  0.990427545862E+00  0.990355285694E+00  0.994362997073E+00  0.999990295028E+00  0.988652071037E+00  0.100368369414E+01
  0.999769197113E+00  0.100118501219E+01  0.100834885320E+01  0.100252111043E+01  0.102982719499E+01  0.100443319461E+01  0.100199536635E+01
  0.100082056599E+01  0.100138192342E+01  0.100826277309E+01  0.100298787130E+01  0.100192389555E+01  0.100215267510E+01  0.100355660048E+01
  0.100047670023E+01  0.100056591053E+01  0.100126820231E+01  0.100066573360E+01  0.100179336279E+01
 -0.667453726495E-04 -0.175108776693E-03  0.143552991975E-03 -0.231446528350E-02 -0.194975039808E-02 -0.319886568586E-05  0.207079530326E-03
  0.596041819593E-03 -0.923176418879E-04  0.316451542675E-03 -0.482375575354E-03  0.525446000130E-04 -0.297939576667E-04  0.189446713382E-03
  0.185968929276E-03  0.158921206735E-03 -0.236097753684E-04  0.205863136667E-03 -0.357252477307E-03  0.115424829451E-03  0.851795505957E-04
  0.115495562895E-03  0.849470204029E-04  0.602404399322E-04  0.181210020839E-03  0.286342474022E-03  0.746850073453E-03  0.342939084298E-03
  0.108905160306E-03  0.120893806818E-03  0.733045885110E-03  0.428597448456E-03  0.938257639324E-03
  0.476760839140E-04  0.233528852153E-04 -0.269735657899E-04 -0.319426881509E-03  0.342808006646E-04 -0.323397256468E-04  0.302604312450E-03
 -0.546607163327E-04  0.494469305309E-04  0.886275188977E-05  0.100135834641E-03 -0.421662708351E-05  0.462887022375E-04 -0.507057525578E-04
  0.478495499571E-04  0.691612324590E-05  0.765710279557E-04  0.647738870328E-04 -0.340725948060E-04 -0.286542623251E-04 -0.232062440413E-05
  0.118182123724E-04 -0.185052244848E-04  0.351016902509E-04  0.599975200542E-04  0.491591179753E-04  0.139796228127E-03  0.700644861549E-04
 -0.839915815096E-05 -0.710225724760E-07  0.122442850481E-03  0.485121219843E-04  0.195121428798E-03
  0.273254820135E-05  0.763296766344E-05 -0.243790553405E-05  0.139780300208E-04 -0.350372777622E-04  0.113399126642E-04 -0.298537464119E-04
  0.597874458954E-07  0.529154780512E-05 -0.114838100168E-05  0.778528582505E-05  0.100707687292E-04  0.416380650730E-05 -0.307265963024E-05
  0.135630923624E-05 -0.613502401638E-06 -0.625905856315E-05  0.170984610029E-05  0.977761019878E-07 -0.115027569712E-05  0.412616907459E-06
 -0.248186762735E-05 -0.406624568597E-06  0.691554726694E-07 -0.175775769066E-05 -0.125866270153E-05  0.450347721503E-07 -0.288192315366E-06
 -0.114801514766E-06 -0.150397690158E-06 -0.138685215243E-06  0.239697950543E-06  0.212952468812E-06
  0.257353509909E-04  0.275743852179E-05  0.193760186834E-04 -0.231627283479E-04 -0.712096817430E-05 -0.727763467777E-05  0.687685009957E-04
 -0.384687483282E-04 -0.752625237417E-04 -0.583795233915E-04 -0.121437149151E-04  0.123476795158E-04  0.590498718832E-04 -0.207391606767E-04
 -0.206080962546E-04 -0.361477032130E-04  0.308913655510E-04  0.395482842555E-06  0.172036982945E-04 -0.164473989367E-04 -0.252562162556E-04
 -0.158744759163E-04 -0.265175803376E-04  0.376698252311E-05  0.281523938947E-05 -0.101007145587E-04 -0.165896893341E-04 -0.113277859595E-04
 -0.132254608384E-04 -0.272936185468E-04 -0.239689830073E-04 -0.253712563219E-04 -0.110510310784E-04
 -0.420149723412E-03  0.295645364369E-03 -0.121881447816E-03  0.102684125742E-02  0.744555736755E-03  0.108755418621E-03 -0.204734909009E-03
 -0.176176987846E-03  0.269508079149E-04 -0.106324839907E-03  0.159441724927E-03 -0.373043961391E-04  0.246257991620E-05 -0.345965768063E-04
 -0.752068577423E-04 -0.496601991031E-04 -0.412783160971E-06 -0.869719654739E-04  0.150902523184E-03 -0.222265653441E-04 -0.225959422392E-04
 -0.389166492286E-04 -0.170290097467E-04 -0.213483405971E-04 -0.749904088911E-04 -0.112521309391E-03 -0.303997791344E-03 -0.138421804660E-03
 -0.315334508434E-04 -0.364618098866E-04 -0.293342171185E-03 -0.162197833342E-03 -0.389800936002E-03
        15         9        16        16
        15        18        11        11
        22        15        21        21
        11         5         9         9
         5         7         2         2
        11         9        15        15
        16        21        15        15
        16        10        14        14
        18        17        11        11
        17        25        24        24
        22        18        15        15
        22        30        31        31
        30        21        23        23
        16        20        23        23
        22        27        26        26
        10         9         4         4
         7        11        13        13
        25        18        26        26
        11         7         5         5
         5         1         4         4
        17        19        13        13
        23        32        30        30
        23        20        29        29
         4         9         5         5
         4         8        10        10
        26        18        22        22
        26        28        25        25
        13        11        17        17
        13         6         7         7
        31        30        32        32
         2         1         5         5
         2         7         6         6
        14        10         8         8
        24        19        17        17
        24        25        28        28
         9        10        16        16
         3         4         1         1
        33        26        27        27
        12        13        19        19
        21        30        22        22
        16        14        20        20
        16        23        21        21
        22        31        27        27
        18        25        17        17
        26        33        28        28
         4         3         8         8
        23        29        32        32
        13        12         6         6
zone t="boundary 4 bc-4", solutiontime= 0.5000000E+02, strandid=1004, i=32, j=46, f=feblock
  0.125000000000E+01  0.219251206392E+01  0.103724302461E+01  0.500000000000E+01  0.250000000000E+01  0.375000000000E+01  0.404200324774E+01
  0.500000000000E+01  0.000000000000E+00  0.310152362409E+01  0.202479342020E+01  0.324151231464E+01  0.922061490191E+00  0.000000000000E+00
  0.299062775774E+01  0.394624082883E+01  0.500000000000E+01  0.409252726285E+01  0.500000000000E+01  0.429310310915E+01  0.175434191980E+01
  0.284428995242E+01  0.000000000000E+00  0.000000000000E+00  0.715990576545E+00  0.930412228790E+00  0.125000000000E+01  0.187029682677E+01
  0.500000000000E+01  0.375000000000E+01  0.250000000000E+01  0.000000000000E+00
  0.250000000000E+01  0.157686156160E+01  0.146289271009E+01  0.250000000000E+01  0.250000000000E+01  0.250000000000E+01  0.155830813274E+01
  0.125000000000E+01  0.250000000000E+01  0.177790177481E+01  0.477386199275E+00  0.742988685424E+00  0.308372018325E+00  0.125000000000E+01
 -0.487811078581E+00 -0.144524380962E+01 -0.125000000000E+01 -0.345533899378E+00  0.000000000000E+00  0.627766083140E+00 -0.739814786992E+00
 -0.158811787973E+01  0.000000000000E+00 -0.125000000000E+01 -0.600232012419E+00 -0.154800130438E+01 -0.250000000000E+01 -0.178862290564E+01
 -0.250000000000E+01 -0.250000000000E+01 -0.250000000000E+01 -0.250000000000E+01
  0.500000000000E+01  0.500000000000E+01  0.500000000000E+01  0.500000000000E+01  0.500000000000E+01  0.500000000000E+01  0.500000000000E+01
  0.500000000000E+01  0.500000000000E+01  0.500000000000E+01  0.500000000000E+01  0.500000000000E+01  0.500000000000E+01  0.500000000000E+01
  0.500000000000E+01  0.500000000000E+01  0.500000000000E+01  0.500000000000E+01  0.500000000000E+01  0.500000000000E+01  0.500000000000E+01
  0.500000000000E+01  0.500000000000E+01  0.500000000000E+01  0.500000000000E+01  0.500000000000E+01  0.500000000000E+01  0.500000000000E+01
  0.500000000000E+01  0.500000000000E+01  0.500000000000E+01  0.500000000000E+01
  0.488562428343E+00  0.488873127044E+00  0.490562939264E+00  0.492980744788E+00  0.486460936507E+00  0.484596927548E+00  0.485347896276E+00
  0.494163542317E+00  0.495346592024E+00  0.486528232758E+00  0.487819998460E+00  0.487068916091E+00  0.494045904395E+00  0.496127394917E+00
  0.487612357629E+00  0.483219722850E+00  0.492395510969E+00  0.487214141159E+00  0.494738985333E+00  0.487958525499E+00  0.489677249447E+00
  0.488029107105E+00  0.497246279768E+00  0.496059270892E+00  0.494951052257E+00  0.492800373677E+00  0.490002767114E+00  0.490005124553E+00
  0.491352304715E+00  0.486075475228E+00  0.490036479234E+00  0.495098264817E+00
  0.100215267510E+01  0.100152652958E+01  0.100178347660E+01  0.100047670023E+01  0.100126820231E+01  0.100066573360E+01  0.100025357725E+01
  0.100050391679E+01  0.100179336279E+01  0.100112367258E+01  0.100133045248E+01  0.100072432973E+01  0.100164366725E+01  0.100168844809E+01
  0.100096274503E+01  0.100000874853E+01  0.100082864314E+01  0.100022269190E+01  0.100062146074E+01  0.100023497311E+01  0.100174635719E+01
  0.100098855496E+01  0.100118726928E+01  0.100134171022E+01  0.100132635956E+01  0.100179873777E+01  0.100192656835E+01  0.100163748619E+01
  0.100045434508E+01  0.100058774183E+01  0.100109993754E+01  0.100176112495E+01
  0.746850073453E-03  0.755071226201E-03  0.737569034135E-03  0.108905160306E-03  0.733045885110E-03  0.428597448456E-03  0.305855638018E-03
  0.110483896942E-03  0.938257639324E-03  0.636377378820E-03  0.844033551905E-03  0.623631806042E-03  0.921482678526E-03  0.996880545964E-03
  0.724738059526E-03  0.324378108959E-03  0.138710189304E-03  0.403051591526E-03  0.109585400041E-03  0.385017465654E-03  0.107310584399E-02
  0.698048723316E-03  0.115980695021E-02  0.106421065629E-02  0.108205098075E-02  0.929194792429E-03  0.949703188559E-03  0.102503270028E-02
  0.140611255835E-03  0.488747901571E-03  0.876448376708E-03  0.101807806645E-02