title="tecplot geometry and solution file"
variables = x y z mach temperature lambda1 lambda2 lambda3 lambda4 lambda5
zone t="boundary 1 bc-1", solutiontime= 0.2000000E+02, strandid=1001, i=32, j=46, f=feblock
  0.000000000000E+00  0.000000000000E+00  0.000000000000E+00  0.000000000000E+00  0.000000000000E+00  0.000000000000E+00  0.000000000000E+00
  0.000000000000E+00  0.000000000000E+00  0.000000000000E+00  0.000000000000E+00  0.000000000000E+00  0.000000000000E+00  0.000000000000E+00
  0.000000000000E+00  0.000000000000E+00  0.000000000000E+00  0.000000000000E+00  0.000000000000E+00  0.000000000000E+00  0.000000000000E+00
  0.000000000000E+00  0.000000000000E+00  0.000000000000E+00  0.000000000000E+00  0.000000000000E+00  0.000000000000E+00  0.000000000000E+00
  0.000000000000E+00  0.000000000000E+00  0.000000000000E+00  0.000000000000E+00
  0.250000000000E+01  0.250000000000E+01  0.125000000000E+01  0.146289271009E+01  0.157686156160E+01  0.308372018325E+00  0.000000000000E+00
 -0.125000000000E+01 -0.600232012419E+00  0.250000000000E+01  0.477386199275E+00  0.742988685424E+00 -0.739814786992E+00  0.177790177481E+01
  0.155830813274E+01  0.250000000000E+01 -0.250000000000E+01 -0.154800130438E+01 -0.487811078581E+00  0.250000000000E+01  0.627766083140E+00
 -0.345533899378E+00 -0.178862290564E+01 -0.158811787973E+01  0.125000000000E+01 -0.250000000000E+01 -0.144524380962E+01  0.000000000000E+00
 -0.125000000000E+01 -0.250000000000E+01 -0.250000000000E+01 -0.250000000000E+01
  0.000000000000E+00  0.125000000000E+01  0.000000000000E+00  0.103724302461E+01  0.219251206392E+01  0.922061490191E+00  0.000000000000E+00
  0.000000000000E+00  0.715990576545E+00  0.250000000000E+01  0.202479342020E+01  0.324151231464E+01  0.175434191980E+01  0.310152362409E+01
  0.404200324774E+01  0.375000000000E+01  0.000000000000E+00  0.930412228790E+00  0.299062775774E+01  0.500000000000E+01  0.429310310915E+01
  0.409252726285E+01  0.187029682677E+01  0.284428995242E+01  0.500000000000E+01  0.125000000000E+01  0.394624082883E+01  0.500000000000E+01
  0.500000000000E+01  0.250000000000E+01  0.375000000000E+01  0.500000000000E+01
  0.000000000000E+00  0.441238348384E+00  0.000000000000E+00  0.475214987021E+00  0.460123708856E+00  0.468827815405E+00  0.000000000000E+00
  0.000000000000E+00  0.402302516798E+00  0.469814974359E+00  0.464411128942E+00  0.478714034184E+00  0.489298241651E+00  0.483068557888E+00
  0.487930073118E+00  0.488961654628E+00  0.000000000000E+00  0.464775721414E+00  0.473795651891E+00  0.495346592024E+00  0.490266103446E+00
  0.486286083902E+00  0.445717618051E+00  0.464382274634E+00  0.496127394917E+00  0.443624103833E+00  0.486964461957E+00  0.497246279768E+00
  0.496059270892E+00  0.467732355362E+00  0.488212087362E+00  0.495098264817E+00
  0.999990295028E+00  0.102982719499E+01  0.999990757903E+00  0.104247294232E+01  0.101190080524E+01  0.102520618293E+01  0.999991416700E+00
  0.999992168096E+00  0.103891223624E+01  0.100826277309E+01  0.101252833877E+01  0.100300548289E+01  0.102702865700E+01  0.100605563290E+01
  0.100244400478E+01  0.100355660048E+01  0.999992721792E+00  0.103239739214E+01  0.100459524090E+01  0.100179336279E+01  0.100260305842E+01
  0.100234966417E+01  0.101657153079E+01  0.100617544692E+01  0.100168844809E+01  0.104043292670E+01  0.100303376377E+01  0.100118726928E+01
  0.100134171022E+01  0.100976788415E+01  0.100405369352E+01  0.100176112495E+01
  0.290640844219E-03  0.211917114858E-02  0.139101193181E-03  0.236028030096E-02  0.506662780982E-03 -0.374192577714E-03 -0.118991699215E-04
 -0.231407663835E-04  0.254053465758E-04  0.208099122474E-03  0.410976558070E-03 -0.181516457919E-03  0.343028163264E-03 -0.127931349367E-03
 -0.197287277421E-03 -0.328371345108E-03 -0.354078917500E-03 -0.258039588597E-02 -0.710721146954E-04 -0.667516030962E-04 -0.904354146680E-04
 -0.173356718158E-04 -0.272739889959E-03  0.208359527287E-03 -0.522311175605E-04 -0.288397294288E-02  0.391048051117E-04  0.375285896075E-04
  0.104912184429E-03  0.202593522085E-03  0.991154020831E-04  0.935041317488E-04
  0.269444713695E-04  0.335052625287E-03  0.219993671840E-04  0.332275349523E-03  0.725656322048E-04 -0.149398428703E-03  0.110102516633E-04
 -0.278100887368E-04 -0.336656074968E-04  0.233481300014E-04  0.490524825913E-04 -0.373770392739E-04  0.363517614807E-04 -0.361473611897E-04
 -0.365315004251E-04 -0.666347026804E-04 -0.317515646120E-04 -0.489666445699E-03 -0.181652724005E-04 -0.104359460000E-04 -0.169390940251E-04
 -0.556447325640E-05 -0.439364877657E-04  0.229879780615E-04 -0.101030349436E-04 -0.430627213496E-03  0.361888160662E-05  0.903449390062E-05
  0.253234373070E-04  0.243588536151E-04  0.148873790483E-04  0.244630216843E-04
  0.365265328802E-04  0.461587109772E-05  0.269524376312E-04 -0.929197908202E-06 -0.293359336042E-04  0.148379977719E-04  0.103155412258E-04
  0.401349533398E-04  0.274808229569E-04 -0.713018978408E-06 -0.411125756557E-04 -0.333401397964E-04 -0.132899358055E-04 -0.202516620804E-04
 -0.119025967981E-04  0.968193087056E-06  0.377614201993E-04  0.190796387817E-04 -0.315530742121E-04  0.630345555620E-06 -0.169425210319E-04
 -0.216658424179E-04 -0.284461410392E-04 -0.172934036965E-04 -0.817663043328E-05  0.126416982911E-04 -0.144253248754E-04 -0.141620206989E-04
 -0.104511390493E-04  0.604440773956E-06  0.634157779699E-06  0.400335557642E-06
 -0.620549571785E-04 -0.777966798786E-04 -0.264021592678E-04 -0.301457350939E-04  0.197957189812E-04 -0.130804322901E-03  0.177512213757E-04
  0.210851328726E-04  0.133201671798E-04  0.291665006137E-04 -0.312241515157E-04  0.365447288901E-05 -0.619128935606E-04  0.237366031299E-04
  0.101771937596E-04  0.199987306903E-04  0.595493039172E-04 -0.138101740344E-04 -0.215451956461E-04 -0.614873005793E-06  0.252871109629E-05
 -0.535593326063E-05 -0.108935190926E-03 -0.340374300444E-04 -0.468755834817E-06 -0.849593487845E-04 -0.145414181550E-04  0.848962418475E-07
 -0.140160321908E-05 -0.663535688911E-04 -0.191999980390E-04 -0.754158405235E-06
 -0.220981698455E-03 -0.862689543180E-03 -0.136145075791E-03 -0.948122211893E-03 -0.204270082796E-03  0.219724994181E-03 -0.170747653185E-03
 -0.126939929839E-03  0.929675557114E-05 -0.811712054446E-04 -0.161486743593E-03  0.756204383013E-04 -0.132499308482E-03  0.546638533670E-04
  0.821486929691E-04  0.136838728154E-03  0.105999149525E-03  0.109533734030E-02  0.311880756148E-04  0.274349961563E-04  0.377313251006E-04
  0.755197777782E-05  0.111329656108E-03 -0.795385524765E-04  0.217320800168E-04  0.116046378358E-02 -0.156669853053E-04 -0.158986968937E-04
 -0.441989879891E-04 -0.797361127633E-04 -0.413980922903E-04 -0.396337825123E-04
        12        19        11        11
        11         5        12        12
        10        14         5         5
        19        13        11        11
        19        24        13        13
        30        23        24        24
        19        12        22        22
        28        22        21        21
        11        13         6         6
         7         6         9         9
        15        12        14        14
        18        13        23        23
        15        25        21        21
        27        19        22        22
        18         8         9         9
        27        31        24        24
         4        11         6         6
         5        14        12        12
         4         2         5         5
        21        12        15        15
        14        16        15        15
        24        19        27        27
        22        29        27        27
        23        26        18        18
        17         8        18        18
         5        11         4         4
         6         3         4         4
        26        23        30        30
         5         2        10        10
        16        14        10        10
         3         6         7         7
        21        25        28        28
        29        22        28        28
         6        13         9         9
         2         4         1         1
        31        27        32        32
        25        15        20        20
        24        23        13        13
         8         7         9         9
        13        18         9         9
        31        30        24        24
        12        21        22        22
        29        32        27        27
         3         1         4         4
        26        17        18        18
        16        20        15        15
zone t="boundary 2 bc-2", solutiontime= 0.2000000E+02, strandid=1002, i=33, j=48, f=feblock
  0.500000000000E+01  0.375000000000E+01  0.250000000000E+01  0.288078410721E+01  0.125000000000E+01  0.190974100652E+01  0.326683758169E+01
  0.201431602454E+01  0.000000000000E+00  0.963108083381E+00  0.500000000000E+01  0.403552511878E+01  0.423153924130E+01  0.500000000000E+01
  0.385533350601E+01  0.500000000000E+01  0.398173246726E+01  0.315249557942E+01  0.267000324704E+01  0.154774304040E+01  0.218329375016E+01
  0.893127759452E+00  0.000000000000E+00  0.698517061619E+00  0.964171764089E+00  0.310324758057E+01  0.000000000000E+00  0.000000000000E+00
  0.125000000000E+01  0.500000000000E+01  0.375000000000E+01  0.250000000000E+01  0.000000000000E+00
 -0.250000000000E+01 -0.250000000000E+01 -0.250000000000E+01 -0.250000000000E+01 -0.250000000000E+01 -0.250000000000E+01 -0.250000000000E+01
 -0.250000000000E+01 -0.250000000000E+01 -0.250000000000E+01 -0.250000000000E+01 -0.250000000000E+01 -0.250000000000E+01 -0.250000000000E+01
 -0.250000000000E+01 -0.250000000000E+01 -0.250000000000E+01 -0.250000000000E+01 -0.250000000000E+01 -0.250000000000E+01 -0.250000000000E+01
 -0.250000000000E+01 -0.250000000000E+01 -0.250000000000E+01 -0.250000000000E+01 -0.250000000000E+01 -0.250000000000E+01 -0.250000000000E+01
 -0.250000000000E+01 -0.250000000000E+01 -0.250000000000E+01 -0.250000000000E+01 -0.250000000000E+01
  0.000000000000E+00  0.000000000000E+00  0.000000000000E+00  0.904659890645E+00  0.000000000000E+00  0.717002441913E+00  0.188609243358E+01
  0.176246431481E+01  0.000000000000E+00  0.961328577125E+00  0.125000000000E+01  0.101201586758E+01  0.191586535653E+01  0.250000000000E+01
  0.293121848150E+01  0.375000000000E+01  0.406975391361E+01  0.363585050272E+01  0.285047954584E+01  0.292817774674E+01  0.395907379566E+01
  0.205246550326E+01  0.125000000000E+01  0.306828197606E+01  0.397245519226E+01  0.433168271247E+01  0.250000000000E+01  0.375000000000E+01
  0.500000000000E+01  0.500000000000E+01  0.500000000000E+01  0.500000000000E+01  0.500000000000E+01
  0.000000000000E+00  0.000000000000E+00  0.000000000000E+00  0.380991906500E+00  0.000000000000E+00  0.343629824950E+00  0.585286157424E+00
  0.579373264282E+00  0.000000000000E+00  0.501056069140E+00  0.508460362676E+00  0.435373026572E+00  0.572640041190E+00  0.537002098944E+00
  0.568922553870E+00  0.514994090651E+00  0.508247257160E+00  0.527252853130E+00  0.567446661127E+00  0.531657143909E+00  0.505981016593E+00
  0.520795579399E+00  0.443624103833E+00  0.490663730453E+00  0.492155873749E+00  0.501390784676E+00  0.467732355362E+00  0.488212087362E+00
  0.490002767114E+00  0.491352304715E+00  0.486075475228E+00  0.490036479234E+00  0.495098264817E+00
  0.999993487379E+00  0.999993690057E+00  0.999993543115E+00  0.989539055875E+00  0.999993137282E+00  0.985524707174E+00  0.989838908967E+00
  0.991798516580E+00  0.999992721792E+00  0.984411112416E+00  0.985091906406E+00  0.984689080896E+00  0.990058464829E+00  0.100289621837E+01
  0.999855369243E+00  0.100485306649E+01  0.100121554699E+01  0.100055642931E+01  0.997896793475E+00  0.100350029570E+01  0.100058068723E+01
  0.101093276247E+01  0.104043292670E+01  0.100326475367E+01  0.100254498742E+01  0.100045587387E+01  0.100976788415E+01  0.100405369352E+01
  0.100192656835E+01  0.100045434508E+01  0.100058774183E+01  0.100109993754E+01  0.100176112495E+01
  0.136075222651E-04  0.114272196668E-03  0.157936814788E-03 -0.182932711734E-02 -0.249766969637E-03 -0.760105819312E-02  0.169529832691E-03
 -0.146067200328E-03 -0.354078917500E-03 -0.373229355137E-02  0.341112053449E-04  0.325364878719E-03  0.256764020060E-04  0.152165106003E-04
  0.737420117699E-05  0.104781586150E-04  0.131624070850E-04 -0.117272347679E-04  0.442415120539E-04  0.159369157030E-03 -0.671179259424E-05
 -0.202206603813E-03 -0.288397294288E-02  0.111319726610E-03  0.369550533403E-04  0.116252160414E-04  0.202593522085E-03  0.991154020831E-04
  0.107928279742E-03  0.138330914703E-04  0.569460364062E-04  0.962878053569E-04  0.935041317488E-04
 -0.188897471910E-04 -0.242383685849E-04  0.566970206968E-06 -0.520116245242E-03  0.432072807349E-04 -0.108726246070E-02 -0.505734201578E-04
 -0.373861299083E-04 -0.317515646120E-04 -0.591447615156E-03 -0.122077210877E-04 -0.120448261972E-03 -0.488270949123E-04 -0.361091630430E-05
 -0.193356842697E-04 -0.197449387035E-05 -0.497584278017E-05 -0.749967182124E-05 -0.213631266089E-04  0.575077603809E-05 -0.533192827329E-05
 -0.188991680459E-04 -0.430627213496E-03 -0.778142007556E-05  0.210742954221E-05 -0.144139486330E-05  0.243588536151E-04  0.148873790483E-04
  0.253669159258E-04 -0.478824678864E-06  0.599123893953E-05  0.197405300902E-04  0.244630216843E-04
  0.711169029231E-05 -0.154286732227E-05 -0.141317929523E-04 -0.858047612216E-04 -0.380645394555E-05 -0.104224549447E-03 -0.424148384830E-06
 -0.106457262472E-04  0.377614201993E-04 -0.714907621113E-04 -0.827708049659E-05 -0.150081780912E-04 -0.363567946591E-06  0.233710436859E-06
 -0.739781650950E-06  0.375063354945E-06 -0.398229566850E-06  0.110298256942E-05 -0.552261428803E-06 -0.250735016033E-05  0.343931245193E-07
 -0.550354260408E-05  0.126416982911E-04 -0.151975371955E-05 -0.104979126495E-06  0.297132101606E-06  0.604440773956E-06  0.634157779699E-06
  0.307978047489E-06  0.208398214280E-06  0.289256214621E-06 -0.162569879898E-06  0.400335557642E-06
 -0.726373674481E-05  0.360597046693E-05  0.249420314981E-04 -0.110154554648E-03  0.742239402714E-04 -0.794110210291E-04 -0.552064163574E-04
 -0.136323069112E-03  0.595493039172E-04 -0.116462475622E-03  0.171379830800E-04  0.186331217639E-05 -0.429984534309E-05  0.387404358052E-05
 -0.109763112743E-04  0.136437544632E-05 -0.558210950200E-05 -0.162834285241E-04 -0.277947237988E-04 -0.269690824707E-04 -0.147760522532E-04
 -0.113346498134E-03 -0.849593487845E-04 -0.292804704716E-04 -0.144933171848E-04 -0.109720177326E-04 -0.663535688911E-04 -0.191999980390E-04
 -0.423713704046E-05 -0.130568031610E-05 -0.369008907308E-05 -0.384591180307E-05 -0.754158405235E-06
  0.305850740281E-04 -0.479570693281E-04 -0.409805821961E-03  0.872700795828E-03 -0.520320587073E-03  0.326703868972E-02 -0.466855869300E-04
  0.552845962058E-04  0.105999149525E-03  0.156959301801E-02 -0.720250793716E-05 -0.807148357425E-04  0.101741231977E-04 -0.342820887364E-05
  0.590979088783E-05 -0.236071965615E-05 -0.203613186661E-05  0.757576099316E-05 -0.918098707683E-05 -0.592485514462E-04  0.492041891077E-05
  0.748134430434E-04  0.116046378358E-02 -0.377026984890E-04 -0.135921581278E-04 -0.218409024391E-05 -0.797361127633E-04 -0.413980922903E-04
 -0.450741264400E-04 -0.418014395565E-05 -0.214581084617E-04 -0.394251546545E-04 -0.396337825123E-04
        15         7        19        19
         8        20        19        19
        18        19        21        21
         7         4         8         8
         3         6         4         4
        19         7         8         8
        19        18        15        15
        14        13        15        15
         8        22        20        20
        27        24        22        22
        19        20        21        21
        32        26        21        21
        17        18        26        26
        17        16        15        15
        25        29        21        21
        12         7        13        13
        10         8         6         6
        25        20        24        24
         4         6         8         8
        12         2         4         4
        10        23        22        22
        26        31        17        17
        30        16        17        17
         4         7        12        12
        13        11        12        12
        21        20        25        25
        24        28        25        25
        22         8        10        10
         6         5        10        10
        31        26        32        32
         4         2         3         3
         5         6         3         3
        11        13        14        14
        22        23        27        27
        28        24        27        27
        15        13         7         7
         2        12         1         1
        29        25        33        33
        23        10         9         9
        21        26        18        18
        16        14        15        15
        18        17        15        15
        29        32        21        21
        22        24        20        20
        28        33        25        25
        11         1        12        12
        31        30        17        17
         5         9        10        10
zone t="boundary 3 bc-3", solutiontime= 0.2000000E+02, strandid=1003, i=33, j=48, f=feblock
  0.375000000000E+01  0.250000000000E+01  0.500000000000E+01  0.403552511878E+01  0.288078410721E+01  0.125000000000E+01  0.190974100652E+01
  0.500000000000E+01  0.326683758169E+01  0.423153924130E+01  0.201431602454E+01  0.000000000000E+00  0.963108083381E+00  0.500000000000E+01
  0.267000324704E+01  0.385533350601E+01  0.893127759452E+00  0.154774304040E+01  0.000000000000E+00  0.500000000000E+01  0.315249557942E+01
  0.218329375016E+01  0.398173246726E+01  0.000000000000E+00  0.698517061619E+00  0.964171764089E+00  0.125000000000E+01  0.000000000000E+00
  0.500000000000E+01  0.310324758057E+01  0.250000000000E+01  0.375000000000E+01  0.000000000000E+00
  0.250000000000E+01  0.250000000000E+01  0.250000000000E+01  0.250000000000E+01  0.250000000000E+01  0.250000000000E+01  0.250000000000E+01
  0.250000000000E+01  0.250000000000E+01  0.250000000000E+01  0.250000000000E+01  0.250000000000E+01  0.250000000000E+01  0.250000000000E+01
  0.250000000000E+01  0.250000000000E+01  0.250000000000E+01  0.250000000000E+01  0.250000000000E+01  0.250000000000E+01  0.250000000000E+01
  0.250000000000E+01  0.250000000000E+01  0.250000000000E+01  0.250000000000E+01  0.250000000000E+01  0.250000000000E+01  0.250000000000E+01
  0.250000000000E+01  0.250000000000E+01  0.250000000000E+01  0.250000000000E+01  0.250000000000E+01
  0.000000000000E+00  0.000000000000E+00  0.000000000000E+00  0.101201586758E+01  0.904659890645E+00  0.000000000000E+00  0.717002441913E+00
  0.125000000000E+01  0.188609243358E+01  0.191586535653E+01  0.176246431481E+01  0.000000000000E+00  0.961328577125E+00  0.250000000000E+01
  0.285047954584E+01  0.293121848150E+01  0.205246550326E+01  0.292817774674E+01  0.125000000000E+01  0.375000000000E+01  0.363585050272E+01
  0.395907379566E+01  0.406975391361E+01  0.250000000000E+01  0.306828197606E+01  0.397245519226E+01  0.500000000000E+01  0.375000000000E+01
  0.500000000000E+01  0.433168271247E+01  0.500000000000E+01  0.500000000000E+01  0.500000000000E+01
  0.000000000000E+00  0.000000000000E+00  0.000000000000E+00  0.443767745459E+00  0.402286944574E+00  0.000000000000E+00  0.377550369545E+00
  0.509232128688E+00  0.575832179754E+00  0.573707405285E+00  0.562554064412E+00  0.000000000000E+00  0.490563299840E+00  0.534527096543E+00
  0.556586982170E+00  0.564391577749E+00  0.522730517385E+00  0.522052000170E+00  0.441238348384E+00  0.517182331791E+00  0.524228630763E+00
  0.503687457534E+00  0.509488571178E+00  0.469814974359E+00  0.495614442414E+00  0.494483780212E+00  0.488562428343E+00  0.488961654628E+00
  0.492980744788E+00  0.499005552222E+00  0.486460936507E+00  0.484596927548E+00  0.495346592024E+00
  0.999989339439E+00  0.999989408764E+00  0.999989626853E+00  0.981541895460E+00  0.988773990194E+00  0.999989827144E+00  0.982469462434E+00
  0.984104309047E+00  0.990427545862E+00  0.990355285694E+00  0.994362997073E+00  0.999990295028E+00  0.988652071037E+00  0.100368369414E+01
  0.999769197113E+00  0.100118501219E+01  0.100834885320E+01  0.100252111043E+01  0.102982719499E+01  0.100443319461E+01  0.100199536635E+01
  0.100082056599E+01  0.100138192342E+01  0.100826277309E+01  0.100298787130E+01  0.100192389555E+01  0.100215267510E+01  0.100355660048E+01
  0.100047670023E+01  0.100056591053E+01  0.100126820231E+01  0.100066573360E+01  0.100179336279E+01
 -0.288654746474E-04  0.274850587055E-03 -0.104381961391E-03  0.174594925681E-02  0.610128413093E-02  0.238144344187E-03  0.403308091725E-02
 -0.369140966455E-03 -0.116469308277E-03 -0.152495919515E-03  0.144760625576E-02  0.290640844219E-03  0.291070959416E-02 -0.903315811828E-04
 -0.241142610741E-03 -0.456397106200E-04  0.651675263740E-03 -0.242393957295E-03  0.211917114858E-02 -0.391514442950E-04 -0.576705179586E-05
 -0.532439478136E-04 -0.242586224152E-04  0.208099122474E-03 -0.135262168541E-03 -0.143321230107E-03 -0.903416740137E-04 -0.328371345108E-03
 -0.270018835822E-04 -0.238241062978E-04 -0.112167856522E-03 -0.844856549862E-04 -0.667516030962E-04
 -0.358364748985E-04 -0.357250583076E-04  0.327367311270E-04  0.362255030414E-03  0.805003324140E-03 -0.110462416267E-04  0.431800798488E-03
  0.424973639740E-04 -0.641991999878E-04  0.392401216324E-05  0.841275255334E-04  0.269444713695E-04  0.332997143032E-03  0.227432298889E-04
 -0.607250097565E-04 -0.274126085682E-05  0.240844429146E-04 -0.665110494497E-04  0.335052625287E-03  0.868983515274E-05 -0.601086134796E-05
 -0.129652928564E-04 -0.468282774436E-06  0.233481300014E-04 -0.566845392893E-04 -0.214438390454E-04 -0.215842950188E-04 -0.666347026804E-04
  0.112044092907E-05 -0.740846770981E-05 -0.279599513535E-04 -0.129583828577E-04 -0.104359460000E-04
 -0.725373849398E-05  0.109300741014E-04  0.148978422851E-05 -0.436863871150E-04 -0.993247046783E-04  0.190032350547E-04  0.199131846166E-04
 -0.251429949013E-05 -0.100117746017E-04 -0.147756842673E-05 -0.754485134419E-05  0.365265328802E-04  0.243717901761E-04  0.169923970430E-05
 -0.191947656865E-05 -0.106016548585E-05 -0.360491917836E-05 -0.361395059888E-05  0.461587109772E-05  0.864827180804E-06  0.879779582246E-06
  0.986722873038E-06 -0.727090865541E-07 -0.713018978408E-06  0.614042463097E-06  0.371555426104E-06  0.749606957255E-06  0.968193087056E-06
  0.311139274556E-06 -0.848048296363E-07  0.129550332252E-06 -0.668223260525E-07  0.630345555620E-06
 -0.474070475852E-04 -0.771141328091E-04 -0.562903900579E-05  0.554214035965E-04  0.586236708247E-04 -0.371231111207E-04 -0.489248541375E-04
  0.321213099938E-04  0.125485321448E-03  0.493257568733E-04  0.147055543103E-03 -0.620549571785E-04  0.215102852896E-04  0.156060493971E-04
  0.226232582266E-04  0.286863321070E-04  0.762278719551E-04  0.137170345597E-04 -0.777966798786E-04  0.837650496549E-05  0.199459098297E-04
  0.769664213136E-05  0.121861402273E-04  0.291665006137E-04  0.293651807788E-04  0.643292366021E-05  0.715009416513E-06  0.199987306903E-04
  0.330547548073E-05  0.120331864897E-04  0.324147344759E-05  0.507537254363E-05 -0.614873005793E-06
  0.743967451718E-03  0.765060617169E-04  0.101215535454E-03 -0.803148871595E-03 -0.258348999029E-02 -0.746062993633E-04 -0.161588801293E-02
  0.106619372462E-03  0.664071827848E-04  0.491655187061E-04 -0.546938983665E-03 -0.220981698455E-03 -0.116285750265E-02  0.170604798419E-04
  0.104754648082E-03  0.133351934894E-04 -0.246329075589E-03  0.105968726264E-03 -0.862689543180E-03  0.804094058303E-05  0.257472306347E-05
  0.227015064237E-04  0.678615121436E-05 -0.811712054446E-04  0.586040632697E-04  0.584897285271E-04  0.384514338586E-04  0.136838728154E-03
  0.819427110684E-05  0.912187128080E-05  0.473407088507E-04  0.330074833954E-04  0.274349961563E-04
        15         9        16        16
        15        18        11        11
        22        15        21        21
        11         5         9         9
         5         7         2         2
        11         9        15        15
        16        21        15        15
        16        10        14        14
        18        17        11        11
        17        25        24        24
        22        18        15        15
        22        30        31        31
        30        21        23        23
        16        20        23        23
        22        27        26        26
        10         9         4         4
         7        11        13        13
        25        18        26        26
        11         7         5         5
         5         1         4         4
        17        19        13        13
        23        32        30        30
        23        20        29        29
         4         9         5         5
         4         8        10        10
        26        18        22        22
        26        28        25        25
        13        11        17        17
        13         6         7         7
        31        30        32        32
         2         1         5         5
         2         7         6         6
        14        10         8         8
        24        19        17        17
        24        25        28        28
         9        10        16        16
         3         4         1         1
        33        26        27        27
        12        13        19        19
        21        30        22        22
        16        14        20        20
        16        23        21        21
        22        31        27        27
        18        25        17        17
        26        33        28        28
         4         3         8         8
        23        29        32        32
        13        12         6         6
zone t="boundary 4 bc-4", solutiontime= 0.2000000E+02, strandid=1004, i=32, j=46, f=feblock
  0.125000000000E+01  0.219251206392E+01  0.103724302461E+01  0.500000000000E+01  0.250000000000E+01  0.375000000000E+01  0.404200324774E+01
  0.500000000000E+01  0.000000000000E+00  0.310152362409E+01  0.202479342020E+01  0.324151231464E+01  0.922061490191E+00  0.000000000000E+00
  0.299062775774E+01  0.394624082883E+01  0.500000000000E+01  0.409252726285E+01  0.500000000000E+01  0.429310310915E+01  0.175434191980E+01
  0.284428995242E+01  0.000000000000E+00  0.000000000000E+00  0.715990576545E+00  0.930412228790E+00  0.125000000000E+01  0.187029682677E+01
  0.500000000000E+01  0.375000000000E+01  0.250000000000E+01  0.000000000000E+00
  0.250000000000E+01  0.157686156160E+01  0.146289271009E+01  0.250000000000E+01  0.250000000000E+01  0.250000000000E+01  0.155830813274E+01
  0.125000000000E+01  0.250000000000E+01  0.177790177481E+01  0.477386199275E+00  0.742988685424E+00  0.308372018325E+00  0.125000000000E+01
 -0.487811078581E+00 -0.144524380962E+01 -0.125000000000E+01 -0.345533899378E+00  0.000000000000E+00  0.627766083140E+00 -0.739814786992E+00
 -0.158811787973E+01  0.000000000000E+00 -0.125000000000E+01 -0.600232012419E+00 -0.154800130438E+01 -0.250000000000E+01 -0.178862290564E+01
 -0.250000000000E+01 -0.250000000000E+01 -0.250000000000E+01 -0.250000000000E+01
  0.500000000000E+01  0.500000000000E+01  0.500000000000E+01  0.500000000000E+01  0.500000000000E+01  0.500000000000E+01  0.500000000000E+01
  0.500000000000E+01  0.500000000000E+01  0.500000000000E+01  0.500000000000E+01  0.500000000000E+01  0.500000000000E+01  0.500000000000E+01
  0.500000000000E+01  0.500000000000E+01  0.500000000000E+01  0.500000000000E+01  0.500000000000E+01  0.500000000000E+01  0.500000000000E+01
  0.500000000000E+01  0.500000000000E+01  0.500000000000E+01  0.500000000000E+01  0.500000000000E+01  0.500000000000E+01  0.500000000000E+01
  0.500000000000E+01  0.500000000000E+01  0.500000000000E+01  0.500000000000E+01
  0.488562428343E+00  0.488873127044E+00  0.490562939264E+00  0.492980744788E+00  0.486460936507E+00  0.484596927548E+00  0.485347896276E+00
  0.494163542317E+00  0.495346592024E+00  0.486528232758E+00  0.487819998460E+00  0.487068916091E+00  0.494045904395E+00  0.496127394917E+00
  0.487612357629E+00  0.483219722850E+00  0.492395510969E+00  0.487214141159E+00  0.494738985333E+00  0.487958525499E+00  0.489677249447E+00
  0.488029107105E+00  0.497246279768E+00  0.496059270892E+00  0.494951052257E+00  0.492800373677E+00  0.490002767114E+00  0.490005124553E+00
  0.491352304715E+00  0.486075475228E+00  0.490036479234E+00  0.495098264817E+00
  0.100215267510E+01  0.100152652958E+01  0.100178347660E+01  0.100047670023E+01  0.100126820231E+01  0.100066573360E+01  0.100025357725E+01
  0.100050391679E+01  0.100179336279E+01  0.100112367258E+01  0.100133045248E+01  0.100072432973E+01  0.100164366725E+01  0.100168844809E+01
  0.100096274503E+01  0.100000874853E+01  0.100082864314E+01  0.100022269190E+01  0.100062146074E+01  0.100023497311E+01  0.100174635719E+01
  0.100098855496E+01  0.100118726928E+01  0.100134171022E+01  0.100132635956E+01  0.100179873777E+01  0.100192656835E+01  0.100163748619E+01
  0.100045434508E+01  0.100058774183E+01  0.100109993754E+01  0.100176112495E+01
 -0.903416740137E-04 -0.831766951508E-04 -0.516042311273E-04 -0.270018835822E-04 -0.112167856522E-03 -0.844856549862E-04 -0.567032896826E-04
 -0.259131576282E-04 -0.667516030962E-04 -0.110028614444E-03 -0.373857821450E-04 -0.546017490704E-04  0.116087041439E-04 -0.522311175605E-04
  0.746989082264E-05  0.230971437946E-04  0.420611664757E-05 -0.380146941895E-05 -0.899825972914E-05 -0.409945819684E-04  0.564041450623E-04
  0.667112939883E-04  0.375285896075E-04  0.104912184429E-03  0.743690637740E-04  0.900945850068E-04  0.107928279742E-03  0.107192469692E-03
  0.138330914703E-04  0.569460364062E-04  0.962878053569E-04  0.935041317488E-04