# vtk DataFile Version 2.0
FUN3D:global_image_vtk
ASCII
DATASET UNSTRUCTURED_GRID
POINTS 213 double
    0.0000000000000000E+00    0.2500000000000000E+01    0.0000000000000000E+00
    0.1250000000000000E+01    0.2500000000000000E+01    0.0000000000000000E+00
    0.2500000000000000E+01    0.2500000000000000E+01    0.0000000000000000E+00
    0.3750000000000000E+01    0.2500000000000000E+01    0.0000000000000000E+00
    0.5000000000000000E+01    0.2500000000000000E+01    0.0000000000000000E+00
    0.5000000000000000E+01    0.1250000000000000E+01    0.0000000000000000E+00
    0.5000000000000000E+01    0.0000000000000000E+00    0.0000000000000000E+00
    0.5000000000000000E+01   -0.1250000000000000E+01    0.0000000000000000E+00
    0.5000000000000000E+01   -0.2500000000000000E+01    0.0000000000000000E+00
    0.3750000000000000E+01   -0.2500000000000000E+01    0.0000000000000000E+00
    0.2500000000000000E+01   -0.2500000000000000E+01    0.0000000000000000E+00
    0.1250000000000000E+01   -0.2500000000000000E+01    0.0000000000000000E+00
    0.0000000000000000E+00   -0.2500000000000000E+01    0.0000000000000000E+00
    0.0000000000000000E+00   -0.1250000000000000E+01    0.0000000000000000E+00
    0.0000000000000000E+00    0.0000000000000000E+00    0.0000000000000000E+00
    0.0000000000000000E+00    0.1250000000000000E+01    0.0000000000000000E+00
    0.9058375365086910E+00    0.1578994732800803E+01    0.0000000000000000E+00
    0.3982050490726493E+01   -0.1583989954232354E+01    0.0000000000000000E+00
    0.4033849428301197E+01    0.1453322699199022E+01    0.0000000000000000E+00
    0.1040505887381675E+01   -0.1479596339503735E+01    0.0000000000000000E+00
    0.1099454400140349E+01   -0.3227322616384110E+00    0.0000000000000000E+00
    0.7354504170366591E+00    0.6593508822075582E+00    0.0000000000000000E+00
    0.1622302608453282E+01    0.8256214013940779E+00    0.0000000000000000E+00
    0.2145871574390382E+01   -0.1650070333782557E+01    0.0000000000000000E+00
    0.4086422318222992E+01   -0.4612828702537229E+00    0.0000000000000000E+00
    0.2979540174134984E+01   -0.8579242121530853E+00    0.0000000000000000E+00
    0.3045064261640043E+01   -0.1836846154397680E+01    0.0000000000000000E+00
    0.3428197553792836E+01    0.3508002863614053E+00    0.0000000000000000E+00
    0.4309693860063405E+01    0.5185680230613409E+00    0.0000000000000000E+00
    0.1827272193562204E+01    0.1738996113203182E+01    0.0000000000000000E+00
    0.2808563282768077E+01    0.1325493893339706E+01    0.0000000000000000E+00
    0.1895995683864404E+01   -0.8731419609589618E+00    0.0000000000000000E+00
    0.2273179336307740E+01    0.4906150219227333E-01    0.0000000000000000E+00
    0.5000000000000000E+01    0.2500000000000000E+01    0.1250000000000000E+01
    0.5000000000000000E+01    0.2500000000000000E+01    0.2500000000000000E+01
    0.5000000000000000E+01    0.2500000000000000E+01    0.3750000000000000E+01
    0.5000000000000000E+01    0.2500000000000000E+01    0.5000000000000000E+01
    0.3750000000000000E+01    0.2500000000000000E+01    0.5000000000000000E+01
    0.2500000000000000E+01    0.2500000000000000E+01    0.5000000000000000E+01
    0.1250000000000000E+01    0.2500000000000000E+01    0.5000000000000000E+01
    0.0000000000000000E+00    0.2500000000000000E+01    0.5000000000000000E+01
    0.0000000000000000E+00    0.2500000000000000E+01    0.3750000000000000E+01
    0.0000000000000000E+00    0.2500000000000000E+01    0.2500000000000000E+01
    0.0000000000000000E+00    0.2500000000000000E+01    0.1250000000000000E+01
    0.9631080833812172E+00    0.2500000000000000E+01    0.9613285771248219E+00
    0.3981732467264904E+01    0.2500000000000000E+01    0.4069753913607991E+01
    0.4035525118777670E+01    0.2500000000000000E+01    0.1012015867579395E+01
    0.9641717640894248E+00    0.2500000000000000E+01    0.3972455192261839E+01
    0.1547743040396780E+01    0.2500000000000000E+01    0.2928177746738678E+01
    0.6985170616192014E+00    0.2500000000000000E+01    0.3068281976055466E+01
    0.8931277594515110E+00    0.2500000000000000E+01    0.2052465503257726E+01
    0.2183293750162785E+01    0.2500000000000000E+01    0.3959073795658649E+01
    0.3855333506014705E+01    0.2500000000000000E+01    0.2931218481500625E+01
    0.3152495579421047E+01    0.2500000000000000E+01    0.3635850502723324E+01
    0.3103247580566054E+01    0.2500000000000000E+01    0.4331682712472464E+01
    0.3266837581688852E+01    0.2500000000000000E+01    0.1886092433583972E+01
    0.4231539241296245E+01    0.2500000000000000E+01    0.1915865356532799E+01
    0.1909741006522088E+01    0.2500000000000000E+01    0.7170024419130505E+00
    0.2880784107213163E+01    0.2500000000000000E+01    0.9046598906449592E+00
    0.2014316024535771E+01    0.2500000000000000E+01    0.1762464314805728E+01
    0.2670003247036656E+01    0.2500000000000000E+01    0.2850479545835163E+01
    0.5000000000000000E+01    0.1250000000000000E+01    0.5000000000000000E+01
    0.5000000000000000E+01    0.0000000000000000E+00    0.5000000000000000E+01
    0.5000000000000000E+01   -0.1250000000000000E+01    0.5000000000000000E+01
    0.5000000000000000E+01   -0.2500000000000000E+01    0.5000000000000000E+01
    0.5000000000000000E+01   -0.2500000000000000E+01    0.3750000000000000E+01
    0.5000000000000000E+01   -0.2500000000000000E+01    0.2500000000000000E+01
    0.5000000000000000E+01   -0.2500000000000000E+01    0.1250000000000000E+01
    0.5000000000000000E+01    0.1578994732800803E+01    0.9058375365086910E+00
    0.5000000000000000E+01   -0.1583989954232354E+01    0.3982050490726493E+01
    0.5000000000000000E+01    0.1453322699199022E+01    0.4033849428301197E+01
    0.5000000000000000E+01   -0.1479596339503735E+01    0.1040505887381675E+01
    0.5000000000000000E+01   -0.3227322616384110E+00    0.1099454400140349E+01
    0.5000000000000000E+01    0.6593508822075582E+00    0.7354504170366591E+00
    0.5000000000000000E+01    0.8256214013940779E+00    0.1622302608453282E+01
    0.5000000000000000E+01   -0.1650070333782557E+01    0.2145871574390382E+01
    0.5000000000000000E+01   -0.4612828702537229E+00    0.4086422318222992E+01
    0.5000000000000000E+01   -0.8579242121530853E+00    0.2979540174134984E+01
    0.5000000000000000E+01   -0.1836846154397680E+01    0.3045064261640043E+01
    0.5000000000000000E+01    0.3508002863614053E+00    0.3428197553792836E+01
    0.5000000000000000E+01    0.5185680230613409E+00    0.4309693860063405E+01
    0.5000000000000000E+01    0.1738996113203182E+01    0.1827272193562204E+01
    0.5000000000000000E+01    0.1325493893339706E+01    0.2808563282768077E+01
    0.5000000000000000E+01   -0.8731419609589618E+00    0.1895995683864404E+01
    0.5000000000000000E+01    0.4906150219227333E-01    0.2273179336307740E+01
    0.0000000000000000E+00    0.1250000000000000E+01    0.5000000000000000E+01
    0.0000000000000000E+00    0.0000000000000000E+00    0.5000000000000000E+01
    0.0000000000000000E+00   -0.1250000000000000E+01    0.5000000000000000E+01
    0.0000000000000000E+00   -0.2500000000000000E+01    0.5000000000000000E+01
    0.1250000000000000E+01   -0.2500000000000000E+01    0.5000000000000000E+01
    0.2500000000000000E+01   -0.2500000000000000E+01    0.5000000000000000E+01
    0.3750000000000000E+01   -0.2500000000000000E+01    0.5000000000000000E+01
    0.4042003247744892E+01    0.1558308132739014E+01    0.5000000000000000E+01
    0.9304122287900499E+00   -0.1548001304379777E+01    0.5000000000000000E+01
    0.1037243024609388E+01    0.1462892710085612E+01    0.5000000000000000E+01
    0.3946240828834967E+01   -0.1445243809615570E+01    0.5000000000000000E+01
    0.4092527262848217E+01   -0.3455338993778935E+00    0.5000000000000000E+01
    0.4293103109154542E+01    0.6277660831404320E+00    0.5000000000000000E+01
    0.3241512314643519E+01    0.7429886854239611E+00    0.5000000000000000E+01
    0.2844289952419609E+01   -0.1588117879734118E+01    0.5000000000000000E+01
    0.7159905765450471E+00   -0.6002320124191652E+00    0.5000000000000000E+01
    0.1754341919796891E+01   -0.7398147869923652E+00    0.5000000000000000E+01
    0.1870296826774691E+01   -0.1788622905643739E+01    0.5000000000000000E+01
    0.9220614901912976E+00    0.3083720183248586E+00    0.5000000000000000E+01
    0.3101523624086016E+01    0.1777901774806180E+01    0.5000000000000000E+01
    0.2192512063922564E+01    0.1576861561598471E+01    0.5000000000000000E+01
    0.2024793420196460E+01    0.4773861992750707E+00    0.5000000000000000E+01
    0.2990627757741975E+01   -0.4878110785814084E+00    0.5000000000000000E+01
    0.0000000000000000E+00   -0.2500000000000000E+01    0.1250000000000000E+01
    0.0000000000000000E+00   -0.2500000000000000E+01    0.2500000000000000E+01
    0.0000000000000000E+00   -0.2500000000000000E+01    0.3750000000000000E+01
    0.0000000000000000E+00    0.1558308132739014E+01    0.4042003247744892E+01
    0.0000000000000000E+00   -0.1548001304379777E+01    0.9304122287900499E+00
    0.0000000000000000E+00    0.1462892710085612E+01    0.1037243024609388E+01
    0.0000000000000000E+00   -0.1445243809615570E+01    0.3946240828834967E+01
    0.0000000000000000E+00   -0.3455338993778935E+00    0.4092527262848217E+01
    0.0000000000000000E+00    0.6277660831404320E+00    0.4293103109154542E+01
    0.0000000000000000E+00    0.7429886854239611E+00    0.3241512314643519E+01
    0.0000000000000000E+00   -0.1588117879734118E+01    0.2844289952419609E+01
    0.0000000000000000E+00   -0.6002320124191652E+00    0.7159905765450471E+00
    0.0000000000000000E+00   -0.7398147869923652E+00    0.1754341919796891E+01
    0.0000000000000000E+00   -0.1788622905643739E+01    0.1870296826774691E+01
    0.0000000000000000E+00    0.3083720183248586E+00    0.9220614901912976E+00
    0.0000000000000000E+00    0.1777901774806180E+01    0.3101523624086016E+01
    0.0000000000000000E+00    0.1576861561598471E+01    0.2192512063922564E+01
[...]
POINT_DATA 213
SCALARS p double 1
LOOKUP_TABLE default
   0.9601845740242966E+00
   0.6835472545549689E+00
   0.6759188554620924E+00
   0.6727508793739659E+00
   0.6026583842149583E+00
   0.5527092224082972E+00
   0.5449824281754858E+00
   0.5474659210496564E+00
   0.5934157100107997E+00
   0.6680652534599693E+00
   0.6672971071696970E+00
   0.6869378061643900E+00
   0.1035319215967290E+01
   0.1067199245062662E+01
   0.1174752257522799E+01
   0.1018442051355048E+01
   0.7207176559282005E+00
   0.6791962902771663E+00
   0.6740293101422620E+00
   0.6843920963180611E+00
   0.6725552701194132E+00
   0.7402627338528568E+00
   0.6611481362466350E+00
   0.6658775743608784E+00
   0.6812431870867804E+00
   0.6799071409947733E+00
   0.6677515832890925E+00
   0.6831383896473667E+00
   0.6697150748044692E+00
   0.6643261876019396E+00
   0.6746471020967956E+00
   0.6331027444236650E+00
   0.6731069512870075E+00
   0.6772748606162814E+00
   0.7228666462644199E+00
   0.7222845323625412E+00
   0.7160301817059145E+00
   0.7170624703820886E+00
   0.7181467832706863E+00
   0.7195660953908912E+00
   0.7186152939441580E+00
   0.7227816709939469E+00
   0.7373952390463553E+00
   0.7823405623731297E+00
   0.7197263589587880E+00
   0.7165465362442606E+00
   0.6760937654451559E+00
   0.7194412641922077E+00
   0.7166029227603526E+00
   0.7226829109729211E+00
   0.7260674140055222E+00
   0.7165516437826503E+00
   0.7137009467301535E+00
   0.7161286369456773E+00
   0.7158478221790533E+00
   0.6952018279016888E+00
   0.6962508660105827E+00
   0.6900664825702377E+00
   0.6913089214758145E+00
   0.7033440686571270E+00
   0.7094477591260857E+00
   0.7160833444428983E+00
   0.7162551806526153E+00
   0.7165048971080761E+00
   0.7158927992232396E+00
   0.7247708298256356E+00
   0.7209599624940027E+00
   0.6725916907411358E+00
   0.6451086117578643E+00
   0.7221025485950585E+00
   0.7196942788984770E+00
   0.6358201233144763E+00
   0.6307823994932495E+00
   0.5995171497159724E+00
   0.6915342868693756E+00
   0.7155282297281101E+00
   0.7212040273143445E+00
   0.7290141687002694E+00
   0.7268955521749924E+00
   0.7265266119781939E+00
   0.7204471071515827E+00
   0.7037444564122916E+00
   0.7205074720199913E+00
   0.7023658444745821E+00
   0.7220890692797329E+00
   0.7185311616916555E+00
   0.7171993831116812E+00
   0.7176368709133968E+00
   0.7184006346828110E+00
   0.7193129381151596E+00
   0.7173679395336297E+00
   0.7166089050647669E+00
   0.7163146175236442E+00
   0.7184763665597867E+00
   0.7186510913637337E+00
   0.7154647738099593E+00
   0.7160687958189679E+00
   0.7162707474315869E+00
   0.7172831169120198E+00
   0.7174032352306018E+00
   0.7175449119531957E+00
   0.7186985330957401E+00
   0.7185411569143713E+00
   0.7180782373251586E+00
   0.7177506857918413E+00
   0.7184734753633867E+00
   0.7184295820755339E+00
   0.7175640062876479E+00
   0.7910432358139529E+00
   0.7417997376126978E+00
   0.7240565801837063E+00
   0.7207850483195356E+00
   0.8583171414263466E+00
   0.8087266582475031E+00
   0.7221079498931972E+00
   0.7211515872043760E+00
   0.7210134488484200E+00
   0.7257592115280550E+00
   0.7326284036607806E+00
   0.9166201479000710E+00
   0.7574552511230230E+00
   0.7600187866206134E+00
   0.8794464998696098E+00
   0.7291883438038492E+00
   0.7461258923399060E+00
   0.7435539730040820E+00
   0.7280650735038242E+00
   0.7236946763045443E+00
   0.7165805629880768E+00
   0.6757027343806865E+00
   0.7210107214274358E+00
   0.7177372390181115E+00
   0.7243728499640717E+00
   0.7309376750510247E+00
   0.7153766025235123E+00
   0.7126912818714500E+00
   0.7132989920996006E+00
   0.7154575407853420E+00
   0.6958116454764067E+00
   0.6940931889033156E+00
   0.6792013357825887E+00
   0.6842575724936176E+00
   0.7023438531949955E+00
   0.7064295576215475E+00
   0.7092517272500943E+00
   0.7176150519701986E+00
   0.7173907507179930E+00
   0.7117195298811411E+00
   0.7288325394551392E+00
   0.7352320755135129E+00
   0.7097528667165586E+00
   0.7230454856250469E+00
   0.7189791260722042E+00
   0.7231643012768884E+00
   0.7128301571205701E+00
   0.6918504427565438E+00
   0.7175392719219473E+00
   0.7113154407356358E+00
   0.6973279122825294E+00
   0.7095405084388510E+00
   0.7134566864279502E+00
   0.7078903640366535E+00
   0.7159200129383710E+00
   0.7175571221473851E+00
   0.7166975364325719E+00
   0.7110658755090405E+00
   0.7103507995000857E+00
   0.7187207608836060E+00
   0.7362200277985246E+00
   0.7210421340822685E+00
   0.6966939456336910E+00
   0.7191727736895616E+00
   0.7279738955353879E+00
   0.6957914052748898E+00
   0.6741416330502571E+00
   0.7020822668504348E+00
   0.7006029871232088E+00
   0.6996546969650103E+00
   0.7043407158199220E+00
   0.6875489169299683E+00
   0.7541446164822903E+00
   0.7257239737785649E+00
   0.7163731270744630E+00
   0.7164942518077558E+00
   0.7072984461485899E+00
   0.7062390211666568E+00
   0.6798335014375986E+00
   0.7081025609906580E+00
   0.7211943107175091E+00
   0.7177390645439442E+00
   0.7069476660856914E+00
   0.6847284195752595E+00
   0.6585994500473794E+00
   0.6907374311116156E+00
   0.6956029693809367E+00
   0.6931211809600620E+00
   0.6873769268034456E+00
   0.6731746130705089E+00
   0.6669554868609862E+00
   0.6793677409763845E+00
   0.7172154570556127E+00
   0.7168066289261394E+00
   0.7154500209758144E+00
   0.7175318002721685E+00
   0.6789124216252621E+00
   0.6691426204019634E+00
   0.6790155449042431E+00
   0.7156263625239631E+00
   0.7152942599644255E+00
   0.7168559605118542E+00
   0.6951126136580891E+00
   0.6910823188904056E+00
   0.6838695901293895E+00
SCALARS mach double 1
LOOKUP_TABLE default
   0.0000000000000000E+00
   0.0000000000000000E+00
   0.0000000000000000E+00
   0.0000000000000000E+00
   0.0000000000000000E+00
   0.0000000000000000E+00
   0.0000000000000000E+00
   0.0000000000000000E+00
   0.0000000000000000E+00
   0.0000000000000000E+00
   0.0000000000000000E+00
   0.0000000000000000E+00
   0.0000000000000000E+00
   0.0000000000000000E+00
   0.0000000000000000E+00
   0.0000000000000000E+00
   0.0000000000000000E+00
   0.0000000000000000E+00
   0.0000000000000000E+00
   0.0000000000000000E+00
   0.0000000000000000E+00
   0.0000000000000000E+00
   0.0000000000000000E+00
   0.0000000000000000E+00
   0.0000000000000000E+00
   0.0000000000000000E+00
   0.0000000000000000E+00
   0.0000000000000000E+00
   0.0000000000000000E+00
   0.0000000000000000E+00
   0.0000000000000000E+00
   0.0000000000000000E+00
   0.0000000000000000E+00
   0.5092321286882374E+00
   0.5345270965428685E+00
   0.5171823317910097E+00
   0.4929807447877027E+00
   0.4845969275475658E+00
   0.4864609365068379E+00
   0.4885624283426431E+00
   0.4953465920244711E+00
   0.4889616546284160E+00
   0.4698149743589460E+00
   0.4412383483839613E+00
   0.4905632998403552E+00
   0.5094885711783389E+00
   0.4437677454590778E+00
   0.4944837802123341E+00
   0.5220520001695297E+00
   0.4956144424140239E+00
   0.5227305173848368E+00
   0.5036874575340846E+00
   0.5643915777492764E+00
   0.5242286307631810E+00
   0.4990055522222008E+00
   0.5758321797542908E+00
   0.5737074052850119E+00
   0.3775503695450436E+00
   0.4022869445744081E+00
   0.5625540644123820E+00
   0.5565869821701172E+00
   0.4941635423173966E+00
   0.4947389853327491E+00
   0.4923955109685265E+00
   0.4913523047146092E+00
   0.5149940906510041E+00
   0.5370020989444526E+00
   0.5084603626756785E+00
   0.4720987497508567E+00
   0.5119110004439287E+00
   0.5110367654699175E+00
   0.4956047896359246E+00
   0.5103561974845761E+00
   0.4808056292974688E+00
   0.5354790213868437E+00
   0.5337784729895086E+00
   0.5120041820967469E+00
   0.5311733880874840E+00
   0.5295542088127094E+00
   0.5292773790035651E+00
   0.5056211277685306E+00
   0.5358292845436760E+00
   0.5407860454911976E+00
   0.5429798208267048E+00
   0.5391875778798602E+00
   0.4961273949168940E+00
   0.4972462797680677E+00
   0.4960592708923248E+00
   0.4950982648172470E+00
   0.4900027671137506E+00
   0.4900364792339926E+00
   0.4860754752275607E+00
   0.4853478962756881E+00
   0.4928003736773012E+00
   0.4905629392636377E+00
   0.4832197228497443E+00
   0.4872141411591314E+00
   0.4879585254990566E+00
   0.4870689160914534E+00
   0.4880291071053267E+00
   0.4949510522567103E+00
   0.4896772494467646E+00
   0.4900051245530803E+00
   0.4940459043954845E+00
   0.4865282327582479E+00
   0.4888731270442539E+00
   0.4878199984598585E+00
   0.4876123576287887E+00
   0.4436241038325106E+00
   0.4677323553618960E+00
   0.4882120873616307E+00
   0.4879300731180232E+00
   0.4647757214141848E+00
   0.4752149870209031E+00
   0.4869644619573434E+00
   0.4862860839017938E+00
   0.4902661034461376E+00
   0.4787140341842359E+00
   0.4643822746341332E+00
   0.4023025167976111E+00
   0.4892982416505288E+00
   0.4457176180510611E+00
   0.4688278154046668E+00
   0.4830685578878482E+00
   0.4601237088558927E+00
   0.4644111289415797E+00
   0.4737956518906961E+00
   0.5010560691401191E+00
   0.5082472571596077E+00
   0.4353730265724010E+00
   0.4921558737488883E+00
   0.5316571439089068E+00
   0.4906637304530636E+00
   0.5207955793988520E+00
   0.5059810165926768E+00
   0.5689225538704933E+00
   0.5272528531301341E+00
   0.5013907846756147E+00
   0.5852861574241049E+00
   0.5726400411898842E+00
   0.3436298249495283E+00
   0.3809919065000202E+00
   0.5793732642824619E+00
   0.5674466611269144E+00
   0.5707661301875800E+00
   0.5288674105865153E+00
   0.5447474708199084E+00
   0.5732738932134662E+00
   0.5383806742352750E+00
   0.5542561224411965E+00
   0.5870628107921314E+00
   0.4918959448320269E+00
   0.5038453890705665E+00
   0.4955067982845019E+00
   0.5581662346260585E+00
   0.4899056023112426E+00
   0.4947399858114792E+00
   0.5497811572678012E+00
   0.5912734681445135E+00
   0.5845151569140403E+00
   0.5465424483995845E+00
   0.5815226327963641E+00
   0.5103943166660155E+00
   0.5026513620293331E+00
   0.5030709427743110E+00
   0.5675226582922590E+00
   0.5563190488095503E+00
   0.4944364432531722E+00
   0.5523477306645915E+00
   0.5528919112373016E+00
   0.5690573841044615E+00
   0.4915644805559380E+00
   0.4913820764975771E+00
   0.3894733665634273E+00
   0.3711849878507571E+00
   0.5592900888969404E+00
   0.5784861273160502E+00
   0.4227809176929663E+00
   0.5854895193072578E+00
   0.4393478858449860E+00
   0.5443824414565382E+00
   0.5169049097856314E+00
   0.5115815953673866E+00
   0.5046277146447654E+00
   0.5758026301608526E+00
   0.5884501301008032E+00
   0.5427333905795313E+00
   0.5687409195432054E+00
   0.5341714863617306E+00
   0.5330406137193944E+00
   0.5585868075466139E+00
   0.5562747472404300E+00
   0.4330679888818519E+00
   0.5315658203819696E+00
   0.5812986078241775E+00
   0.3318904260716068E+00
   0.4786019948049018E+00
   0.5494651718965212E+00
   0.4851065755308532E+00
   0.3009035383570768E+00
   0.5029782577802353E+00
   0.5014720025596254E+00
   0.5126186510692333E+00
   0.5407121394677464E+00
   0.3456737236944786E+00
   0.3422982186265140E+00
   0.3204829445609310E+00
   0.5064074943953218E+00
   0.5121142797206768E+00
   0.5323885968803939E+00
   0.5909251026950708E+00
   0.4690182245389191E+00
   0.3541839068089696E+00
SCALARS temperature double 1
LOOKUP_TABLE default
   0.9999902950284468E+00
   0.9999898271435358E+00
   0.9999894087637140E+00
   0.9999893394392484E+00
   0.9999896268534557E+00
   0.9999902801417729E+00
   0.9999914900878947E+00
   0.9999928209134540E+00
   0.9999934873786556E+00
   0.9999936900573987E+00
   0.9999935431152184E+00
   0.9999931372824733E+00
   0.9999927217915949E+00
   0.9999921680956652E+00
   0.9999914167002263E+00
   0.9999907579027268E+00
   0.9999903697584197E+00
   0.9999933954805892E+00
   0.9999895978573277E+00
   0.9999925183348179E+00
   0.9999916437866543E+00
   0.9999909171541056E+00
   0.9999905799388658E+00
   0.9999931528570588E+00
   0.9999921404299006E+00
   0.9999926888376077E+00
   0.9999934788854811E+00
   0.9999904888573081E+00
   0.9999906830730236E+00
   0.9999897964856524E+00
   0.9999896175366976E+00
   0.9999923171068693E+00
   0.9999912292550894E+00
   0.9841043090466388E+00
   0.1003683694135099E+01
   0.1004433194609071E+01
   0.1000476700230774E+01
   0.1000665733599425E+01
   0.1001268202306399E+01
   0.1002152675098923E+01
   0.1001793362787295E+01
   0.1003556600475969E+01
   0.1008262773085658E+01
   0.1029827194985591E+01
   0.9886520710365666E+00
   0.1001381923415682E+01
   0.9815418954596909E+00
   0.1001923895553429E+01
   0.1002521110429498E+01
   0.1002987871300773E+01
   0.1008348853202327E+01
   0.1000820565986973E+01
   0.1001185012186225E+01
   0.1001995366351201E+01
   0.1000565910527731E+01
   0.9904275458623134E+00
   0.9903552856939510E+00
   0.9824694624337034E+00
   0.9887739901941761E+00
   0.9943629970726666E+00
   0.9997691971132718E+00
   0.1000503916786845E+01
   0.1000621460740089E+01
   0.1000828643138279E+01
   0.1000454345081549E+01
   0.1004853066485825E+01
   0.1002896218370460E+01
   0.9850919064061131E+00
   0.9764441061582849E+00
   0.1003879513322258E+01
   0.1003053310348336E+01
   0.9735159853363122E+00
   0.9715375443687196E+00
   0.9590423275275901E+00
   0.9912163938357540E+00
   0.1001286318255599E+01
   0.1003832204858104E+01
   0.1007638626038982E+01
   0.1005965508811956E+01
   0.1006629406147144E+01
   0.1003140495984685E+01
   0.9944295066628810E+00
   0.1003551877339682E+01
   0.9972166486000690E+00
   0.1005285310165649E+01
   0.1001688448090961E+01
   0.1001187269278706E+01
   0.1001341710215460E+01
   0.1001761124952671E+01
   0.1001926568350519E+01
   0.1001099937538361E+01
   0.1000587741826660E+01
   0.1000253577251464E+01
   0.1001798737766684E+01
   0.1001783476603654E+01
   0.1000008748527448E+01
   0.1000222691903914E+01
   0.1000234973114633E+01
   0.1000724329727742E+01
   0.1000988554964500E+01
   0.1001326359561221E+01
   0.1001746357187587E+01
   0.1001637486194962E+01
   0.1001643667248820E+01
   0.1001123672576326E+01
   0.1001526529576609E+01
   0.1001330452479779E+01
   0.1000962745028953E+01
   0.1040432926696377E+01
   0.1009767884154639E+01
   0.1004053693521647E+01
   0.1002444004783248E+01
   0.1032397392140630E+01
   0.1042472942317083E+01
   0.1003033763767897E+01
   0.1002349664165525E+01
   0.1002603058420035E+01
   0.1003005482890655E+01
   0.1006175446919795E+01
   0.1038912236237525E+01
   0.1027028657000775E+01
   0.1016571530786248E+01
   0.1025206182931814E+01
   0.1006055632896288E+01
   0.1011900805243332E+01
   0.1012528338771673E+01
   0.1004595240900131E+01
   0.9844111124161192E+00
   0.1001215546986524E+01
   0.9846890808957453E+00
   0.1002544987420023E+01
   0.1003500295699928E+01
   0.1003264753673530E+01
   0.1010932762470368E+01
   0.1000580687232040E+01
   0.9998553692434115E+00
   0.1000556429306820E+01
   0.1000455873865008E+01
   0.9898389089668875E+00
   0.9900584648288320E+00
   0.9855247071744299E+00
   0.9895390558751922E+00
   0.9917985165800481E+00
   0.9978967934749997E+00
   0.1000400893404981E+01
   0.1002928479815745E+01
   0.1005009412288959E+01
   0.1002279614390575E+01
   0.1013233653209169E+01
   0.1006635843036586E+01
   0.9925739951029359E+00
   0.1003434961081350E+01
   0.1001788392862335E+01
   0.1003349470793246E+01
   0.1001319611341990E+01
   0.9637827337987014E+00
   0.1001225370462114E+01
   0.1000903075232849E+01
   0.9928717293275420E+00
   0.9989551104882159E+00
   0.1001501285688906E+01
   0.9978126688143314E+00
   0.1000980250259613E+01
   0.1001573610614519E+01
   0.1001190372069891E+01
   0.1000788544303932E+01
   0.1000698902760626E+01
   0.1001334702522324E+01
   0.1010421198734687E+01
   0.1004072587674199E+01
   0.9935537408851960E+00
   0.1001859604021580E+01
   0.1006698191131880E+01
   0.9867957633574533E+00
   0.9881138552934736E+00
   0.9963584704738629E+00
   0.9943138584832534E+00
   0.9875207330506142E+00
   0.9926774936466175E+00
   0.9669773016413501E+00
   0.1017801039671601E+01
   0.9830453693234009E+00
   0.1001476925412509E+01
   0.1001159214869484E+01
   0.9989608784643356E+00
   0.9976213901569292E+00
   0.9864413010912689E+00
   0.9980019947307330E+00
   0.1003591635942911E+01
   0.1002875045334429E+01
   0.9988425890253458E+00
   0.9841137244270010E+00
   0.9789347054642696E+00
   0.9848202573738011E+00
   0.9942457253983539E+00
   0.9999509975217457E+00
   0.9900002898680386E+00
   0.9860937293055857E+00
   0.9832200792069858E+00
   0.9981607934628520E+00
   0.1001438280658002E+01
   0.1001055040852918E+01
   0.1001120129553339E+01
   0.1002862397488563E+01
   0.9892632943019016E+00
   0.9869749579386368E+00
   0.9918320814370077E+00
   0.1000754853401015E+01
   0.1000915369204778E+01
   0.1002438879622795E+01
   0.9922711649827407E+00
   0.9866562988285890E+00
   0.9943602864306871E+00
SCALARS lambda1 double 1
LOOKUP_TABLE default
  -0.6134038587624524E-02
  -0.3875796116214478E-02
  -0.1333796241088314E-02
   0.1735017124196626E-02
   0.2849703716909639E-02
   0.2516344899504047E-02
   0.3254557346343564E-02
   0.2123903674515727E-02
   0.2508797550519103E-02
   0.1971945288494095E-02
   0.1194815222970464E-02
  -0.2386872401724536E-02
  -0.3037506425642339E-02
  -0.1705078344800238E-02
  -0.5106970434242844E-02
  -0.6971749616882900E-02
  -0.4210793967827016E-02
   0.2255562739150983E-02
   0.2417230429339845E-02
  -0.1972548351358309E-02
  -0.1466762402715040E-02
  -0.3484379735118501E-02
  -0.1453419575447362E-02
  -0.8760084618398596E-04
   0.2616822879269610E-02
   0.2517258718335175E-03
   0.2082040184735677E-03
   0.1092781628549745E-02
   0.2645650750173555E-02
  -0.1587515746300854E-02
  -0.2968857781284718E-03
  -0.1431433836851586E-02
  -0.6106310942197050E-03
   0.9770443436166912E-02
   0.4642862271553726E-02
   0.3161341661953954E-02
   0.2994198759871205E-02
   0.1302655678663526E-01
   0.2401487650569151E-01
   0.2568332417832970E-01
   0.3409065917694055E-01
   0.9369281990681084E-02
   0.1722696775968885E-02
  -0.3112423765824690E-01
  -0.4216509234707855E-01
   0.2410392905499593E-02
  -0.1633898941925619E-01
   0.8382990160575662E-02
   0.5244387452352192E-02
   0.4486847620060335E-02
  -0.1344123582172386E-02
   0.3164416509521696E-02
   0.3820404151249792E-02
   0.2311083919717045E-02
   0.3679815288484491E-02
   0.4913795255541041E-02
   0.6133845631641542E-02
  -0.6210259264140713E-01
  -0.6249340792224890E-01
  -0.1047766388156684E-01
   0.5424413906192446E-02
   0.2981417755567811E-02
   0.2765584013131212E-02
   0.3369713704466296E-02
   0.3456751501705218E-02
   0.2969820638810340E-02
   0.4419340254501057E-02
   0.6587007655159681E-02
   0.1225295657899074E-01
   0.2426815345693446E-02
   0.2535178255343037E-02
   0.4428724914507806E-02
   0.5529244173806898E-02
   0.3494856002808394E-02
   0.7004589794993321E-02
   0.5101058954406372E-02
   0.2218166543842650E-02
   0.3795712019666510E-02
   0.3702730384004416E-02
   0.3252983026507440E-02
   0.2014849635180749E-02
   0.6208149555623338E-02
   0.4025261350463343E-02
   0.5437350435719878E-02
   0.4879464581828231E-02
   0.3526397906204161E-01
   0.3884939204157666E-01
   0.3426639724957890E-01
   0.3219759581419851E-01
   0.2897592829602180E-01
   0.2546364170014547E-01
   0.1324406374036097E-01
   0.9058273824267332E-02
   0.2895173719258153E-01
   0.2557846706602057E-01
   0.8710841809495707E-02
   0.1109615357837503E-01
   0.1109088093828527E-01
   0.1875870799205429E-01
   0.1988819356724658E-01
   0.3611725921357326E-01
   0.3294077060600044E-01
   0.3064202567402413E-01
   0.3117919690152749E-01
   0.1996227658623794E-01
   0.2490635874835494E-01
   0.2676766668468124E-01
   0.2114056276810306E-01
  -0.2434296982204517E-01
   0.3516225511607463E-02
   0.6942452604906077E-02
   0.9379770130443062E-02
  -0.3806297069789663E-01
  -0.4968383843649952E-01
   0.6317179760672380E-02
   0.8123267377687291E-02
   0.1216320053897374E-01
   0.7062288460734792E-02
   0.4362128778279364E-02
  -0.5857426629237762E-01
  -0.3249173755414504E-02
  -0.1845498114145847E-02