title="tecplot geometry and solution file"
variables = x y z mach temperature lambda1 lambda2 lambda3 lambda4 lambda5
zone t="boundary 1 bc-1", solutiontime= 0.5000000E+03, strandid=1001, i=32, j=46, f=feblock
  0.000000000000E+00  0.000000000000E+00  0.000000000000E+00  0.000000000000E+00  0.000000000000E+00  0.000000000000E+00  0.000000000000E+00
  0.000000000000E+00  0.000000000000E+00  0.000000000000E+00  0.000000000000E+00  0.000000000000E+00  0.000000000000E+00  0.000000000000E+00
  0.000000000000E+00  0.000000000000E+00  0.000000000000E+00  0.000000000000E+00  0.000000000000E+00  0.000000000000E+00  0.000000000000E+00
  0.000000000000E+00  0.000000000000E+00  0.000000000000E+00  0.000000000000E+00  0.000000000000E+00  0.000000000000E+00  0.000000000000E+00
  0.000000000000E+00  0.000000000000E+00  0.000000000000E+00  0.000000000000E+00
  0.250000000000E+01  0.250000000000E+01  0.125000000000E+01  0.146289271009E+01  0.157686156160E+01  0.308372018325E+00  0.000000000000E+00
 -0.125000000000E+01 -0.600232012419E+00  0.250000000000E+01  0.477386199275E+00  0.742988685424E+00 -0.739814786992E+00  0.177790177481E+01
  0.155830813274E+01  0.250000000000E+01 -0.250000000000E+01 -0.154800130438E+01 -0.487811078581E+00  0.250000000000E+01  0.627766083140E+00
 -0.345533899378E+00 -0.178862290564E+01 -0.158811787973E+01  0.125000000000E+01 -0.250000000000E+01 -0.144524380962E+01  0.000000000000E+00
 -0.125000000000E+01 -0.250000000000E+01 -0.250000000000E+01 -0.250000000000E+01
  0.000000000000E+00  0.125000000000E+01  0.000000000000E+00  0.103724302461E+01  0.219251206392E+01  0.922061490191E+00  0.000000000000E+00
  0.000000000000E+00  0.715990576545E+00  0.250000000000E+01  0.202479342020E+01  0.324151231464E+01  0.175434191980E+01  0.310152362409E+01
  0.404200324774E+01  0.375000000000E+01  0.000000000000E+00  0.930412228790E+00  0.299062775774E+01  0.500000000000E+01  0.429310310915E+01
  0.409252726285E+01  0.187029682677E+01  0.284428995242E+01  0.500000000000E+01  0.125000000000E+01  0.394624082883E+01  0.500000000000E+01
  0.500000000000E+01  0.250000000000E+01  0.375000000000E+01  0.500000000000E+01
  0.000000000000E+00  0.441238348384E+00  0.000000000000E+00  0.475214987021E+00  0.460123708856E+00  0.468827815405E+00  0.000000000000E+00
  0.000000000000E+00  0.402302516798E+00  0.469814974359E+00  0.464411128942E+00  0.478714034184E+00  0.489298241651E+00  0.483068557888E+00
  0.487930073118E+00  0.488961654628E+00  0.000000000000E+00  0.464775721414E+00  0.473795651891E+00  0.495346592024E+00  0.490266103446E+00
  0.486286083902E+00  0.445717618051E+00  0.464382274634E+00  0.496127394917E+00  0.443624103833E+00  0.486964461957E+00  0.497246279768E+00
  0.496059270892E+00  0.467732355362E+00  0.488212087362E+00  0.495098264817E+00
  0.999990295028E+00  0.102982719499E+01  0.999990757903E+00  0.104247294232E+01  0.101190080524E+01  0.102520618293E+01  0.999991416700E+00
  0.999992168096E+00  0.103891223624E+01  0.100826277309E+01  0.101252833877E+01  0.100300548289E+01  0.102702865700E+01  0.100605563290E+01
  0.100244400478E+01  0.100355660048E+01  0.999992721792E+00  0.103239739214E+01  0.100459524090E+01  0.100179336279E+01  0.100260305842E+01
  0.100234966417E+01  0.101657153079E+01  0.100617544692E+01  0.100168844809E+01  0.104043292670E+01  0.100303376377E+01  0.100118726928E+01
  0.100134171022E+01  0.100976788415E+01  0.100405369352E+01  0.100176112495E+01
 -0.613403858762E-02 -0.311242376582E-01 -0.697174961688E-02 -0.496838384365E-01 -0.342127721981E-02 -0.589258133711E-01 -0.510697043424E-02
 -0.170507834480E-02 -0.585742662924E-01  0.172269677597E-02 -0.391807552979E-02  0.706228846073E-02 -0.324917375541E-02  0.393666161589E-02
  0.937977013044E-02  0.936928199068E-02 -0.303750642564E-02 -0.380629706979E-01  0.516641468124E-02  0.340906591769E-01  0.121632005390E-01
  0.812326737769E-02 -0.184549811415E-02  0.436212877828E-02  0.352639790620E-01 -0.243429698220E-01  0.631717976067E-02  0.388493920416E-01
  0.342663972496E-01  0.351622551161E-02  0.694245260491E-02  0.321975958142E-01
 -0.239463304295E-03 -0.452084265417E-02 -0.335129705503E-03 -0.636385553290E-02 -0.156914234375E-03 -0.891902822331E-02 -0.362284356417E-03
 -0.314457177667E-03 -0.870668008460E-02  0.797199969660E-03 -0.348798165313E-03  0.148755001089E-02  0.110015913929E-03  0.115180708465E-02
  0.183687534530E-02  0.205955823770E-02 -0.277602305167E-03 -0.591626500219E-02  0.103554281301E-02  0.699974181266E-02  0.241114637980E-02
  0.155527360557E-02  0.210933260937E-03  0.841286464192E-03  0.738321295105E-02 -0.298342154867E-02  0.124586315419E-02  0.816202573684E-02
  0.716956133694E-02  0.890263617153E-03  0.148011910801E-02  0.669750178538E-02
 -0.416181257750E-03 -0.127168706601E-03 -0.557039200907E-03 -0.126200122613E-02 -0.138861686585E-03 -0.625329518266E-03 -0.460482384553E-03
  0.174085387924E-03  0.350423652609E-04  0.137815768660E-04 -0.125667491052E-03 -0.124148264053E-03  0.148666049145E-03 -0.173864215322E-04
  0.554307858773E-04  0.267085837926E-05  0.236296086161E-03  0.792397738680E-03 -0.687864039888E-05 -0.354630176439E-05  0.395723110990E-04
  0.457986522982E-04  0.262817936933E-04  0.144348628738E-03 -0.863513719327E-04  0.101895403887E-03  0.835337596625E-04  0.221881794211E-04
  0.789813698044E-04  0.221981358227E-04  0.789575291103E-05 -0.677160129607E-05
  0.148883655597E-02  0.133249719256E-02  0.161548413551E-02  0.841972431373E-06 -0.144404267011E-02 -0.153621886349E-02  0.908498262351E-03
  0.779944015380E-03 -0.110055376490E-02 -0.158404435246E-02 -0.290587079071E-02 -0.159939381265E-02 -0.319831062178E-02 -0.149983296891E-02
 -0.110312654374E-02 -0.130052512697E-02  0.590918806531E-03 -0.926661190465E-03 -0.183350398129E-02 -0.461963036708E-03 -0.101987726058E-02
 -0.121213310772E-02 -0.215589718818E-02 -0.148292407058E-02 -0.443930259870E-03 -0.110152898006E-02 -0.110899568926E-02 -0.420251402154E-03
 -0.501512977812E-03 -0.167069899188E-02 -0.113460541099E-02 -0.492529553310E-03
  0.491470806710E-02  0.128214367630E-01  0.667105408424E-02  0.198869564249E-01  0.142315414431E-02  0.244593936653E-01 -0.347921470588E-03
 -0.103075498776E-02  0.243305637689E-01 -0.693928381043E-03  0.171116911584E-02 -0.276095766908E-02  0.140099356136E-02 -0.155151582236E-02
 -0.374619154102E-02 -0.377909843760E-02  0.100741857093E-02  0.159070997722E-01 -0.191480185539E-02 -0.141522510167E-01 -0.491220820994E-02
 -0.321228512387E-02  0.889526812477E-03 -0.155980992222E-02 -0.146656304605E-01  0.992444765459E-02 -0.246305266278E-02 -0.162041765015E-01
 -0.142596929916E-01 -0.127486016945E-02 -0.275753688628E-02 -0.133637057129E-01
        12        19        11        11
        11         5        12        12
        10        14         5         5
        19        13        11        11
        19        24        13        13
        30        23        24        24
        19        12        22        22
        28        22        21        21
        11        13         6         6
         7         6         9         9
        15        12        14        14
        18        13        23        23
        15        25        21        21
        27        19        22        22
        18         8         9         9
        27        31        24        24
         4        11         6         6
         5        14        12        12
         4         2         5         5
        21        12        15        15
        14        16        15        15
        24        19        27        27
        22        29        27        27
        23        26        18        18
        17         8        18        18
         5        11         4         4
         6         3         4         4
        26        23        30        30
         5         2        10        10
        16        14        10        10
         3         6         7         7
        21        25        28        28
        29        22        28        28
         6        13         9         9
         2         4         1         1
        31        27        32        32
        25        15        20        20
        24        23        13        13
         8         7         9         9
        13        18         9         9
        31        30        24        24
        12        21        22        22
        29        32        27        27
         3         1         4         4
        26        17        18        18
        16        20        15        15
zone t="boundary 2 bc-2", solutiontime= 0.5000000E+03, strandid=1002, i=33, j=48, f=feblock
  0.500000000000E+01  0.375000000000E+01  0.250000000000E+01  0.288078410721E+01  0.125000000000E+01  0.190974100652E+01  0.326683758169E+01
  0.201431602454E+01  0.000000000000E+00  0.963108083381E+00  0.500000000000E+01  0.403552511878E+01  0.423153924130E+01  0.500000000000E+01
  0.385533350601E+01  0.500000000000E+01  0.398173246726E+01  0.315249557942E+01  0.267000324704E+01  0.154774304040E+01  0.218329375016E+01
  0.893127759452E+00  0.000000000000E+00  0.698517061619E+00  0.964171764089E+00  0.310324758057E+01  0.000000000000E+00  0.000000000000E+00
  0.125000000000E+01  0.500000000000E+01  0.375000000000E+01  0.250000000000E+01  0.000000000000E+00
 -0.250000000000E+01 -0.250000000000E+01 -0.250000000000E+01 -0.250000000000E+01 -0.250000000000E+01 -0.250000000000E+01 -0.250000000000E+01
 -0.250000000000E+01 -0.250000000000E+01 -0.250000000000E+01 -0.250000000000E+01 -0.250000000000E+01 -0.250000000000E+01 -0.250000000000E+01
 -0.250000000000E+01 -0.250000000000E+01 -0.250000000000E+01 -0.250000000000E+01 -0.250000000000E+01 -0.250000000000E+01 -0.250000000000E+01
 -0.250000000000E+01 -0.250000000000E+01 -0.250000000000E+01 -0.250000000000E+01 -0.250000000000E+01 -0.250000000000E+01 -0.250000000000E+01
 -0.250000000000E+01 -0.250000000000E+01 -0.250000000000E+01 -0.250000000000E+01 -0.250000000000E+01
  0.000000000000E+00  0.000000000000E+00  0.000000000000E+00  0.904659890645E+00  0.000000000000E+00  0.717002441913E+00  0.188609243358E+01
  0.176246431481E+01  0.000000000000E+00  0.961328577125E+00  0.125000000000E+01  0.101201586758E+01  0.191586535653E+01  0.250000000000E+01
  0.293121848150E+01  0.375000000000E+01  0.406975391361E+01  0.363585050272E+01  0.285047954584E+01  0.292817774674E+01  0.395907379566E+01
  0.205246550326E+01  0.125000000000E+01  0.306828197606E+01  0.397245519226E+01  0.433168271247E+01  0.250000000000E+01  0.375000000000E+01
  0.500000000000E+01  0.500000000000E+01  0.500000000000E+01  0.500000000000E+01  0.500000000000E+01
  0.000000000000E+00  0.000000000000E+00  0.000000000000E+00  0.380991906500E+00  0.000000000000E+00  0.343629824950E+00  0.585286157424E+00
  0.579373264282E+00  0.000000000000E+00  0.501056069140E+00  0.508460362676E+00  0.435373026572E+00  0.572640041190E+00  0.537002098944E+00
  0.568922553870E+00  0.514994090651E+00  0.508247257160E+00  0.527252853130E+00  0.567446661127E+00  0.531657143909E+00  0.505981016593E+00
  0.520795579399E+00  0.443624103833E+00  0.490663730453E+00  0.492155873749E+00  0.501390784676E+00  0.467732355362E+00  0.488212087362E+00
  0.490002767114E+00  0.491352304715E+00  0.486075475228E+00  0.490036479234E+00  0.495098264817E+00
  0.999993487379E+00  0.999993690057E+00  0.999993543115E+00  0.989539055875E+00  0.999993137282E+00  0.985524707174E+00  0.989838908967E+00
  0.991798516580E+00  0.999992721792E+00  0.984411112416E+00  0.985091906406E+00  0.984689080896E+00  0.990058464829E+00  0.100289621837E+01
  0.999855369243E+00  0.100485306649E+01  0.100121554699E+01  0.100055642931E+01  0.997896793475E+00  0.100350029570E+01  0.100058068723E+01
  0.101093276247E+01  0.104043292670E+01  0.100326475367E+01  0.100254498742E+01  0.100045587387E+01  0.100976788415E+01  0.100405369352E+01
  0.100192656835E+01  0.100045434508E+01  0.100058774183E+01  0.100109993754E+01  0.100176112495E+01
  0.250879755052E-02  0.197194528849E-02  0.119481522297E-02 -0.232816383551E-01 -0.238687240172E-02 -0.770612756278E-01  0.513296272421E-02
 -0.814817680588E-03 -0.303750642564E-02 -0.356496944397E-01  0.658700765516E-02  0.758722823262E-02  0.517406891985E-02  0.441934025450E-02
  0.324969730987E-02  0.296982063881E-02  0.218718788469E-02  0.252880257118E-02  0.416091810342E-02  0.495955058176E-02  0.329766122003E-02
 -0.125720156674E-02 -0.243429698220E-01  0.335829264487E-02  0.608642155714E-02  0.397275482780E-02  0.351622551161E-02  0.694245260491E-02
  0.289759282960E-01  0.345675150171E-02  0.132440637404E-01  0.254636417001E-01  0.321975958142E-01
 -0.680070076912E-03  0.189141873903E-03 -0.177295452505E-04 -0.400719769088E-02  0.435875318547E-03 -0.957660724405E-02  0.135367187626E-04
  0.400180730220E-03 -0.277602305167E-03 -0.418845917049E-02 -0.148790443197E-02 -0.658713455942E-04 -0.761350144946E-03 -0.113031247006E-02
 -0.754490184889E-03 -0.696375283792E-03 -0.834965897228E-03 -0.696482847950E-03 -0.259878844403E-03  0.413708698754E-03 -0.297669173498E-03
  0.359681064472E-03 -0.298342154867E-02  0.227422124520E-03  0.701515003884E-03 -0.411468648560E-03  0.890263617153E-03  0.148011910801E-02
  0.521288578199E-02 -0.174530580125E-03  0.133108545686E-02  0.395914093087E-02  0.669750178538E-02
  0.151428549624E-03 -0.402109805793E-04 -0.235913244882E-03 -0.543841562990E-03 -0.126328616317E-03 -0.956584966861E-03  0.755035284921E-04
 -0.633578206194E-05  0.236296086161E-03 -0.367225553650E-03  0.876117737756E-04  0.282007241339E-03 -0.545015870750E-05 -0.841076324947E-05
 -0.668856907769E-05  0.132261436315E-04 -0.166479682708E-05  0.693447244907E-05 -0.107950663359E-04 -0.261308013458E-04  0.169704776792E-04
 -0.274083380386E-04  0.101895403887E-03 -0.487692202652E-05  0.280284732099E-05  0.589993829568E-05  0.221981358227E-04  0.789575291103E-05
  0.253895568828E-05  0.228691354991E-05 -0.578682406618E-06 -0.168277599078E-05 -0.677160129607E-05
  0.197125488265E-03  0.198774690225E-03  0.301414698451E-03 -0.102294835829E-02  0.696308714095E-03 -0.214332381282E-03 -0.154115380141E-02
 -0.205301070457E-02  0.590918806531E-03 -0.961917208502E-03 -0.293820801072E-03 -0.108020068160E-02 -0.622349101115E-03 -0.281569174629E-03
 -0.645212782071E-03 -0.236680157407E-03 -0.628580648658E-03 -0.887098215332E-03 -0.104947381664E-02 -0.108862698734E-02 -0.102417610108E-02
 -0.163354247949E-02 -0.110152898006E-02 -0.115894744021E-02 -0.102493728126E-02 -0.886282686256E-03 -0.167069899188E-02 -0.113460541099E-02
 -0.691388762957E-03 -0.368622229797E-03 -0.802152283511E-03 -0.870007997090E-03 -0.492529553310E-03
 -0.675874372513E-03 -0.191251401703E-02 -0.333249890798E-02  0.106242508926E-01 -0.399158432974E-02  0.330119180741E-01 -0.152186437384E-02
  0.434368516903E-03  0.100741857093E-02  0.147684945637E-01 -0.142629302018E-02 -0.229697578993E-02 -0.127026041742E-02 -0.847330854102E-03
 -0.634162362607E-03 -0.600580048835E-03 -0.300531073182E-03 -0.459472463833E-03 -0.113815414451E-02 -0.168232047268E-02 -0.881960982898E-03
  0.578711389456E-03  0.992444765459E-02 -0.108105655555E-02 -0.222047116021E-02 -0.108470221484E-02 -0.127486016945E-02 -0.275753688628E-02
 -0.117732443547E-01 -0.104465329666E-02 -0.497010953843E-02 -0.101248964240E-01 -0.133637057129E-01
        15         7        19        19
         8        20        19        19
        18        19        21        21
         7         4         8         8
         3         6         4         4
        19         7         8         8
        19        18        15        15
        14        13        15        15
         8        22        20        20
        27        24        22        22
        19        20        21        21
        32        26        21        21
        17        18        26        26
        17        16        15        15
        25        29        21        21
        12         7        13        13
        10         8         6         6
        25        20        24        24
         4         6         8         8
        12         2         4         4
        10        23        22        22
        26        31        17        17
        30        16        17        17
         4         7        12        12
        13        11        12        12
        21        20        25        25
        24        28        25        25
        22         8        10        10
         6         5        10        10
        31        26        32        32
         4         2         3         3
         5         6         3         3
        11        13        14        14
        22        23        27        27
        28        24        27        27
        15        13         7         7
         2        12         1         1
        29        25        33        33
        23        10         9         9
        21        26        18        18
        16        14        15        15
        18        17        15        15
        29        32        21        21
        22        24        20        20
        28        33        25        25
        11         1        12        12
        31        30        17        17
         5         9        10        10
zone t="boundary 3 bc-3", solutiontime= 0.5000000E+03, strandid=1003, i=33, j=48, f=feblock
  0.375000000000E+01  0.250000000000E+01  0.500000000000E+01  0.403552511878E+01  0.288078410721E+01  0.125000000000E+01  0.190974100652E+01
  0.500000000000E+01  0.326683758169E+01  0.423153924130E+01  0.201431602454E+01  0.000000000000E+00  0.963108083381E+00  0.500000000000E+01
  0.267000324704E+01  0.385533350601E+01  0.893127759452E+00  0.154774304040E+01  0.000000000000E+00  0.500000000000E+01  0.315249557942E+01
  0.218329375016E+01  0.398173246726E+01  0.000000000000E+00  0.698517061619E+00  0.964171764089E+00  0.125000000000E+01  0.000000000000E+00
  0.500000000000E+01  0.310324758057E+01  0.250000000000E+01  0.375000000000E+01  0.000000000000E+00
  0.250000000000E+01  0.250000000000E+01  0.250000000000E+01  0.250000000000E+01  0.250000000000E+01  0.250000000000E+01  0.250000000000E+01
  0.250000000000E+01  0.250000000000E+01  0.250000000000E+01  0.250000000000E+01  0.250000000000E+01  0.250000000000E+01  0.250000000000E+01
  0.250000000000E+01  0.250000000000E+01  0.250000000000E+01  0.250000000000E+01  0.250000000000E+01  0.250000000000E+01  0.250000000000E+01
  0.250000000000E+01  0.250000000000E+01  0.250000000000E+01  0.250000000000E+01  0.250000000000E+01  0.250000000000E+01  0.250000000000E+01
  0.250000000000E+01  0.250000000000E+01  0.250000000000E+01  0.250000000000E+01  0.250000000000E+01
  0.000000000000E+00  0.000000000000E+00  0.000000000000E+00  0.101201586758E+01  0.904659890645E+00  0.000000000000E+00  0.717002441913E+00
  0.125000000000E+01  0.188609243358E+01  0.191586535653E+01  0.176246431481E+01  0.000000000000E+00  0.961328577125E+00  0.250000000000E+01
  0.285047954584E+01  0.293121848150E+01  0.205246550326E+01  0.292817774674E+01  0.125000000000E+01  0.375000000000E+01  0.363585050272E+01
  0.395907379566E+01  0.406975391361E+01  0.250000000000E+01  0.306828197606E+01  0.397245519226E+01  0.500000000000E+01  0.375000000000E+01
  0.500000000000E+01  0.433168271247E+01  0.500000000000E+01  0.500000000000E+01  0.500000000000E+01
  0.000000000000E+00  0.000000000000E+00  0.000000000000E+00  0.443767745459E+00  0.402286944574E+00  0.000000000000E+00  0.377550369545E+00
  0.509232128688E+00  0.575832179754E+00  0.573707405285E+00  0.562554064412E+00  0.000000000000E+00  0.490563299840E+00  0.534527096543E+00
  0.556586982170E+00  0.564391577749E+00  0.522730517385E+00  0.522052000170E+00  0.441238348384E+00  0.517182331791E+00  0.524228630763E+00
  0.503687457534E+00  0.509488571178E+00  0.469814974359E+00  0.495614442414E+00  0.494483780212E+00  0.488562428343E+00  0.488961654628E+00
  0.492980744788E+00  0.499005552222E+00  0.486460936507E+00  0.484596927548E+00  0.495346592024E+00
  0.999989339439E+00  0.999989408764E+00  0.999989626853E+00  0.981541895460E+00  0.988773990194E+00  0.999989827144E+00  0.982469462434E+00
  0.984104309047E+00  0.990427545862E+00  0.990355285694E+00  0.994362997073E+00  0.999990295028E+00  0.988652071037E+00  0.100368369414E+01
  0.999769197113E+00  0.100118501219E+01  0.100834885320E+01  0.100252111043E+01  0.102982719499E+01  0.100443319461E+01  0.100199536635E+01
  0.100082056599E+01  0.100138192342E+01  0.100826277309E+01  0.100298787130E+01  0.100192389555E+01  0.100215267510E+01  0.100355660048E+01
  0.100047670023E+01  0.100056591053E+01  0.100126820231E+01  0.100066573360E+01  0.100179336279E+01
  0.173501712420E-02 -0.133379624109E-02  0.284970371691E-02 -0.163389894193E-01 -0.624934079222E-01 -0.387579611621E-02 -0.621025926414E-01
  0.977044343617E-02  0.491379525554E-02  0.613384563164E-02 -0.104776638816E-01 -0.613403858762E-02 -0.421650923471E-01  0.464286227155E-02
  0.542441390619E-02  0.382040415125E-02 -0.134412358217E-02  0.524438745235E-02 -0.311242376582E-01  0.316134166195E-02  0.231108391972E-02
  0.316441650952E-02  0.241039290550E-02  0.172269677597E-02  0.448684762006E-02  0.838299016058E-02  0.256833241783E-01  0.936928199068E-02
  0.299419875987E-02  0.367981528848E-02  0.240148765057E-01  0.130265567866E-01  0.340906591769E-01
  0.405590522815E-03  0.391045037452E-03 -0.716222068304E-03 -0.454301067215E-02 -0.863349164788E-02  0.817791857833E-03 -0.772129386413E-02
 -0.158851829814E-02  0.786317109529E-04 -0.839467825922E-03 -0.224449820964E-03 -0.239463304295E-03 -0.319789484242E-02 -0.121485826207E-02
  0.792790713796E-04 -0.638371444905E-03  0.113469541393E-02  0.550768990750E-03 -0.452084265417E-02 -0.775109350273E-03 -0.672103508564E-03
 -0.366873894591E-03 -0.782972496058E-03  0.797199969660E-03  0.105154534989E-02  0.105076089102E-02  0.455514832123E-02  0.205955823770E-02
 -0.272581472719E-03 -0.432726939132E-03  0.372480742406E-02  0.129318008141E-02  0.699974181266E-02
  0.764334338371E-04 -0.431256297311E-04 -0.950619700530E-04  0.313560041414E-03  0.887611562594E-03 -0.345239569498E-03  0.191773410765E-04
 -0.250027415773E-06  0.982152366591E-04 -0.148532048063E-04  0.821680244296E-04 -0.416181257750E-03 -0.468360889306E-03 -0.352801226951E-04
  0.478361163331E-05 -0.439868613647E-05  0.160304479214E-03  0.617040433850E-04 -0.127168706601E-03 -0.197830555451E-04 -0.982356554238E-05
 -0.424586854993E-04 -0.714001705177E-06  0.137815768660E-04  0.362993671666E-04 -0.120488781122E-04 -0.174514702741E-04  0.267085837926E-05
 -0.703956205512E-05  0.312669834400E-06 -0.394060776194E-05  0.996543638711E-06 -0.354630176439E-05
  0.481076892004E-03  0.900772627388E-03  0.248098582250E-03 -0.641034711903E-03 -0.105142225283E-02  0.865777195597E-03 -0.312810706269E-03
 -0.380757911614E-03 -0.194634593960E-02 -0.935432400077E-03 -0.283391192567E-02  0.148883655597E-02 -0.927019377769E-03 -0.373118804304E-03
 -0.995269186252E-03 -0.830105472539E-03 -0.238368009391E-02 -0.106333374152E-02  0.133249719256E-02 -0.330496572382E-03 -0.955721144299E-03
 -0.987968429258E-03 -0.713001008331E-03 -0.158404435246E-02 -0.153197031869E-02 -0.102026140202E-02 -0.730565767005E-03 -0.130052512697E-02
 -0.351275266334E-03 -0.927291963478E-03 -0.885428967999E-03 -0.807114151801E-03 -0.461963036708E-03
 -0.725934825228E-02 -0.314549533825E-02 -0.142450214543E-02  0.844644937640E-02  0.270504013864E-01 -0.294393149803E-03  0.260968045110E-01
 -0.249673255813E-02 -0.152304441805E-02 -0.158613648178E-02  0.409457246788E-02  0.491470806710E-02  0.166182098135E-01 -0.873558658902E-03
 -0.171590548765E-02 -0.864855004802E-03  0.417340518174E-03 -0.181772341130E-02  0.128214367630E-01 -0.620308912059E-03 -0.381896402132E-03
 -0.815113459718E-03 -0.392700464594E-03 -0.693928381043E-03 -0.163890825672E-02 -0.315384144854E-02 -0.103833346918E-01 -0.377909843760E-02
 -0.848338068854E-03 -0.971093316218E-03 -0.952918782096E-02 -0.487608555337E-02 -0.141522510167E-01
        15         9        16        16
        15        18        11        11
        22        15        21        21
        11         5         9         9
         5         7         2         2
        11         9        15        15
        16        21        15        15
        16        10        14        14
        18        17        11        11
        17        25        24        24
        22        18        15        15
        22        30        31        31
        30        21        23        23
        16        20        23        23
        22        27        26        26
        10         9         4         4
         7        11        13        13
        25        18        26        26
        11         7         5         5
         5         1         4         4
        17        19        13        13
        23        32        30        30
        23        20        29        29
         4         9         5         5
         4         8        10        10
        26        18        22        22
        26        28        25        25
        13        11        17        17
        13         6         7         7
        31        30        32        32
         2         1         5         5
         2         7         6         6
        14        10         8         8
        24        19        17        17
        24        25        28        28
         9        10        16        16
         3         4         1         1
        33        26        27        27
        12        13        19        19
        21        30        22        22
        16        14        20        20
        16        23        21        21
        22        31        27        27
        18        25        17        17
        26        33        28        28
         4         3         8         8
        23        29        32        32
        13        12         6         6
zone t="boundary 4 bc-4", solutiontime= 0.5000000E+03, strandid=1004, i=32, j=46, f=feblock
  0.125000000000E+01  0.219251206392E+01  0.103724302461E+01  0.500000000000E+01  0.250000000000E+01  0.375000000000E+01  0.404200324774E+01
  0.500000000000E+01  0.000000000000E+00  0.310152362409E+01  0.202479342020E+01  0.324151231464E+01  0.922061490191E+00  0.000000000000E+00
  0.299062775774E+01  0.394624082883E+01  0.500000000000E+01  0.409252726285E+01  0.500000000000E+01  0.429310310915E+01  0.175434191980E+01
  0.284428995242E+01  0.000000000000E+00  0.000000000000E+00  0.715990576545E+00  0.930412228790E+00  0.125000000000E+01  0.187029682677E+01
  0.500000000000E+01  0.375000000000E+01  0.250000000000E+01  0.000000000000E+00
  0.250000000000E+01  0.157686156160E+01  0.146289271009E+01  0.250000000000E+01  0.250000000000E+01  0.250000000000E+01  0.155830813274E+01
  0.125000000000E+01  0.250000000000E+01  0.177790177481E+01  0.477386199275E+00  0.742988685424E+00  0.308372018325E+00  0.125000000000E+01
 -0.487811078581E+00 -0.144524380962E+01 -0.125000000000E+01 -0.345533899378E+00  0.000000000000E+00  0.627766083140E+00 -0.739814786992E+00
 -0.158811787973E+01  0.000000000000E+00 -0.125000000000E+01 -0.600232012419E+00 -0.154800130438E+01 -0.250000000000E+01 -0.178862290564E+01
 -0.250000000000E+01 -0.250000000000E+01 -0.250000000000E+01 -0.250000000000E+01
  0.500000000000E+01  0.500000000000E+01  0.500000000000E+01  0.500000000000E+01  0.500000000000E+01  0.500000000000E+01  0.500000000000E+01
  0.500000000000E+01  0.500000000000E+01  0.500000000000E+01  0.500000000000E+01  0.500000000000E+01  0.500000000000E+01  0.500000000000E+01
  0.500000000000E+01  0.500000000000E+01  0.500000000000E+01  0.500000000000E+01  0.500000000000E+01  0.500000000000E+01  0.500000000000E+01
  0.500000000000E+01  0.500000000000E+01  0.500000000000E+01  0.500000000000E+01  0.500000000000E+01  0.500000000000E+01  0.500000000000E+01
  0.500000000000E+01  0.500000000000E+01  0.500000000000E+01  0.500000000000E+01
  0.488562428343E+00  0.488873127044E+00  0.490562939264E+00  0.492980744788E+00  0.486460936507E+00  0.484596927548E+00  0.485347896276E+00
  0.494163542317E+00  0.495346592024E+00  0.486528232758E+00  0.487819998460E+00  0.487068916091E+00  0.494045904395E+00  0.496127394917E+00
  0.487612357629E+00  0.483219722850E+00  0.492395510969E+00  0.487214141159E+00  0.494738985333E+00  0.487958525499E+00  0.489677249447E+00
  0.488029107105E+00  0.497246279768E+00  0.496059270892E+00  0.494951052257E+00  0.492800373677E+00  0.490002767114E+00  0.490005124553E+00
  0.491352304715E+00  0.486075475228E+00  0.490036479234E+00  0.495098264817E+00
  0.100215267510E+01  0.100152652958E+01  0.100178347660E+01  0.100047670023E+01  0.100126820231E+01  0.100066573360E+01  0.100025357725E+01
  0.100050391679E+01  0.100179336279E+01  0.100112367258E+01  0.100133045248E+01  0.100072432973E+01  0.100164366725E+01  0.100168844809E+01
  0.100096274503E+01  0.100000874853E+01  0.100082864314E+01  0.100022269190E+01  0.100062146074E+01  0.100023497311E+01  0.100174635719E+01
  0.100098855496E+01  0.100118726928E+01  0.100134171022E+01  0.100132635956E+01  0.100179873777E+01  0.100192656835E+01  0.100163748619E+01
  0.100045434508E+01  0.100058774183E+01  0.100109993754E+01  0.100176112495E+01
  0.256833241783E-01  0.249063587484E-01  0.255784670660E-01  0.299419875987E-02  0.240148765057E-01  0.130265567866E-01  0.905827382427E-02
  0.298141775557E-02  0.340906591769E-01  0.199622765862E-01  0.267676666847E-01  0.187587079921E-01  0.311791969015E-01  0.352639790620E-01
  0.211405627681E-01  0.871084180950E-02  0.336971370447E-02  0.110961535784E-01  0.276558401313E-02  0.110908809383E-01  0.329407706060E-01
  0.198881935672E-01  0.388493920416E-01  0.342663972496E-01  0.361172592136E-01  0.289517371926E-01  0.289759282960E-01  0.306420256740E-01
  0.345675150171E-02  0.132440637404E-01  0.254636417001E-01  0.321975958142E-01