# vtk DataFile Version 2.0
FUN3D:global_image_vtk
ASCII
DATASET UNSTRUCTURED_GRID
POINTS 213 double
   -0.5474740594603403E-02    0.2504942002468015E+01    0.8038066513721373E-04
    0.1245419060588731E+01    0.2504942002468015E+01    0.1039420355314398E-03
    0.2497696073669953E+01    0.2504942002468015E+01    0.1101293108885537E-03
    0.3750590983903951E+01    0.2504942002468015E+01    0.1356498038756489E-03
    0.5003221377586130E+01    0.2504942002468015E+01    0.9668806236790294E-04
    0.5004676742906220E+01    0.1281291392998363E+01    0.1638058477060350E-03
    0.5004772721058898E+01    0.2775095788685205E-01    0.1903487481413329E-03
    0.5003581212092667E+01   -0.1225853379649929E+01    0.1607772013000913E-03
    0.5001952544222647E+01   -0.2496589018760901E+01    0.1082264471403567E-03
    0.3750348112983221E+01   -0.2496589018760901E+01    0.1458760651341663E-03
    0.2498611454364745E+01   -0.2496589018760901E+01    0.1008938464083220E-03
    0.1247175251993101E+01   -0.2496589018760901E+01    0.1108592957382284E-03
   -0.3383979682904938E-02   -0.2496589018760901E+01    0.8107293234904698E-04
   -0.4257801348440463E-02   -0.1225734687856262E+01    0.3415453547445311E-04
   -0.5251639246460998E-02    0.2619500007965782E-01    0.1038724994495983E-03
   -0.5676116282443470E-02    0.1278221728471008E+01    0.8224550527297459E-04
    0.9003209061970090E+00    0.1608979292482069E+01    0.8704095674000828E-04
    0.3983172219358475E+01   -0.1561211781392464E+01    0.1757125336079398E-03
    0.4035602063492015E+01    0.1486760245757031E+01    0.1713318841102922E-03
    0.1036613695255868E+01   -0.1455626302577312E+01    0.1047193358013056E-03
    0.1094353436962879E+01   -0.2964620547863022E+00    0.1260594408122348E-03
    0.7298399732447656E+00    0.6874686355485903E+00    0.1044597967373460E-03
    0.1617018608574693E+01    0.8553209825042054E+00    0.1529816073164182E-03
    0.2143199643574004E+01   -0.1627128385141894E+01    0.1606178561641684E-03
    0.4088840468516652E+01   -0.4351046315069668E+00    0.2719950835659596E-03
    0.2977916498708485E+01   -0.8334990110939411E+00    0.2245609625897136E-03
    0.3044093234685481E+01   -0.1814361102461425E+01    0.1617007901553744E-03
    0.3427866614749028E+01    0.3813906737475879E+00    0.2936972898191535E-03
    0.4313225393964806E+01    0.5489135241650743E+00    0.2313021604604682E-03
    0.1823032697010122E+01    0.1771265398461592E+01    0.1836207261413102E-03
    0.2806311133387878E+01    0.1358629588153143E+01    0.1943500587783276E-03
    0.1891860842801183E+01   -0.8481308964520633E+00    0.1670653536963720E-03
    0.2268769161311812E+01    0.7723708732351961E-01    0.2072318374132880E-03
    0.5000000000000000E+01    0.2504942002468015E+01    0.1250000000000000E+01
    0.5000000000000000E+01    0.2504942002468015E+01    0.2500000000000000E+01
    0.5000000000000000E+01    0.2504942002468015E+01    0.3750000000000000E+01
    0.5000000000000000E+01    0.2504942002468015E+01    0.5000000000000000E+01
    0.3750000000000000E+01    0.2504942002468015E+01    0.5000000000000000E+01
    0.2500000000000000E+01    0.2504942002468015E+01    0.5000000000000000E+01
    0.1250000000000000E+01    0.2504942002468015E+01    0.5000000000000000E+01
    0.0000000000000000E+00    0.2504942002468015E+01    0.5000000000000000E+01
    0.0000000000000000E+00    0.2504942002468015E+01    0.3750000000000000E+01
    0.0000000000000000E+00    0.2504942002468015E+01    0.2500000000000000E+01
    0.0000000000000000E+00    0.2504942002468015E+01    0.1250000000000000E+01
    0.9588956064218442E+00    0.2504942002468015E+01    0.9696526008694623E+00
    0.3981953079952927E+01    0.2504942002468015E+01    0.4070563859161240E+01
    0.4036122196966513E+01    0.2504942002468015E+01    0.1017567553205741E+01
    0.9637572746747129E+00    0.2504942002468015E+01    0.3973598209858041E+01
    0.1546540127929946E+01    0.2504942002468015E+01    0.2931570189025510E+01
    0.6973799442222214E+00    0.2504942002468015E+01    0.3070319964744884E+01
    0.8903741947279166E+00    0.2504942002468015E+01    0.2056562262665315E+01
    0.2183041993268189E+01    0.2504942002468015E+01    0.3960694458912845E+01
    0.3855844875188856E+01    0.2504942002468015E+01    0.2933250599517386E+01
    0.3152611367489020E+01    0.2504942002468015E+01    0.3637668398431757E+01
    0.3103307385298766E+01    0.2504942002468015E+01    0.4332607818174344E+01
    0.3266711043563174E+01    0.2504942002468015E+01    0.1889656637524574E+01
    0.4232537560766444E+01    0.2504942002468015E+01    0.1918626986171088E+01
    0.1905522338007587E+01    0.2504942002468015E+01    0.7226291174446480E+00
    0.2879767716040244E+01    0.2504942002468015E+01    0.9080946092062980E+00
    0.2012711350767002E+01    0.2504942002468015E+01    0.1767082417726314E+01
    0.2669681469718240E+01    0.2504942002468015E+01    0.2853394351007645E+01
    0.5000000000000000E+01    0.1250000000000000E+01    0.5000000000000000E+01
    0.5000000000000000E+01    0.0000000000000000E+00    0.5000000000000000E+01
    0.5000000000000000E+01   -0.1250000000000000E+01    0.5000000000000000E+01
    0.5000000000000000E+01   -0.2496589018760901E+01    0.5000000000000000E+01
    0.5000000000000000E+01   -0.2496589018760901E+01    0.3750000000000000E+01
    0.5000000000000000E+01   -0.2496589018760901E+01    0.2500000000000000E+01
    0.5000000000000000E+01   -0.2496589018760901E+01    0.1250000000000000E+01
    0.5000000000000000E+01    0.1578994732800803E+01    0.9058375365086910E+00
    0.5000000000000000E+01   -0.1583989954232354E+01    0.3982050490726493E+01
    0.5000000000000000E+01    0.1453322699199022E+01    0.4033849428301197E+01
    0.5000000000000000E+01   -0.1479596339503735E+01    0.1040505887381675E+01
    0.5000000000000000E+01   -0.3227322616384110E+00    0.1099454400140349E+01
    0.5000000000000000E+01    0.6593508822075582E+00    0.7354504170366591E+00
    0.5000000000000000E+01    0.8256214013940779E+00    0.1622302608453282E+01
    0.5000000000000000E+01   -0.1650070333782557E+01    0.2145871574390382E+01
    0.5000000000000000E+01   -0.4612828702537229E+00    0.4086422318222992E+01
    0.5000000000000000E+01   -0.8579242121530853E+00    0.2979540174134984E+01
    0.5000000000000000E+01   -0.1836846154397680E+01    0.3045064261640043E+01
    0.5000000000000000E+01    0.3508002863614053E+00    0.3428197553792836E+01
    0.5000000000000000E+01    0.5185680230613409E+00    0.4309693860063405E+01
    0.5000000000000000E+01    0.1738996113203182E+01    0.1827272193562204E+01
    0.5000000000000000E+01    0.1325493893339706E+01    0.2808563282768077E+01
    0.5000000000000000E+01   -0.8731419609589618E+00    0.1895995683864404E+01
    0.5000000000000000E+01    0.4906150219227333E-01    0.2273179336307740E+01
    0.0000000000000000E+00    0.1250000000000000E+01    0.5000000000000000E+01
    0.0000000000000000E+00    0.0000000000000000E+00    0.5000000000000000E+01
    0.0000000000000000E+00   -0.1250000000000000E+01    0.5000000000000000E+01
    0.0000000000000000E+00   -0.2496589018760901E+01    0.5000000000000000E+01
    0.1250000000000000E+01   -0.2496589018760901E+01    0.5000000000000000E+01
    0.2500000000000000E+01   -0.2496589018760901E+01    0.5000000000000000E+01
    0.3750000000000000E+01   -0.2496589018760901E+01    0.5000000000000000E+01
    0.4042003247744892E+01    0.1558308132739014E+01    0.5000000000000000E+01
    0.9304122287900499E+00   -0.1548001304379777E+01    0.5000000000000000E+01
    0.1037243024609388E+01    0.1462892710085612E+01    0.5000000000000000E+01
    0.3946240828834967E+01   -0.1445243809615570E+01    0.5000000000000000E+01
    0.4092527262848217E+01   -0.3455338993778935E+00    0.5000000000000000E+01
    0.4293103109154542E+01    0.6277660831404320E+00    0.5000000000000000E+01
    0.3241512314643519E+01    0.7429886854239611E+00    0.5000000000000000E+01
    0.2844289952419609E+01   -0.1588117879734118E+01    0.5000000000000000E+01
    0.7159905765450471E+00   -0.6002320124191652E+00    0.5000000000000000E+01
    0.1754341919796891E+01   -0.7398147869923652E+00    0.5000000000000000E+01
    0.1870296826774691E+01   -0.1788622905643739E+01    0.5000000000000000E+01
    0.9220614901912976E+00    0.3083720183248586E+00    0.5000000000000000E+01
    0.3101523624086016E+01    0.1777901774806180E+01    0.5000000000000000E+01
    0.2192512063922564E+01    0.1576861561598471E+01    0.5000000000000000E+01
    0.2024793420196460E+01    0.4773861992750707E+00    0.5000000000000000E+01
    0.2990627757741975E+01   -0.4878110785814084E+00    0.5000000000000000E+01
    0.0000000000000000E+00   -0.2496589018760901E+01    0.1250000000000000E+01
    0.0000000000000000E+00   -0.2496589018760901E+01    0.2500000000000000E+01
    0.0000000000000000E+00   -0.2496589018760901E+01    0.3750000000000000E+01
    0.0000000000000000E+00    0.1558308132739014E+01    0.4042003247744892E+01
    0.0000000000000000E+00   -0.1548001304379777E+01    0.9304122287900499E+00
    0.0000000000000000E+00    0.1462892710085612E+01    0.1037243024609388E+01
    0.0000000000000000E+00   -0.1445243809615570E+01    0.3946240828834967E+01
    0.0000000000000000E+00   -0.3455338993778935E+00    0.4092527262848217E+01
    0.0000000000000000E+00    0.6277660831404320E+00    0.4293103109154542E+01
    0.0000000000000000E+00    0.7429886854239611E+00    0.3241512314643519E+01
    0.0000000000000000E+00   -0.1588117879734118E+01    0.2844289952419609E+01
    0.0000000000000000E+00   -0.6002320124191652E+00    0.7159905765450471E+00
    0.0000000000000000E+00   -0.7398147869923652E+00    0.1754341919796891E+01
    0.0000000000000000E+00   -0.1788622905643739E+01    0.1870296826774691E+01
    0.0000000000000000E+00    0.3083720183248586E+00    0.9220614901912976E+00
    0.0000000000000000E+00    0.1777901774806180E+01    0.3101523624086016E+01
    0.0000000000000000E+00    0.1576861561598471E+01    0.2192512063922564E+01
[...]
POINT_DATA 213
SCALARS rho double 1
LOOKUP_TABLE default
   0.1346097002478942E+01
   0.9571994889248046E+00
   0.9460925261901555E+00
   0.9421713070347603E+00
   0.8435935423099831E+00
   0.7741865188967401E+00
   0.7627490142917640E+00
   0.7661376009685641E+00
   0.8310374387060362E+00
   0.9353532038707046E+00
   0.9343976630977516E+00
   0.9615835736289061E+00
   0.1448454633985348E+01
   0.1495394541028502E+01
   0.1646716569272727E+01
   0.1426577887838218E+01
   0.1009796832605311E+01
   0.9511377810213624E+00
   0.9438170787454545E+00
   0.9574429169051661E+00
   0.9414772716441268E+00
   0.1037107147282736E+01
   0.9258078146677819E+00
   0.9322440337441577E+00
   0.9538047647641317E+00
   0.9520361764660346E+00
   0.9350902082836088E+00
   0.9565433485547310E+00
   0.9378588928043725E+00
   0.9303242951161048E+00
   0.9446416457457515E+00
   0.8862304485916337E+00
   0.9423969620443429E+00
   0.9637181914064801E+00
   0.1008362563342028E+01
   0.1006713483006974E+01
   0.1001958831508879E+01
   0.1003217685900654E+01
   0.1004119832560589E+01
   0.1005207378865252E+01
   0.1004249317700391E+01
   0.1008267099146228E+01
   0.1023865869353574E+01
   0.1063750819197253E+01
   0.1019382678848652E+01
   0.1001778552200199E+01
   0.9645925746357995E+00
   0.1005262393833541E+01
   0.1000745043182694E+01
   0.1008694170620146E+01
   0.1008031885816398E+01
   0.1002353976395724E+01
   0.9980224130524407E+00
   0.1000594057057444E+01
   0.1001620903417805E+01
   0.9828094915630198E+00
   0.9843997828131508E+00
   0.9834242148376729E+00
   0.9790374676871269E+00
   0.9904789004733027E+00
   0.9935221889889614E+00
   0.1002008741378585E+01
   0.1002131973311964E+01
   0.1002272709106105E+01
   0.1001792815450939E+01
   0.1009814936365059E+01
   0.1006499289704816E+01
   0.9560826910392946E+00
   0.9252938246450589E+00
   0.1007053691827086E+01
   0.1004491502337375E+01
   0.9144854568231819E+00
   0.9091439054695645E+00
   0.8752432949072292E+00
   0.9768022173739257E+00
   0.1000530115526140E+01
   0.1005826619906994E+01
   0.1012895784006988E+01
   0.1011677277284393E+01
   0.1010416527967408E+01
   0.1005456511039952E+01
   0.9909247201154747E+00
   0.1005152840644455E+01
   0.9860799641345575E+00
   0.1005593071565210E+01
   0.1004239464915912E+01
   0.1002885827065518E+01
   0.1003350347028722E+01
   0.1003998452160243E+01
   0.1005116094476882E+01
   0.1003223534335741E+01
   0.1002668629149640E+01
   0.1002589605211231E+01
   0.1004069497855102E+01
   0.1004304401151250E+01
   0.1001642390362911E+01
   0.1002278745435361E+01
   0.1002546658382564E+01
   0.1003471913335630E+01
   0.1003380290368025E+01
   0.1003233302781768E+01
   0.1004430203499320E+01
   0.1004324628075485E+01
   0.1003652911926088E+01
   0.1003718541507077E+01
   0.1004318864828704E+01
   0.1004462407984980E+01
   0.1003629299971284E+01
   0.1064489711368759E+01
   0.1028444241800063E+01
   0.1009606837071794E+01
   0.1006626073603125E+01
   0.1163974931030767E+01
   0.1086025349019773E+01
   0.1007907651905548E+01
   0.1007251940098912E+01
   0.1006796091054487E+01
   0.1013052214973935E+01
   0.1019341253350008E+01
   0.1235134881614735E+01
   0.1032535507692949E+01
   0.1046565553996428E+01
   0.1201695800732272E+01
   0.1014670081667904E+01
   0.1032293477716952E+01
   0.1028219928374525E+01
   0.1014640071672414E+01
   0.1028999238986530E+01
   0.1002002403292467E+01
   0.9607798450303021E+00
   0.1006858995115571E+01
   0.1001326399019547E+01
   0.1010799962622225E+01
   0.1012236578134283E+01
   0.1000939793814669E+01
   0.9979315694125874E+00
   0.9980679353392198E+00
   0.1001191382429132E+01
   0.9841977150732182E+00
   0.9815061841901487E+00
   0.9648620667653087E+00
   0.9680679221347219E+00
   0.9914140154490363E+00
   0.9910913031303960E+00
   0.9925597577089791E+00
   0.1001728079097413E+01
   0.9993249299607592E+00
   0.9941443889245440E+00
   0.1006981396693503E+01
   0.1022611157980417E+01
   0.1001120777096231E+01
   0.1008783412248250E+01
   0.1004774305389351E+01
   0.1009028544222692E+01
   0.9967193913371827E+00
   0.1005562614036483E+01
   0.1003325018836349E+01
   0.9949862562380536E+00
   0.9833516922798745E+00
   0.9944520860179389E+00
   0.9973481064840567E+00
   0.9932519211096952E+00
   0.1001312037131957E+01
   0.1003000802855006E+01
   0.1002188622867362E+01
   0.9947121111063901E+00
   0.9937838198818782E+00
   0.1004861304629781E+01
   0.1020102527913114E+01
   0.1005340616877047E+01
   0.9817058992632368E+00
   0.1004974829247046E+01
   0.1012375707520162E+01
   0.9873705188393195E+00
   0.9551253471754790E+00
   0.9865273999948275E+00
   0.9865946514470689E+00
   0.9920042015574543E+00
   0.9934462884316160E+00
   0.9960612755668057E+00
   0.1037404888358467E+01
   0.1033163231357138E+01
   0.1001443049119133E+01
   0.1001928974150663E+01
   0.9912286358246196E+00
   0.9911119327430697E+00
   0.9649284231414845E+00
   0.9933727646828096E+00
   0.1006089045016293E+01
   0.1001962053438905E+01
   0.9908625083774814E+00
   0.9742250538265229E+00
   0.9420725327477867E+00
   0.9821579074358218E+00
   0.9794772730640439E+00
   0.9704319631658034E+00
   0.9720820387487086E+00
   0.9557851894287743E+00
   0.9497953596192179E+00
   0.9529801794547776E+00
   0.1002636554249195E+01
   0.1002475647470086E+01
   0.1000512858391220E+01
   0.1001675819942934E+01
   0.9610053084209120E+00
   0.9492410620685586E+00
   0.9586390072210338E+00
   0.1001120873573726E+01
   0.1000500117942634E+01
   0.1001160957076118E+01
   0.9807424710252881E+00
   0.9805587580810396E+00
   0.9629172832912640E+00
SCALARS u double 1
LOOKUP_TABLE default
   0.0000000000000000E+00
   0.0000000000000000E+00
   0.0000000000000000E+00
   0.0000000000000000E+00
   0.0000000000000000E+00
   0.0000000000000000E+00
   0.0000000000000000E+00
   0.0000000000000000E+00
   0.0000000000000000E+00
   0.0000000000000000E+00
   0.0000000000000000E+00
   0.0000000000000000E+00
   0.0000000000000000E+00
   0.0000000000000000E+00
   0.0000000000000000E+00
   0.0000000000000000E+00
   0.0000000000000000E+00
   0.0000000000000000E+00
   0.0000000000000000E+00
   0.0000000000000000E+00
   0.0000000000000000E+00
   0.0000000000000000E+00
   0.0000000000000000E+00
   0.0000000000000000E+00
   0.0000000000000000E+00
   0.0000000000000000E+00
   0.0000000000000000E+00
   0.0000000000000000E+00
   0.0000000000000000E+00
   0.0000000000000000E+00
   0.0000000000000000E+00
   0.0000000000000000E+00
   0.0000000000000000E+00
   0.4946113853393196E+00
   0.5336287281391776E+00
   0.5182728400048539E+00
   0.4930697038267269E+00
   0.4847725450550043E+00
   0.4868117867264265E+00
   0.4891438077312680E+00
   0.4958019692052480E+00
   0.4899024170043743E+00
   0.4718112866586768E+00
   0.4448940803894937E+00
   0.4844408306710052E+00
   0.5097672283158939E+00
   0.4402188702486127E+00
   0.4949591588555760E+00
   0.5222984365278246E+00
   0.4962768642565874E+00
   0.5223881856508000E+00
   0.5038139623137726E+00
   0.5644348415769388E+00
   0.5245862914638270E+00
   0.4990952225740475E+00
   0.5729387319575274E+00
   0.5693727942288798E+00
   0.3752120943198853E+00
   0.4003945013967823E+00
   0.5599616078760332E+00
   0.5562275313689381E+00
   0.4942630615416008E+00
   0.4948653066754840E+00
   0.4925633566469778E+00
   0.4913991911492068E+00
   0.5162604435578291E+00
   0.5363581789164480E+00
   0.4951233619088173E+00
   0.4520580588996672E+00
   0.5129018213744809E+00
   0.5117684050623954E+00
   0.4786283602984691E+00
   0.4931191834130187E+00
   0.4600370644816490E+00
   0.5242644767104901E+00
   0.5299863823033092E+00
   0.5129704576838195E+00
   0.5328926688738151E+00
   0.5309762144344070E+00
   0.5309758478175498E+00
   0.5063645740883908E+00
   0.5279611042886251E+00
   0.5409243200408718E+00
   0.5363680755567724E+00
   0.5374185616341527E+00
   0.4965363892189896E+00
   0.4975366020432991E+00
   0.4963812222065074E+00
   0.4955149796507738E+00
   0.4904160760725144E+00
   0.4902500837385706E+00
   0.4861633321468105E+00
   0.4854043845595496E+00
   0.4931948727428758E+00
   0.4910337298412222E+00
   0.4831704246278370E+00
   0.4872474696736736E+00
   0.4880015266064942E+00
   0.4872302651889248E+00
   0.4882169452861168E+00
   0.4952573774796680E+00
   0.4900715651494562E+00
   0.4903590910897223E+00
   0.4944353947441540E+00
   0.4868172155366907E+00
   0.4892730124456166E+00
   0.4881465468313906E+00
   0.4878254257210549E+00
   0.4449033425804266E+00
   0.4700113970901912E+00
   0.4891764057086759E+00
   0.4885988784443388E+00
   0.4510314966931523E+00
   0.4681809780905899E+00
   0.4876657028410171E+00
   0.4868261964181626E+00
   0.4909274260452791E+00
   0.4793959423426006E+00
   0.4657898790989051E+00
   0.3794350124282206E+00
   0.4903701231435714E+00
   0.4487947049389889E+00
   0.4432422630721075E+00
   0.4845739867680191E+00
   0.4621901174543366E+00
   0.4663617952259257E+00
   0.4747788230953188E+00
   0.4893601407451356E+00
   0.5085681254135498E+00
   0.4304929255381688E+00
   0.4927287952202967E+00
   0.5320316159556495E+00
   0.4913834087268661E+00
   0.5209407202606695E+00
   0.5061324427342099E+00
   0.5690632522093907E+00
   0.5275039635946386E+00
   0.5015052358704269E+00
   0.5821378400893441E+00
   0.5691510934551726E+00
   0.3402456447973631E+00
   0.3785446623990713E+00
   0.5753087182033073E+00
   0.5668544266419437E+00
   0.5703054187489021E+00
   0.5291880558279228E+00
   0.5449834685486178E+00
   0.5719092630440422E+00
   0.5385699051988586E+00
   0.5475901231292366E+00
   0.5821561986155118E+00
   0.4925319464669080E+00
   0.5041562602433624E+00
   0.4961307160734158E+00
   0.5562798843247839E+00
   0.4757784825011418E+00
   0.4950182070732919E+00
   0.5496174375425167E+00
   0.5889523094566262E+00
   0.5839566670160234E+00
   0.5468162066061825E+00
   0.5803875347582954E+00
   0.5106059524798163E+00
   0.5029538002854558E+00
   0.5033089070359895E+00
   0.5676227057496562E+00
   0.5564628401839037E+00
   0.4947142189576907E+00
   0.5506797379816660E+00
   0.5513542297914622E+00
   0.5658254153873857E+00
   0.4919961147622743E+00
   0.4927858663254186E+00
   0.3865450165342230E+00
   0.3687917700797922E+00
   0.5574386377340951E+00
   0.5761776434752987E+00
   0.4194381255916318E+00
   0.5823000254087682E+00
   0.4268225175387355E+00
   0.5397390810842864E+00
   0.5016173293086620E+00
   0.5119227344324045E+00
   0.5048439104192387E+00
   0.5752766217021410E+00
   0.5878365518830734E+00
   0.5382373233256789E+00
   0.5679642820140151E+00
   0.5352011415242529E+00
   0.5338458640061315E+00
   0.5582290622073580E+00
   0.5511577187430067E+00
   0.4256814374288651E+00
   0.5272992040076169E+00
   0.5796799230113395E+00
   0.3318330798430510E+00
   0.4761453124406649E+00
   0.5446511356529705E+00
   0.4800695691854434E+00
   0.3006222867253677E+00
   0.5031629825170417E+00
   0.5017186811614660E+00
   0.5129134283379673E+00
   0.5414111545031854E+00
   0.3435238908931229E+00
   0.3398118070630104E+00
   0.3190216712596070E+00
   0.5066191388476852E+00
   0.5123865725535489E+00
   0.5329065627706545E+00
   0.5881305140710139E+00
   0.4644885571752073E+00
   0.3529644983301913E+00
SCALARS v double 1
LOOKUP_TABLE default
   0.0000000000000000E+00
   0.0000000000000000E+00
   0.0000000000000000E+00
   0.0000000000000000E+00
   0.0000000000000000E+00
   0.0000000000000000E+00
   0.0000000000000000E+00
   0.0000000000000000E+00
   0.0000000000000000E+00
   0.0000000000000000E+00
   0.0000000000000000E+00
   0.0000000000000000E+00
   0.0000000000000000E+00
   0.0000000000000000E+00
   0.0000000000000000E+00
   0.0000000000000000E+00
   0.0000000000000000E+00
   0.0000000000000000E+00
   0.0000000000000000E+00
   0.0000000000000000E+00
   0.0000000000000000E+00
   0.0000000000000000E+00
   0.0000000000000000E+00
   0.0000000000000000E+00
   0.0000000000000000E+00
   0.0000000000000000E+00
   0.0000000000000000E+00
   0.0000000000000000E+00
   0.0000000000000000E+00
   0.0000000000000000E+00
   0.0000000000000000E+00
   0.0000000000000000E+00
   0.0000000000000000E+00
   0.0000000000000000E+00
   0.0000000000000000E+00
   0.0000000000000000E+00
   0.0000000000000000E+00
   0.0000000000000000E+00
   0.0000000000000000E+00
   0.0000000000000000E+00
   0.0000000000000000E+00
   0.0000000000000000E+00
   0.0000000000000000E+00
   0.0000000000000000E+00
   0.0000000000000000E+00
   0.0000000000000000E+00
   0.0000000000000000E+00
   0.0000000000000000E+00
   0.0000000000000000E+00
   0.0000000000000000E+00
   0.0000000000000000E+00
   0.0000000000000000E+00
   0.0000000000000000E+00
   0.0000000000000000E+00
   0.0000000000000000E+00
   0.0000000000000000E+00
   0.0000000000000000E+00
   0.0000000000000000E+00
   0.0000000000000000E+00
   0.0000000000000000E+00
   0.0000000000000000E+00
   0.8513786212322028E-03
  -0.1262645373361146E-02
  -0.1293743040778762E-02
   0.0000000000000000E+00
   0.0000000000000000E+00
   0.0000000000000000E+00
   0.0000000000000000E+00
  -0.1933741667802290E-01
   0.5035491671637818E-03
   0.2213180170845562E-02
   0.1419352364191229E-01
  -0.6752934878534782E-02
  -0.8170239132056157E-02
  -0.1325723542827450E-01
   0.4993982753413231E-02
   0.7358941673619654E-03
   0.3478413353377409E-02
   0.1946676460112445E-02
   0.3168208073674915E-02
   0.1755589533959540E-02
  -0.7295169477568818E-02
  -0.6887233774034390E-04
   0.4552566573086615E-02
  -0.4161913257734073E-03
  -0.6647668762830296E-04
  -0.2024572747777783E-03
   0.8051606992260159E-03
   0.0000000000000000E+00
   0.0000000000000000E+00
   0.0000000000000000E+00
   0.0000000000000000E+00
   0.4746736617673033E-03
   0.1623985839341147E-02
  -0.1273087719465106E-02
  -0.9977331914553104E-03
  -0.2076402798593131E-02
  -0.9960804126318546E-03
  -0.7502737845918789E-03
  -0.7419073871726151E-03
   0.6053717746229886E-04
  -0.5965998365560577E-03
   0.8040959542276180E-03
  -0.1729966872129298E-02
   0.3146019143020310E-03
  -0.5711048451319330E-04
  -0.8890335711694547E-03
  -0.1052025293113868E-02
   0.0000000000000000E+00
   0.0000000000000000E+00
   0.0000000000000000E+00
  -0.1035619366201596E-02
  -0.7789758176787836E-02
   0.1821212393831614E-01
  -0.2897361692563972E-04
  -0.1377034101727529E-02
  -0.2028387399269672E-02
  -0.5613613489549668E-02
  -0.1620404457638325E-02
  -0.6356671556462550E-02
  -0.4326823907701552E-02
   0.1517899757144544E-02
   0.3300522065759887E-01
   0.4389732041409961E-04
  -0.2766875793078174E-02
   0.3629086788986647E-02
   0.3911408604597179E-03
   0.0000000000000000E+00
   0.0000000000000000E+00
   0.0000000000000000E+00
   0.0000000000000000E+00
   0.0000000000000000E+00
   0.0000000000000000E+00
   0.0000000000000000E+00
   0.0000000000000000E+00
   0.0000000000000000E+00
   0.0000000000000000E+00
   0.0000000000000000E+00
   0.0000000000000000E+00
   0.0000000000000000E+00
   0.0000000000000000E+00
   0.0000000000000000E+00
   0.0000000000000000E+00
   0.0000000000000000E+00
   0.5001788274817559E-02
   0.3214026039934055E-02
   0.8125856975366047E-02
   0.6096308112998991E-02
   0.1117368605996994E-01
   0.1403790763830034E-01
  -0.3213857443789355E-03
   0.5161777272296358E-02
   0.2930014141824704E-02
   0.3377893877589654E-02
   0.3728473679414448E-02
  -0.1469487665278665E-01
  -0.6136572583687245E-03
   0.6639692668380785E-02
   0.1457578760818800E-02
   0.1959411290386309E-02
   0.4263950128979519E-02
  -0.2812152889722048E-02
   0.1267575156330080E-02
   0.2851883794403879E-02
   0.1534808664956176E-02
   0.2563471476586274E-02
   0.2013582396311329E-02
   0.2154279036454041E-02
   0.8583999368512172E-02
  -0.3829958107453633E-02
   0.6155658344712519E-02
   0.4727000826628778E-04
  -0.4230611736860903E-03
  -0.1674061355814372E-01
  -0.4996319177152602E-02
  -0.4827025838964440E-02
   0.3399472496601592E-02
  -0.6077006641016043E-02
   0.3218630760171522E-04
  -0.3284811391477355E-01
  -0.3181859007337533E-02
   0.4581409174241082E-02
   0.9682103759903720E-03
   0.2133430473385732E-02
   0.4530796074174505E-02
   0.2692754556555740E-02
   0.3243192960780207E-02
   0.5223626824939212E-02
   0.1957642587078454E-02
   0.7485618835524271E-03
  -0.5694619633933802E-04
  -0.5322500053106415E-02
  -0.6972361983211224E-02
  -0.9632152600722322E-03
   0.1062785309796083E-02
  -0.2105762112022439E-02
  -0.3219383493255596E-02
  -0.2544366003351024E-02
  -0.4130954458757523E-02
  -0.7565906289386505E-02
  -0.2012280317961951E-02
   0.6515191591243927E-03
  -0.1916206540822720E-03
   0.1227843211733548E-02
  -0.3502377821947760E-02
   0.4847376476756053E-02
  -0.8642815804932308E-02
   0.3344073299181769E-04
  -0.3327707750447184E-03
   0.2558602220848303E-02
   0.1615701252060551E-02
   0.2038902964548406E-02
  -0.5641068119984861E-02
SCALARS w double 1
LOOKUP_TABLE default
   0.0000000000000000E+00
   0.0000000000000000E+00
   0.0000000000000000E+00
   0.0000000000000000E+00
   0.0000000000000000E+00
   0.0000000000000000E+00
   0.0000000000000000E+00
   0.0000000000000000E+00
   0.0000000000000000E+00
   0.0000000000000000E+00
   0.0000000000000000E+00
   0.0000000000000000E+00
   0.0000000000000000E+00
   0.0000000000000000E+00
   0.0000000000000000E+00
   0.0000000000000000E+00
   0.0000000000000000E+00
   0.0000000000000000E+00
   0.0000000000000000E+00
   0.0000000000000000E+00
   0.0000000000000000E+00
   0.0000000000000000E+00
   0.0000000000000000E+00
   0.0000000000000000E+00
   0.0000000000000000E+00
   0.0000000000000000E+00
   0.0000000000000000E+00
   0.0000000000000000E+00
   0.0000000000000000E+00
   0.0000000000000000E+00
   0.0000000000000000E+00
   0.0000000000000000E+00
   0.0000000000000000E+00
  -0.1007278452076418E+00
  -0.4245737482655277E-01
   0.7150822729142448E-03
   0.5704773912031946E-02
   0.5681058596428833E-03
   0.1606293915202932E-02
   0.3371999449337069E-02
   0.2364016283507311E-02
   0.4720187209101387E-03
   0.3528384087631229E-02
   0.4533198813216494E-01
   0.6563145597101992E-01
   0.8378092795070203E-03
  -0.2266273869581049E-01
   0.4270582934653842E-02
   0.1341904176507959E-01
   0.1029701792182568E-01
   0.4870730315734539E-01
   0.2380906995664301E-02
  -0.6536073829758899E-02
  -0.7379843222365466E-03
   0.3050419977672850E-03
   0.3845967925884780E-02
  -0.3893825672874739E-01
   0.1820230683896437E-01
   0.1120471372719232E-01
   0.3395681891303482E-01
   0.8379368774958294E-02
   0.4924456867896769E-02
   0.4973604831113484E-02
   0.4900295690257440E-02
   0.6056528302935214E-02
   0.2694616138773476E-02
  -0.4127919574822567E-01
  -0.9927350779016478E-01
  -0.1120401836384128E+00
   0.5143954760814902E-02
   0.4215793443956239E-02
  -0.1002624119740343E+00
  -0.9892910734789653E-01
  -0.9835842474022628E-01
  -0.9444289285398594E-01
  -0.6791170330701671E-01
   0.5196455767578997E-02
  -0.1927437378144713E-01
  -0.1563616898914588E-01
  -0.5965344783391485E-02
   0.6822371770619604E-02
  -0.8000248193318020E-01
  -0.2776595541896071E-01
  -0.8086762072028568E-01
  -0.5863556033605336E-01
   0.3073703583740310E-02
   0.2684926238233615E-02
   0.2644441476372820E-02
   0.3457117781049644E-02
   0.3997977344860102E-02
   0.1199288827182730E-02
  -0.1359814935609737E-03
   0.2028740196388523E-02
   0.4893805806098317E-02
   0.3863982036867518E-02
   0.1126177550564608E-02
   0.1188087635572062E-02
   0.1460077468747810E-02
  -0.2239667200071039E-04
   0.9067918480642769E-04
   0.4386661916960918E-02
   0.2711981683342686E-02
   0.2316664612104094E-02
   0.5006431813539268E-02
   0.1069421622849875E-02
   0.2706481727736204E-02
   0.2010122945693756E-02
   0.3343977872023175E-04
   0.8385999245551277E-01
   0.2832386968843696E-02
  -0.8469747420112716E-03
  -0.1275692989375226E-03
   0.1410861921297357E+00
   0.1236585755784014E+00
  -0.1228981003553197E-02
  -0.4383150282796594E-02
  -0.2805635401983046E-03
  -0.6477952039787166E-02
  -0.1895757774318366E-02
   0.1559343261974615E+00
   0.7528367346987946E-01
   0.2567484927628556E-01
   0.1661254957121421E+00