# vtk DataFile Version 2.0
FUN3D:global_image_vtk
ASCII
DATASET UNSTRUCTURED_GRID
POINTS 213 double
   -0.5474740594603844E-02    0.2504942002468015E+01    0.8038066512359793E-04
    0.1245419060588731E+01    0.2504942002468015E+01    0.1039420355159869E-03
    0.2497696073669951E+01    0.2504942002468015E+01    0.1101293108718830E-03
    0.3750590983903952E+01    0.2504942002468015E+01    0.1356498038574260E-03
    0.5003221377586133E+01    0.2504942002468015E+01    0.9668806234762443E-04
    0.5004676742906221E+01    0.1281291392998365E+01    0.1638058476913128E-03
    0.5004772721058900E+01    0.2775095788685444E-01    0.1903487481319454E-03
    0.5003581212092667E+01   -0.1225853379649926E+01    0.1607772012953118E-03
    0.5001952544222647E+01   -0.2496589018760900E+01    0.1082264471410365E-03
    0.3750348112983221E+01   -0.2496589018760900E+01    0.1458760651352756E-03
    0.2498611454364745E+01   -0.2496589018760900E+01    0.1008938464101551E-03
    0.1247175251993103E+01   -0.2496589018760900E+01    0.1108592957405062E-03
   -0.3383979682904048E-02   -0.2496589018760900E+01    0.8107293235182213E-04
   -0.4257801348439560E-02   -0.1225734687856260E+01    0.3415453547328107E-04
   -0.5251639246460106E-02    0.2619500007965941E-01    0.1038724994445381E-03
   -0.5676116282443467E-02    0.1278221728471010E+01    0.8224550526346652E-04
    0.9003209061970094E+00    0.1608979292482070E+01    0.8704095672877695E-04
    0.3983172219358476E+01   -0.1561211781392463E+01    0.1757125336055965E-03
    0.4035602063492015E+01    0.1486760245757030E+01    0.1713318840955045E-03
    0.1036613695255869E+01   -0.1455626302577310E+01    0.1047193357996382E-03
    0.1094353436962879E+01   -0.2964620547863007E+00    0.1260594408073954E-03
    0.7298399732447649E+00    0.6874686355485917E+00    0.1044597967290630E-03
    0.1617018608574694E+01    0.8553209825042072E+00    0.1529816073073572E-03
    0.2143199643574006E+01   -0.1627128385141891E+01    0.1606178561627236E-03
    0.4088840468516652E+01   -0.4351046315069648E+00    0.2719950835586795E-03
    0.2977916498708486E+01   -0.8334990110939394E+00    0.2245609625847703E-03
    0.3044093234685481E+01   -0.1814361102461421E+01    0.1617007901542048E-03
    0.3427866614749029E+01    0.3813906737475904E+00    0.2936972898092058E-03
    0.4313225393964808E+01    0.5489135241650763E+00    0.2313021604498005E-03
    0.1823032697010122E+01    0.1771265398461595E+01    0.1836207261281953E-03
    0.2806311133387879E+01    0.1358629588153145E+01    0.1943500587655464E-03
    0.1891860842801184E+01   -0.8481308964520620E+00    0.1670653536924808E-03
    0.2268769161311812E+01    0.7723708732352173E-01    0.2072318374055009E-03
    0.5000000000000000E+01    0.2504942002468015E+01    0.1250000000000000E+01
    0.5000000000000000E+01    0.2504942002468015E+01    0.2500000000000000E+01
    0.5000000000000000E+01    0.2504942002468015E+01    0.3750000000000000E+01
    0.5000000000000000E+01    0.2504942002468015E+01    0.5000000000000000E+01
    0.3750000000000000E+01    0.2504942002468015E+01    0.5000000000000000E+01
    0.2500000000000000E+01    0.2504942002468015E+01    0.5000000000000000E+01
    0.1250000000000000E+01    0.2504942002468015E+01    0.5000000000000000E+01
    0.0000000000000000E+00    0.2504942002468015E+01    0.5000000000000000E+01
    0.0000000000000000E+00    0.2504942002468015E+01    0.3750000000000000E+01
    0.0000000000000000E+00    0.2504942002468015E+01    0.2500000000000000E+01
    0.0000000000000000E+00    0.2504942002468015E+01    0.1250000000000000E+01
    0.9588956064218442E+00    0.2504942002468015E+01    0.9696526008694513E+00
    0.3981953079952927E+01    0.2504942002468015E+01    0.4070563859161238E+01
    0.4036122196966515E+01    0.2504942002468015E+01    0.1017567553205726E+01
    0.9637572746747135E+00    0.2504942002468015E+01    0.3973598209858039E+01
    0.1546540127929947E+01    0.2504942002468015E+01    0.2931570189025504E+01
    0.6973799442222224E+00    0.2504942002468015E+01    0.3070319964744880E+01
    0.8903741947279179E+00    0.2504942002468015E+01    0.2056562262665309E+01
    0.2183041993268190E+01    0.2504942002468015E+01    0.3960694458912842E+01
    0.3855844875188856E+01    0.2504942002468015E+01    0.2933250599517381E+01
    0.3152611367489020E+01    0.2504942002468015E+01    0.3637668398431753E+01
    0.3103307385298766E+01    0.2504942002468015E+01    0.4332607818174342E+01
    0.3266711043563175E+01    0.2504942002468015E+01    0.1889656637524564E+01
    0.4232537560766444E+01    0.2504942002468015E+01    0.1918626986171081E+01
    0.1905522338007586E+01    0.2504942002468015E+01    0.7226291174446338E+00
    0.2879767716040245E+01    0.2504942002468015E+01    0.9080946092062822E+00
    0.2012711350767003E+01    0.2504942002468015E+01    0.1767082417726303E+01
    0.2669681469718241E+01    0.2504942002468015E+01    0.2853394351007639E+01
    0.5000000000000000E+01    0.1250000000000000E+01    0.5000000000000000E+01
    0.5000000000000000E+01    0.0000000000000000E+00    0.5000000000000000E+01
    0.5000000000000000E+01   -0.1250000000000000E+01    0.5000000000000000E+01
    0.5000000000000000E+01   -0.2496589018760900E+01    0.5000000000000000E+01
    0.5000000000000000E+01   -0.2496589018760900E+01    0.3750000000000000E+01
    0.5000000000000000E+01   -0.2496589018760900E+01    0.2500000000000000E+01
    0.5000000000000000E+01   -0.2496589018760900E+01    0.1250000000000000E+01
    0.5000000000000000E+01    0.1578994732800803E+01    0.9058375365086910E+00
    0.5000000000000000E+01   -0.1583989954232354E+01    0.3982050490726493E+01
    0.5000000000000000E+01    0.1453322699199022E+01    0.4033849428301197E+01
    0.5000000000000000E+01   -0.1479596339503735E+01    0.1040505887381675E+01
    0.5000000000000000E+01   -0.3227322616384110E+00    0.1099454400140349E+01
    0.5000000000000000E+01    0.6593508822075582E+00    0.7354504170366591E+00
    0.5000000000000000E+01    0.8256214013940779E+00    0.1622302608453282E+01
    0.5000000000000000E+01   -0.1650070333782557E+01    0.2145871574390382E+01
    0.5000000000000000E+01   -0.4612828702537229E+00    0.4086422318222992E+01
    0.5000000000000000E+01   -0.8579242121530853E+00    0.2979540174134984E+01
    0.5000000000000000E+01   -0.1836846154397680E+01    0.3045064261640043E+01
    0.5000000000000000E+01    0.3508002863614053E+00    0.3428197553792836E+01
    0.5000000000000000E+01    0.5185680230613409E+00    0.4309693860063405E+01
    0.5000000000000000E+01    0.1738996113203182E+01    0.1827272193562204E+01
    0.5000000000000000E+01    0.1325493893339706E+01    0.2808563282768077E+01
    0.5000000000000000E+01   -0.8731419609589618E+00    0.1895995683864404E+01
    0.5000000000000000E+01    0.4906150219227333E-01    0.2273179336307740E+01
    0.0000000000000000E+00    0.1250000000000000E+01    0.5000000000000000E+01
    0.0000000000000000E+00    0.0000000000000000E+00    0.5000000000000000E+01
    0.0000000000000000E+00   -0.1250000000000000E+01    0.5000000000000000E+01
    0.0000000000000000E+00   -0.2496589018760900E+01    0.5000000000000000E+01
    0.1250000000000000E+01   -0.2496589018760900E+01    0.5000000000000000E+01
    0.2500000000000000E+01   -0.2496589018760900E+01    0.5000000000000000E+01
    0.3750000000000000E+01   -0.2496589018760900E+01    0.5000000000000000E+01
    0.4042003247744892E+01    0.1558308132739014E+01    0.5000000000000000E+01
    0.9304122287900499E+00   -0.1548001304379777E+01    0.5000000000000000E+01
    0.1037243024609388E+01    0.1462892710085612E+01    0.5000000000000000E+01
    0.3946240828834967E+01   -0.1445243809615570E+01    0.5000000000000000E+01
    0.4092527262848217E+01   -0.3455338993778935E+00    0.5000000000000000E+01
    0.4293103109154542E+01    0.6277660831404320E+00    0.5000000000000000E+01
    0.3241512314643519E+01    0.7429886854239611E+00    0.5000000000000000E+01
    0.2844289952419609E+01   -0.1588117879734118E+01    0.5000000000000000E+01
    0.7159905765450471E+00   -0.6002320124191652E+00    0.5000000000000000E+01
    0.1754341919796891E+01   -0.7398147869923652E+00    0.5000000000000000E+01
    0.1870296826774691E+01   -0.1788622905643739E+01    0.5000000000000000E+01
    0.9220614901912976E+00    0.3083720183248586E+00    0.5000000000000000E+01
    0.3101523624086016E+01    0.1777901774806180E+01    0.5000000000000000E+01
    0.2192512063922564E+01    0.1576861561598471E+01    0.5000000000000000E+01
    0.2024793420196460E+01    0.4773861992750707E+00    0.5000000000000000E+01
    0.2990627757741975E+01   -0.4878110785814084E+00    0.5000000000000000E+01
    0.0000000000000000E+00   -0.2496589018760900E+01    0.1250000000000000E+01
    0.0000000000000000E+00   -0.2496589018760900E+01    0.2500000000000000E+01
    0.0000000000000000E+00   -0.2496589018760900E+01    0.3750000000000000E+01
    0.0000000000000000E+00    0.1558308132739014E+01    0.4042003247744892E+01
    0.0000000000000000E+00   -0.1548001304379777E+01    0.9304122287900499E+00
    0.0000000000000000E+00    0.1462892710085612E+01    0.1037243024609388E+01
    0.0000000000000000E+00   -0.1445243809615570E+01    0.3946240828834967E+01
    0.0000000000000000E+00   -0.3455338993778935E+00    0.4092527262848217E+01
    0.0000000000000000E+00    0.6277660831404320E+00    0.4293103109154542E+01
    0.0000000000000000E+00    0.7429886854239611E+00    0.3241512314643519E+01
    0.0000000000000000E+00   -0.1588117879734118E+01    0.2844289952419609E+01
    0.0000000000000000E+00   -0.6002320124191652E+00    0.7159905765450471E+00
    0.0000000000000000E+00   -0.7398147869923652E+00    0.1754341919796891E+01
    0.0000000000000000E+00   -0.1788622905643739E+01    0.1870296826774691E+01
    0.0000000000000000E+00    0.3083720183248586E+00    0.9220614901912976E+00
    0.0000000000000000E+00    0.1777901774806180E+01    0.3101523624086016E+01
    0.0000000000000000E+00    0.1576861561598471E+01    0.2192512063922564E+01
[...]
POINT_DATA 213
SCALARS rho double 1
LOOKUP_TABLE default
   0.1346097006439734E+01
   0.9571994863859161E+00
   0.9460925204281545E+00
   0.9421713146036069E+00
   0.8435935827163161E+00
   0.7741865244826018E+00
   0.7627490090257867E+00
   0.7661375845948728E+00
   0.8310374436851616E+00
   0.9353532085336498E+00
   0.9343976605342530E+00
   0.9615835714698393E+00
   0.1448454636655720E+01
   0.1495394537898922E+01
   0.1646716567497223E+01
   0.1426577888209043E+01
   0.1009796830459080E+01
   0.9511377801717068E+00
   0.9438170937204803E+00
   0.9574429176802596E+00
   0.9414772701757337E+00
   0.1037107146095670E+01
   0.9258078133890723E+00
   0.9322440324373453E+00
   0.9538047629185936E+00
   0.9520361816596182E+00
   0.9350902093391409E+00
   0.9565433560540043E+00
   0.9378588927358344E+00
   0.9303242924534313E+00
   0.9446416458613693E+00
   0.8862304476957075E+00
   0.9423969650930750E+00
   0.9637184280527096E+00
   0.1008362540939317E+01
   0.1006713477450881E+01
   0.1001958883405886E+01
   0.1003217689499233E+01
   0.1004119810063300E+01
   0.1005207370790487E+01
   0.1004249316701887E+01
   0.1008267095741638E+01
   0.1023865868604579E+01
   0.1063750815977643E+01
   0.1019382681851731E+01
   0.1001778569662481E+01
   0.9645928765939417E+00
   0.1005262391902810E+01
   0.1000745040545825E+01
   0.1008694168722535E+01
   0.1008031884930445E+01
   0.1002353973300394E+01
   0.9980224031242099E+00
   0.1000594056402867E+01
   0.1001620890996171E+01
   0.9828094731356055E+00
   0.9843998256509275E+00
   0.9834242082177830E+00
   0.9790375469744722E+00
   0.9904788896057531E+00
   0.9935221855838231E+00
   0.1002008759321393E+01
   0.1002131967951317E+01
   0.1002272674548468E+01
   0.1001792807265603E+01
   0.1009814986792532E+01
   0.1006499269980104E+01
   0.9560827117731951E+00
   0.9252938909831349E+00
   0.1007053724893610E+01
   0.1004491543281732E+01
   0.9144854639526802E+00
   0.9091439265641511E+00
   0.8752432779603461E+00
   0.9768021926764358E+00
   0.1000530099358470E+01
   0.1005826660505594E+01
   0.1012895773944596E+01
   0.1011677267934634E+01
   0.1010416546473295E+01
   0.1005456575878486E+01
   0.9909247113274066E+00
   0.1005152818659730E+01
   0.9860799585256277E+00
   0.1005593055831425E+01
   0.1004239464457213E+01
   0.1002885831766316E+01
   0.1003350348312912E+01
   0.1003998459099303E+01
   0.1005116089937319E+01
   0.1003223533995059E+01
   0.1002668587283162E+01
   0.1002589589298288E+01
   0.1004069500056451E+01
   0.1004304390622498E+01
   0.1001642345421814E+01
   0.1002278706498196E+01
   0.1002546610847082E+01
   0.1003471877220204E+01
   0.1003380271906035E+01
   0.1003233299133978E+01
   0.1004430185761551E+01
   0.1004324619667137E+01
   0.1003652903879759E+01
   0.1003718551992352E+01
   0.1004318844410726E+01
   0.1004462400575278E+01
   0.1003629295755578E+01
   0.1064489721490282E+01
   0.1028444238245131E+01
   0.1009606835662829E+01
   0.1006626073234623E+01
   0.1163974925815648E+01
   0.1086025345152597E+01
   0.1007907649084445E+01
   0.1007251940452222E+01
   0.1006796092468280E+01
   0.1013052213676096E+01
   0.1019341247972169E+01
   0.1235134880919444E+01
   0.1032535508187333E+01
   0.1046565549726143E+01
   0.1201695803002490E+01
   0.1014670079398001E+01
   0.1032293474672530E+01
   0.1028219924974621E+01
   0.1014640068111073E+01
   0.1028999236550947E+01
   0.1002002435659194E+01
   0.9607798744997132E+00
   0.1006858990164623E+01
   0.1001326398673968E+01
   0.1010799956894447E+01
   0.1012236576588901E+01
   0.1000939786617748E+01
   0.9979315607279683E+00
   0.9980679167550527E+00
   0.1001191367164465E+01
   0.9841977197074360E+00
   0.9815061891486044E+00
   0.9648620738558298E+00
   0.9680679245704141E+00
   0.9914140151987204E+00
   0.9910913051290902E+00
   0.9925597550703347E+00
   0.1001728076051061E+01
   0.9993249257222869E+00
   0.9941443873877914E+00
   0.1006981392832732E+01
   0.1022611156719323E+01
   0.1001120779686346E+01
   0.1008783409140863E+01
   0.1004774303765823E+01
   0.1009028541885176E+01
   0.9967193915021617E+00
   0.1005562615988921E+01
   0.1003325013938700E+01
   0.9949862546166214E+00
   0.9833517010885739E+00
   0.9944520937516546E+00
   0.9973481029767288E+00
   0.9932519139657436E+00
   0.1001312025004509E+01
   0.1003000797508310E+01
   0.1002188613401100E+01
   0.9947121115347732E+00
   0.9937838136567184E+00
   0.1004861303188084E+01
   0.1020102525579168E+01
   0.1005340616647624E+01
   0.9817058996043510E+00
   0.1004974824118668E+01
   0.1012375701792041E+01
   0.9873705235756947E+00
   0.9551253472757687E+00
   0.9865273975048843E+00
   0.9865946519691925E+00
   0.9920041955951499E+00
   0.9934462901437119E+00
   0.9960612760105508E+00
   0.1037404886646401E+01
   0.1033163229006352E+01
   0.1001443079384692E+01
   0.1001928972324845E+01
   0.9912286281795790E+00
   0.9911119247118167E+00
   0.9649284184572404E+00
   0.9933727506004894E+00
   0.1006089048562147E+01
   0.1001962063136624E+01
   0.9908625020857876E+00
   0.9742250384481004E+00
   0.9420725437028130E+00
   0.9821579011375141E+00
   0.9794772681756877E+00
   0.9704319643574207E+00
   0.9720820381517298E+00
   0.9557851980781003E+00
   0.9497953695556627E+00
   0.9529801871008592E+00
   0.1002636550526276E+01
   0.1002475635230235E+01
   0.1000512857601781E+01
   0.1001675825977758E+01
   0.9610052940675298E+00
   0.9492410816095481E+00
   0.9586390125605797E+00
   0.1001120872658359E+01
   0.1000500109803945E+01
   0.1001160945486115E+01
   0.9807424701254396E+00
   0.9805587541285843E+00
   0.9629172971055147E+00
SCALARS u double 1
LOOKUP_TABLE default
   0.0000000000000000E+00
   0.0000000000000000E+00
   0.0000000000000000E+00
   0.0000000000000000E+00
   0.0000000000000000E+00
   0.0000000000000000E+00
   0.0000000000000000E+00
   0.0000000000000000E+00
   0.0000000000000000E+00
   0.0000000000000000E+00
   0.0000000000000000E+00
   0.0000000000000000E+00
   0.0000000000000000E+00
   0.0000000000000000E+00
   0.0000000000000000E+00
   0.0000000000000000E+00
   0.0000000000000000E+00
   0.0000000000000000E+00
   0.0000000000000000E+00
   0.0000000000000000E+00
   0.0000000000000000E+00
   0.0000000000000000E+00
   0.0000000000000000E+00
   0.0000000000000000E+00
   0.0000000000000000E+00
   0.0000000000000000E+00
   0.0000000000000000E+00
   0.0000000000000000E+00
   0.0000000000000000E+00
   0.0000000000000000E+00
   0.0000000000000000E+00
   0.0000000000000000E+00
   0.0000000000000000E+00
   0.4946111114012469E+00
   0.5336287494154685E+00
   0.5182727840339119E+00
   0.4930698341695123E+00
   0.4847728100039981E+00
   0.4868118325281421E+00
   0.4891438148562965E+00
   0.4958019567779363E+00
   0.4899024287726273E+00
   0.4718112861799322E+00
   0.4448940847819893E+00
   0.4844408290731173E+00
   0.5097671726101102E+00
   0.4402188163216356E+00
   0.4949591555261209E+00
   0.5222984438415518E+00
   0.4962768704074116E+00
   0.5223881883987467E+00
   0.5038139439735383E+00
   0.5644348293390996E+00
   0.5245862694307319E+00
   0.4990951892566252E+00
   0.5729387362181501E+00
   0.5693727689846405E+00
   0.3752120885763929E+00
   0.4003944824816372E+00
   0.5599616162801130E+00
   0.5562275373216328E+00
   0.4942632389782488E+00
   0.4948654175351827E+00
   0.4925633847850339E+00
   0.4913992025385185E+00
   0.5162604501823552E+00
   0.5363581889834826E+00
   0.4951233332697406E+00
   0.4520579900117367E+00
   0.5129018113619397E+00
   0.5117683110341928E+00
   0.4786283395647471E+00
   0.4931191572982748E+00
   0.4600370763133436E+00
   0.5242644938731473E+00
   0.5299863837638075E+00
   0.5129704079358057E+00
   0.5328926639564505E+00
   0.5309762305313149E+00
   0.5309757952969396E+00
   0.5063645236152737E+00
   0.5279611128095916E+00
   0.5409243249448200E+00
   0.5363680632968899E+00
   0.5374185662740305E+00
   0.4965363905251385E+00
   0.4975365980902727E+00
   0.4963812181265673E+00
   0.4955149825274242E+00
   0.4904160476817003E+00
   0.4902500756555556E+00
   0.4861633297263587E+00
   0.4854047054905716E+00
   0.4931948787625235E+00
   0.4910337497729691E+00
   0.4831704563259805E+00
   0.4872476254076086E+00
   0.4880017858787898E+00
   0.4872304075016551E+00
   0.4882169424963276E+00
   0.4952573878602342E+00
   0.4900715745098322E+00
   0.4903590760113020E+00
   0.4944354124303136E+00
   0.4868173428299938E+00
   0.4892730607876632E+00
   0.4881465858962638E+00
   0.4878254941048871E+00
   0.4449033179412866E+00
   0.4700114019743931E+00
   0.4891764082858951E+00
   0.4885988675474256E+00
   0.4510315146200374E+00
   0.4681809762048676E+00
   0.4876656942465034E+00
   0.4868261923169116E+00
   0.4909274143910086E+00
   0.4793959459323258E+00
   0.4657898913200151E+00
   0.3794350141380471E+00
   0.4903701182841373E+00
   0.4487947090674676E+00
   0.4432422638848346E+00
   0.4845739889173737E+00
   0.4621901200039928E+00
   0.4663618033409309E+00
   0.4747788304892191E+00
   0.4893601414580006E+00
   0.5085682497130090E+00
   0.4304929330770666E+00
   0.4927287994116900E+00
   0.5320316279965690E+00
   0.4913834181901859E+00
   0.5209407179128105E+00
   0.5061324591323175E+00
   0.5690632469877368E+00
   0.5275039968540035E+00
   0.5015052792440309E+00
   0.5821378396710667E+00
   0.5691510773142221E+00
   0.3402456472687547E+00
   0.3785446602693062E+00
   0.5753087202649796E+00
   0.5668544342057212E+00
   0.5703054208708946E+00
   0.5291880573680142E+00
   0.5449834735138703E+00
   0.5719092654380633E+00
   0.5385699084166315E+00
   0.5475901225464914E+00
   0.5821561987460079E+00
   0.4925319477486469E+00
   0.5041562511205504E+00
   0.4961307180749594E+00
   0.5562798888795907E+00
   0.4757784810413323E+00
   0.4950182234338734E+00
   0.5496174334862697E+00
   0.5889523065925060E+00
   0.5839566716868724E+00
   0.5468161875386176E+00
   0.5803875340923063E+00
   0.5106059482893183E+00
   0.5029537914645584E+00
   0.5033089240932599E+00
   0.5676226834007678E+00
   0.5564628384601257E+00
   0.4947142165648120E+00
   0.5506797409075042E+00
   0.5513542297186080E+00
   0.5658254162241600E+00
   0.4919961197731188E+00
   0.4927858692072471E+00
   0.3865450097510570E+00
   0.3687917722354398E+00
   0.5574386383787133E+00
   0.5761776495429752E+00
   0.4194381222806594E+00
   0.5823000264272383E+00
   0.4268225165528454E+00
   0.5397390846945810E+00
   0.5016173361458813E+00
   0.5119227423250764E+00
   0.5048438837822190E+00
   0.5752765988463278E+00
   0.5878365393363479E+00
   0.5382373112332716E+00
   0.5679642728436151E+00
   0.5352011597996513E+00
   0.5338458584095263E+00
   0.5582290485777769E+00
   0.5511577158445334E+00
   0.4256813984408028E+00
   0.5272992054080090E+00
   0.5796799135303405E+00
   0.3318330886218827E+00
   0.4761453153082487E+00
   0.5446511287762777E+00
   0.4800695522351935E+00
   0.3006222858511195E+00
   0.5031629948503222E+00
   0.5017186899461804E+00
   0.5129134666544782E+00
   0.5414111128213838E+00
   0.3435238719710318E+00
   0.3398118142980596E+00
   0.3190216721305940E+00
   0.5066191798961419E+00
   0.5123866320071497E+00
   0.5329065111865440E+00
   0.5881305134911248E+00
   0.4644885633148695E+00
   0.3529645011445538E+00
SCALARS v double 1
LOOKUP_TABLE default
   0.0000000000000000E+00
   0.0000000000000000E+00
   0.0000000000000000E+00
   0.0000000000000000E+00
   0.0000000000000000E+00
   0.0000000000000000E+00
   0.0000000000000000E+00
   0.0000000000000000E+00
   0.0000000000000000E+00
   0.0000000000000000E+00
   0.0000000000000000E+00
   0.0000000000000000E+00
   0.0000000000000000E+00
   0.0000000000000000E+00
   0.0000000000000000E+00
   0.0000000000000000E+00
   0.0000000000000000E+00
   0.0000000000000000E+00
   0.0000000000000000E+00
   0.0000000000000000E+00
   0.0000000000000000E+00
   0.0000000000000000E+00
   0.0000000000000000E+00
   0.0000000000000000E+00
   0.0000000000000000E+00
   0.0000000000000000E+00
   0.0000000000000000E+00
   0.0000000000000000E+00
   0.0000000000000000E+00
   0.0000000000000000E+00
   0.0000000000000000E+00
   0.0000000000000000E+00
   0.0000000000000000E+00
   0.0000000000000000E+00
   0.0000000000000000E+00
   0.0000000000000000E+00
   0.0000000000000000E+00
   0.0000000000000000E+00
   0.0000000000000000E+00
   0.0000000000000000E+00
   0.0000000000000000E+00
   0.0000000000000000E+00
   0.0000000000000000E+00
   0.0000000000000000E+00
   0.0000000000000000E+00
   0.0000000000000000E+00
   0.0000000000000000E+00
   0.0000000000000000E+00
   0.0000000000000000E+00
   0.0000000000000000E+00
   0.0000000000000000E+00
   0.0000000000000000E+00
   0.0000000000000000E+00
   0.0000000000000000E+00
   0.0000000000000000E+00
   0.0000000000000000E+00
   0.0000000000000000E+00
   0.0000000000000000E+00
   0.0000000000000000E+00
   0.0000000000000000E+00
   0.0000000000000000E+00
   0.8513402934790783E-03
  -0.1262562577745403E-02
  -0.1293643979131993E-02
   0.0000000000000000E+00
   0.0000000000000000E+00
   0.0000000000000000E+00
   0.0000000000000000E+00
  -0.1933750157037311E-01
   0.5035633253044335E-03
   0.2213180615782000E-02
   0.1419352312655887E-01
  -0.6752940406375018E-02
  -0.8170278911121156E-02
  -0.1325726686421488E-01
   0.4993972872793276E-02
   0.7358840499670685E-03
   0.3478385723271452E-02
   0.1946670760633254E-02
   0.3168191920583966E-02
   0.1755584145275821E-02
  -0.7295215188948573E-02
  -0.6887225468863830E-04
   0.4552554669330119E-02
  -0.4162033941359918E-03
  -0.6647876910179410E-04
  -0.2024593637501593E-03
   0.8051610546369254E-03
   0.0000000000000000E+00
   0.0000000000000000E+00
   0.0000000000000000E+00
   0.0000000000000000E+00
   0.4746219060434505E-03
   0.1623995925485675E-02
  -0.1273080464399620E-02
  -0.9976662015882050E-03
  -0.2076264152684231E-02
  -0.9960263513170565E-03
  -0.7502025282152739E-03
  -0.7418570520816228E-03
   0.6053763752820398E-04
  -0.5965731333021662E-03
   0.8041135647796167E-03
  -0.1729970605621176E-02
   0.3146110260271776E-03
  -0.5709774127690597E-04
  -0.8890117648596191E-03
  -0.1051947975901136E-02
   0.0000000000000000E+00
   0.0000000000000000E+00
   0.0000000000000000E+00
  -0.1035625372426427E-02
  -0.7789756746902248E-02
   0.1821212915565797E-01
  -0.2897311516619531E-04
  -0.1377037331446758E-02
  -0.2028392747403524E-02
  -0.5613610142328244E-02
  -0.1620407562971987E-02
  -0.6356673068823659E-02
  -0.4326825637288938E-02
   0.1517900503097282E-02
   0.3300521919916114E-01
   0.4389938120623085E-04
  -0.2766873869024759E-02
   0.3629088052093561E-02
   0.3911416407113009E-03
   0.0000000000000000E+00
   0.0000000000000000E+00
   0.0000000000000000E+00
   0.0000000000000000E+00
   0.0000000000000000E+00
   0.0000000000000000E+00
   0.0000000000000000E+00
   0.0000000000000000E+00
   0.0000000000000000E+00
   0.0000000000000000E+00
   0.0000000000000000E+00
   0.0000000000000000E+00
   0.0000000000000000E+00
   0.0000000000000000E+00
   0.0000000000000000E+00
   0.0000000000000000E+00
   0.0000000000000000E+00
   0.5001783899790601E-02
   0.3214024732022338E-02
   0.8125852111700253E-02
   0.6096307505290041E-02
   0.1117368678882665E-01
   0.1403790828719218E-01
  -0.3213857817291745E-03
   0.5161774315314522E-02
   0.2930008556643797E-02
   0.3377890535258248E-02
   0.3728473326818555E-02
  -0.1469487683516099E-01
  -0.6136556733395821E-03
   0.6639686126763342E-02
   0.1457584702586777E-02
   0.1959406807336624E-02
   0.4263939667750795E-02
  -0.2812151533722097E-02
   0.1267564764913073E-02
   0.2851879385265831E-02
   0.1534799049988563E-02
   0.2563457369042818E-02
   0.2013572002866588E-02
   0.2154272637253865E-02
   0.8583998509604627E-02
  -0.3829957485974804E-02
   0.6155659939559043E-02
   0.4726644022029136E-04
  -0.4230622317722180E-03
  -0.1674061354352902E-01
  -0.4996319945687816E-02
  -0.4827026369622691E-02
   0.3399469016632586E-02
  -0.6077007737138571E-02
   0.3218370883407819E-04
  -0.3284811459572505E-01
  -0.3181860122168325E-02
   0.4581408395060239E-02
   0.9682048016492322E-03
   0.2133427803919901E-02
   0.4530780801004692E-02
   0.2692742629147928E-02
   0.3243192001555864E-02
   0.5223614739557529E-02
   0.1957639230866019E-02
   0.7485414122008830E-03
  -0.5695331527557347E-04
  -0.5322512960415881E-02
  -0.6972390824806341E-02
  -0.9632090449553759E-03
   0.1062784557946816E-02
  -0.2105759210709336E-02
  -0.3219382662909991E-02
  -0.2544359584446042E-02
  -0.4130952759742256E-02
  -0.7565900302300640E-02
  -0.2012281059627632E-02
   0.6515013944600681E-03
  -0.1916243564339546E-03
   0.1227837785573268E-02
  -0.3502386649418622E-02
   0.4847370207156256E-02
  -0.8642815942308178E-02
   0.3342200674851265E-04
  -0.3327928252091853E-03
   0.2558599399857629E-02
   0.1615699755875721E-02
   0.2038901705654593E-02
  -0.5641066632044744E-02
SCALARS w double 1
LOOKUP_TABLE default
   0.0000000000000000E+00
   0.0000000000000000E+00
   0.0000000000000000E+00
   0.0000000000000000E+00
   0.0000000000000000E+00
   0.0000000000000000E+00
   0.0000000000000000E+00
   0.0000000000000000E+00
   0.0000000000000000E+00
   0.0000000000000000E+00
   0.0000000000000000E+00
   0.0000000000000000E+00
   0.0000000000000000E+00
   0.0000000000000000E+00
   0.0000000000000000E+00
   0.0000000000000000E+00
   0.0000000000000000E+00
   0.0000000000000000E+00
   0.0000000000000000E+00
   0.0000000000000000E+00
   0.0000000000000000E+00
   0.0000000000000000E+00
   0.0000000000000000E+00
   0.0000000000000000E+00
   0.0000000000000000E+00
   0.0000000000000000E+00
   0.0000000000000000E+00
   0.0000000000000000E+00
   0.0000000000000000E+00
   0.0000000000000000E+00
   0.0000000000000000E+00
   0.0000000000000000E+00
   0.0000000000000000E+00
  -0.1007277844218403E+00
  -0.4245733022879591E-01
   0.7150716146654704E-03
   0.5704786860411827E-02
   0.5680440967544254E-03
   0.1606298761422238E-02
   0.3371996873067878E-02
   0.2364011408284195E-02
   0.4720150801698208E-03
   0.3528384831936379E-02
   0.4533199207498925E-01
   0.6563145893797759E-01
   0.8378322083139095E-03
  -0.2266275889996634E-01
   0.4270581250076120E-02
   0.1341903353411051E-01
   0.1029701565858095E-01
   0.4870730540660618E-01
   0.2380905172938953E-02
  -0.6536057690073256E-02
  -0.7379710889910237E-03
   0.3050749471012053E-03
   0.3845970778455849E-02
  -0.3893822370392280E-01
   0.1820230716771669E-01
   0.1120471103650717E-01
   0.3395682177249883E-01
   0.8379365708220437E-02
   0.4924555986218075E-02
   0.4973725011077770E-02
   0.4900389723439390E-02
   0.6056592236571970E-02
   0.2694648421549757E-02
  -0.4127919682455145E-01
  -0.9927349298353863E-01
  -0.1120401888092229E+00
   0.5144005299540179E-02
   0.4215798308731551E-02
  -0.1002624004439874E+00
  -0.9892908621168352E-01
  -0.9835841817881633E-01
  -0.9444286226314250E-01
  -0.6791169039662369E-01
   0.5196492383524609E-02
  -0.1927437664948329E-01
  -0.1563617295865553E-01
  -0.5965358740063148E-02
   0.6822419064580819E-02
  -0.8000242500646063E-01
  -0.2776596022811436E-01
  -0.8086760075378703E-01
  -0.5863554798811626E-01
   0.3073700475223960E-02
   0.2684918794276716E-02
   0.2644441700449269E-02
   0.3457110977738093E-02
   0.3997967439587776E-02
   0.1199244798541962E-02
  -0.1359933008531856E-03
   0.2028755480019951E-02
   0.4893793748658076E-02
   0.3863980851525570E-02
   0.1126209648677320E-02
   0.1188120551440173E-02
   0.1460179722169191E-02
  -0.2239004543559960E-04
   0.9065253925804605E-04
   0.4386661909042017E-02
   0.2711983801200874E-02
   0.2316653622735063E-02
   0.5006429589875065E-02
   0.1069358202343966E-02
   0.2706488713761172E-02
   0.2010113069858814E-02
   0.3339340881402500E-04
   0.8385998414207664E-01
   0.2832385925737322E-02
  -0.8469770696727417E-03
  -0.1275668527953349E-03
   0.1410861911348512E+00
   0.1236585737387959E+00
  -0.1228980522934774E-02
  -0.4383151278321017E-02
  -0.2805565762996095E-03
  -0.6477953707111630E-02
  -0.1895759335662704E-02
   0.1559343255284704E+00
   0.7528367092858314E-01
   0.2567485078747892E-01
   0.1661254953786045E+00