# vtk DataFile Version 2.0
FUN3D:global_image_vtk
ASCII
DATASET UNSTRUCTURED_GRID
POINTS 357 double
    0.5000000000000000E+01    0.0000000000000000E+00    0.2500000000000000E+01
    0.5000000000000000E+01    0.0000000000000000E+00    0.1500000000000000E+01
    0.5000000000000000E+01    0.0000000000000000E+00    0.5000000000000000E+00
    0.5000000000000000E+01    0.0000000000000000E+00   -0.5000000000000000E+00
    0.5000000000000000E+01    0.0000000000000000E+00   -0.1500000000000000E+01
    0.5000000000000000E+01    0.0000000000000000E+00   -0.2500000000000000E+01
    0.4000000000000000E+01    0.0000000000000000E+00   -0.2500000000000000E+01
    0.3000000000000000E+01    0.0000000000000000E+00   -0.2500000000000000E+01
    0.2000000000000000E+01    0.0000000000000000E+00   -0.2500000000000000E+01
    0.9999999999999998E+00    0.0000000000000000E+00   -0.2500000000000000E+01
    0.0000000000000000E+00    0.0000000000000000E+00   -0.2500000000000000E+01
    0.0000000000000000E+00    0.0000000000000000E+00   -0.1500000000000000E+01
    0.0000000000000000E+00    0.0000000000000000E+00   -0.5000000000000000E+00
    0.0000000000000000E+00    0.0000000000000000E+00    0.5000000000000000E+00
    0.0000000000000000E+00    0.0000000000000000E+00    0.1500000000000000E+01
    0.0000000000000000E+00    0.0000000000000000E+00    0.2500000000000000E+01
    0.1000000000000000E+01    0.0000000000000000E+00    0.2500000000000000E+01
    0.2000000000000000E+01    0.0000000000000000E+00    0.2500000000000000E+01
    0.3000000000000000E+01    0.0000000000000000E+00    0.2500000000000000E+01
    0.4000000000000000E+01    0.0000000000000000E+00    0.2500000000000000E+01
    0.4251722454414101E+01    0.0000000000000000E+00    0.1683881519811194E+01
    0.6137332127746504E+00    0.0000000000000000E+00    0.1857879939968904E+01
    0.5055778377301318E+00    0.0000000000000000E+00   -0.1984051145810370E+01
    0.4417350419147004E+01    0.0000000000000000E+00   -0.1798049780917599E+01
    0.4277413896341787E+01    0.0000000000000000E+00    0.7849806286986014E+00
    0.4308949446070184E+01    0.0000000000000000E+00   -0.1030628045339280E+00
    0.3520446556869569E+01    0.0000000000000000E+00    0.1794049766750259E+00
    0.2591686382569276E+01    0.0000000000000000E+00    0.1667295362171870E+01
    0.1306794966956192E+01    0.0000000000000000E+00    0.1758138528035871E+01
    0.7010346092308208E+00    0.0000000000000000E+00    0.3961722714940701E-01
    0.2308484603929350E+01    0.0000000000000000E+00   -0.1644203313594280E+01
    0.2985842179142563E+01    0.0000000000000000E+00   -0.1902408850608312E+01
    0.7941286090671454E+00    0.0000000000000000E+00    0.1001771779085911E+01
    0.1020081380390785E+01    0.0000000000000000E+00   -0.1456956300840256E+01
    0.4356436167904402E+01    0.0000000000000000E+00   -0.1022551130153989E+01
    0.3730315927830617E+01    0.0000000000000000E+00   -0.1467697774434008E+01
    0.2084566650673803E+01    0.0000000000000000E+00   -0.2237556063676878E+00
    0.1900542590153839E+01    0.0000000000000000E+00   -0.1088755785946356E+01
    0.1324761360056765E+01    0.0000000000000000E+00   -0.5267852841860601E+00
    0.3681169751640886E+01    0.0000000000000000E+00    0.1040160628527462E+01
    0.3418876656618056E+01    0.0000000000000000E+00    0.1726168461930342E+01
    0.3751175205920376E+01    0.0000000000000000E+00   -0.6691259304140329E+00
    0.2889801815813465E+01    0.0000000000000000E+00   -0.8562661438192326E+00
    0.3017983410224082E+01    0.0000000000000000E+00    0.9231712184526961E+00
    0.1645821714894795E+01    0.0000000000000000E+00   -0.1837983080076178E+01
    0.1513509181197389E+01    0.0000000000000000E+00    0.1108836692078749E+01
    0.1919398798697967E+01    0.0000000000000000E+00    0.1580342757081665E+01
    0.2193859429875553E+01    0.0000000000000000E+00    0.7740897355665203E+00
    0.6091754699356742E+00    0.0000000000000000E+00   -0.7888248715753817E+00
    0.1441359832811715E+01    0.0000000000000000E+00    0.3490936567660688E+00
    0.2716632372076206E+01    0.0000000000000000E+00    0.1359772398136161E+00
    0.5000000000000000E+01   -0.8333333333333334E+00    0.2500000000000000E+01
    0.5000000000000000E+01   -0.8333333333333334E+00    0.1500000000000000E+01
    0.5000000000000000E+01   -0.8333333333333334E+00    0.5000000000000000E+00
    0.5000000000000000E+01   -0.8333333333333334E+00   -0.5000000000000000E+00
    0.5000000000000000E+01   -0.8333333333333334E+00   -0.1500000000000000E+01
    0.5000000000000000E+01   -0.8333333333333334E+00   -0.2500000000000000E+01
    0.4000000000000000E+01   -0.8333333333333334E+00   -0.2500000000000000E+01
    0.3000000000000000E+01   -0.8333333333333334E+00   -0.2500000000000000E+01
    0.2000000000000000E+01   -0.8333333333333334E+00   -0.2500000000000000E+01
    0.9999999999999998E+00   -0.8333333333333334E+00   -0.2500000000000000E+01
    0.0000000000000000E+00   -0.8333333333333334E+00   -0.2500000000000000E+01
    0.0000000000000000E+00   -0.8333333333333334E+00   -0.1500000000000000E+01
    0.0000000000000000E+00   -0.8333333333333334E+00   -0.5000000000000000E+00
    0.0000000000000000E+00   -0.8333333333333334E+00    0.5000000000000000E+00
    0.0000000000000000E+00   -0.8333333333333334E+00    0.1500000000000000E+01
    0.0000000000000000E+00   -0.8333333333333334E+00    0.2500000000000000E+01
    0.1000000000000000E+01   -0.8333333333333334E+00    0.2500000000000000E+01
    0.2000000000000000E+01   -0.8333333333333334E+00    0.2500000000000000E+01
    0.3000000000000000E+01   -0.8333333333333334E+00    0.2500000000000000E+01
    0.4000000000000000E+01   -0.8333333333333334E+00    0.2500000000000000E+01
    0.4251722454414101E+01   -0.8333333333333334E+00    0.1683881519811194E+01
    0.6137332127746504E+00   -0.8333333333333334E+00    0.1857879939968904E+01
    0.5055778377301318E+00   -0.8333333333333334E+00   -0.1984051145810370E+01
    0.4417350419147004E+01   -0.8333333333333334E+00   -0.1798049780917599E+01
    0.4277413896341787E+01   -0.8333333333333334E+00    0.7849806286986014E+00
    0.4308949446070184E+01   -0.8333333333333334E+00   -0.1030628045339280E+00
    0.3520446556869569E+01   -0.8333333333333334E+00    0.1794049766750259E+00
    0.2591686382569276E+01   -0.8333333333333334E+00    0.1667295362171870E+01
    0.1306794966956192E+01   -0.8333333333333334E+00    0.1758138528035871E+01
    0.7010346092308208E+00   -0.8333333333333334E+00    0.3961722714940701E-01
    0.2308484603929350E+01   -0.8333333333333334E+00   -0.1644203313594280E+01
    0.2985842179142563E+01   -0.8333333333333334E+00   -0.1902408850608312E+01
    0.7941286090671454E+00   -0.8333333333333334E+00    0.1001771779085911E+01
    0.1020081380390785E+01   -0.8333333333333334E+00   -0.1456956300840256E+01
    0.4356436167904402E+01   -0.8333333333333334E+00   -0.1022551130153989E+01
    0.3730315927830617E+01   -0.8333333333333334E+00   -0.1467697774434008E+01
    0.2084566650673803E+01   -0.8333333333333334E+00   -0.2237556063676878E+00
    0.1900542590153839E+01   -0.8333333333333334E+00   -0.1088755785946356E+01
    0.1324761360056765E+01   -0.8333333333333334E+00   -0.5267852841860601E+00
    0.3681169751640886E+01   -0.8333333333333334E+00    0.1040160628527462E+01
    0.3418876656618056E+01   -0.8333333333333334E+00    0.1726168461930342E+01
    0.3751175205920376E+01   -0.8333333333333334E+00   -0.6691259304140329E+00
    0.2889801815813465E+01   -0.8333333333333334E+00   -0.8562661438192326E+00
    0.3017983410224082E+01   -0.8333333333333334E+00    0.9231712184526961E+00
    0.1645821714894795E+01   -0.8333333333333334E+00   -0.1837983080076178E+01
    0.1513509181197389E+01   -0.8333333333333334E+00    0.1108836692078749E+01
    0.1919398798697967E+01   -0.8333333333333334E+00    0.1580342757081665E+01
    0.2193859429875553E+01   -0.8333333333333334E+00    0.7740897355665203E+00
    0.6091754699356742E+00   -0.8333333333333334E+00   -0.7888248715753817E+00
    0.1441359832811715E+01   -0.8333333333333334E+00    0.3490936567660688E+00
    0.2716632372076206E+01   -0.8333333333333334E+00    0.1359772398136161E+00
    0.5000000000000000E+01   -0.1666666666666667E+01    0.2500000000000000E+01
    0.5000000000000000E+01   -0.1666666666666667E+01    0.1500000000000000E+01
    0.5000000000000000E+01   -0.1666666666666667E+01    0.5000000000000000E+00
    0.5000000000000000E+01   -0.1666666666666667E+01   -0.5000000000000000E+00
    0.5000000000000000E+01   -0.1666666666666667E+01   -0.1500000000000000E+01
    0.5000000000000000E+01   -0.1666666666666667E+01   -0.2500000000000000E+01
    0.4000000000000000E+01   -0.1666666666666667E+01   -0.2500000000000000E+01
    0.3000000000000000E+01   -0.1666666666666667E+01   -0.2500000000000000E+01
    0.2000000000000000E+01   -0.1666666666666667E+01   -0.2500000000000000E+01
    0.9999999999999998E+00   -0.1666666666666667E+01   -0.2500000000000000E+01
    0.0000000000000000E+00   -0.1666666666666667E+01   -0.2500000000000000E+01
    0.0000000000000000E+00   -0.1666666666666667E+01   -0.1500000000000000E+01
    0.0000000000000000E+00   -0.1666666666666667E+01   -0.5000000000000000E+00
    0.0000000000000000E+00   -0.1666666666666667E+01    0.5000000000000000E+00
    0.0000000000000000E+00   -0.1666666666666667E+01    0.1500000000000000E+01
    0.0000000000000000E+00   -0.1666666666666667E+01    0.2500000000000000E+01
    0.1000000000000000E+01   -0.1666666666666667E+01    0.2500000000000000E+01
    0.2000000000000000E+01   -0.1666666666666667E+01    0.2500000000000000E+01
    0.3000000000000000E+01   -0.1666666666666667E+01    0.2500000000000000E+01
    0.4000000000000000E+01   -0.1666666666666667E+01    0.2500000000000000E+01
    0.4251722454414101E+01   -0.1666666666666667E+01    0.1683881519811194E+01
    0.6137332127746504E+00   -0.1666666666666667E+01    0.1857879939968904E+01
    0.5055778377301318E+00   -0.1666666666666667E+01   -0.1984051145810370E+01
[...]
POINT_DATA 357
SCALARS rho double 1
LOOKUP_TABLE default
   0.1002616773079321E+01
   0.1002319855807415E+01
   0.1009860269657722E+01
   0.1020740654479666E+01
   0.9775319885673092E+00
   0.8139496129496111E+00
   0.9783096093312519E+00
   0.9823270833433443E+00
   0.9727028836561069E+00
   0.9252129688708849E+00
   0.1509630179428144E+01
   0.1010825985951556E+01
   0.1039709477420106E+01
   0.1005510739071484E+01
   0.1007055480947096E+01
   0.1003253690062726E+01
   0.1004969033129742E+01
   0.1004831687789913E+01
   0.1003620846483396E+01
   0.1002400097285381E+01
   0.1002867994635681E+01
   0.1005068834139495E+01
   0.1102038731475808E+01
   0.9921439028437448E+00
   0.1003055053045968E+01
   0.1005853870651212E+01
   0.9966203726976298E+00
   0.1003468887958827E+01
   0.1004968358953009E+01
   0.1012767551090373E+01
   0.1011275563465841E+01
   0.9937126850525160E+00
   0.1006727411974199E+01
   0.1060497846905321E+01
   0.9929068844663741E+00
   0.9730382329607916E+00
   0.9968107334643644E+00
   0.9985097482936214E+00
   0.9966248833827487E+00
   0.1004188763149356E+01
   0.1002777737427654E+01
   0.1001758488032110E+01
   0.1005821147096871E+01
   0.1001485817874307E+01
   0.9688191692792137E+00
   0.1003904233015045E+01
   0.1003683660472674E+01
   0.1004719685092297E+01
   0.9993127452773665E+00
   0.1011793661746500E+01
   0.9945187329564427E+00
   0.1002560101856253E+01
   0.1002223499143070E+01
   0.1009778222114187E+01
   0.1022529221940316E+01
   0.9835394375261792E+00
   0.8150075375746154E+00
   0.9786907413881225E+00
   0.9831910949588680E+00
   0.9723512707850753E+00
   0.9228032583336109E+00
   0.1511188020443158E+01
   0.1007732664629391E+01
   0.1039420527035776E+01
   0.1005194051300127E+01
   0.1007003944021414E+01
   0.1003215889833499E+01
   0.1004901035768029E+01
   0.1004744426036137E+01
   0.1003495589206908E+01
   0.1002281078420868E+01
   0.1002803419091811E+01
   0.1004999685353934E+01
   0.1102712329063547E+01
   0.9960964935681741E+00
   0.1003038633459047E+01
   0.1006091984675163E+01
   0.9966563852247562E+00
   0.1003321896467022E+01
   0.1004855722256452E+01
   0.1012538689034366E+01
   0.1012856843574586E+01
   0.9960401246000968E+00
   0.1006523611466347E+01
   0.1060693638724076E+01
   0.9949681871191960E+00
   0.9749599572262675E+00
   0.9963116997041158E+00
   0.9984637012638272E+00
   0.9959790681321634E+00
   0.1004160931239614E+01
   0.1002646749360908E+01
   0.1002385673246399E+01
   0.1005996035334260E+01
   0.1001376509022931E+01
   0.9695864866309581E+00
   0.1003677975035655E+01
   0.1003506430279844E+01
   0.1004644600106733E+01
   0.9980974372011608E+00
   0.1011697091357675E+01
   0.9941759779631740E+00
   0.1002595023152340E+01
   0.1002245779931658E+01
   0.1009792530985708E+01
   0.1022544794570054E+01
   0.9835010877753859E+00
   0.8152278803414158E+00
   0.9788351085884537E+00
   0.9835077174059127E+00
   0.9725623644038671E+00
   0.9225193430140395E+00
   0.1511696988380067E+01
   0.1007720911968288E+01
   0.1039561280141573E+01
   0.1005264804996819E+01
   0.1007043796454593E+01
   0.1003239420720349E+01
   0.1004953842152776E+01
   0.1004818592036420E+01
   0.1003578613238742E+01
   0.1002350637739672E+01
   0.1002851515469682E+01
   0.1005051725504633E+01
   0.1103252319838574E+01
   0.9960103628656727E+00
   0.1003064654226790E+01
   0.1006100717885473E+01
   0.9967059439186368E+00
   0.1003411416940626E+01
   0.1004930940276900E+01
   0.1012683032346862E+01
   0.1013087166830863E+01
   0.9961348504344469E+00
   0.1006622580212754E+01
   0.1061111772823480E+01
   0.9950808146992047E+00
   0.9750531849769466E+00
   0.9964533828580305E+00
   0.9986796237748656E+00
   0.9961377014634379E+00
   0.1004217053622461E+01
   0.1002727715512125E+01
   0.1002429339630970E+01
   0.1006162621490231E+01
   0.1001460124870938E+01
   0.9698944424402673E+00
   0.1003788465654347E+01
   0.1003603177033202E+01
   0.1004749233585646E+01
   0.9983058216956631E+00
   0.1011838376325633E+01
   0.9942681285867349E+00
   0.1002583063597871E+01
   0.1002228005417056E+01
   0.1009784807654246E+01
   0.1022589584151141E+01
   0.9837330240888799E+00
   0.8152197971408719E+00
   0.9789813056288834E+00
   0.9835630355201743E+00
   0.9726177986816977E+00
   0.9224868894831478E+00
   0.1511584793633427E+01
   0.1007534307736074E+01
   0.1039446556119930E+01
   0.1005191857275111E+01
   0.1007007566698316E+01
   0.1003217912062595E+01
   0.1004911214743200E+01
   0.1004764911894590E+01
   0.1003527865800463E+01
   0.1002318044159795E+01
   0.1002836080880970E+01
   0.1005006895516874E+01
   0.1102973739020889E+01
   0.9962170929875029E+00
   0.1003069673759930E+01
   0.1006169360300827E+01
   0.9967506667439705E+00
   0.1003360646085160E+01
   0.1004873468141558E+01
   0.1012573215056527E+01
   0.1013125729848598E+01
   0.9961504318123074E+00
   0.1006552183128678E+01
   0.1061014069619067E+01
   0.9951795701435840E+00
   0.9751184247794275E+00
   0.9964199437530470E+00
   0.9986548807973511E+00
   0.9960715457624597E+00
   0.1004210960133373E+01
   0.1002690948962088E+01
   0.1002543331582304E+01
   0.1006205176439700E+01
   0.1001433893564262E+01
   0.9697980376838686E+00
   0.1003719705910560E+01
   0.1003546145230108E+01
   0.1004701474456467E+01
   0.9981705407610445E+00
   0.1011764567919295E+01
   0.9942560033075025E+00
   0.1002595009020270E+01
   0.1002245771495034E+01
   0.1009792582734309E+01
   0.1022544660216543E+01
   0.9835004275925616E+00
   0.8152261110443862E+00
   0.9788341032775758E+00
   0.9835067730367222E+00
   0.9725611353771183E+00
   0.9225187291007940E+00
   0.1511691682324098E+01
   0.1007721654201206E+01
   0.1039560840280226E+01
   0.1005264850820653E+01
   0.1007043760608685E+01
   0.1003239414092664E+01
   0.1004953820647969E+01
   0.1004818569055750E+01
   0.1003578601554443E+01
   0.1002350633193751E+01
   0.1002851499017977E+01
   0.1005051709543979E+01
   0.1103250508299469E+01
   0.9960096668444565E+00
   0.1003064652557123E+01
   0.1006100726655183E+01
   0.9967059730271088E+00
   0.1003411405907957E+01
   0.1004930924871860E+01
   0.1012682953801989E+01
   0.1013086544379703E+01
   0.9961339892085862E+00
   0.1006622557282957E+01
   0.1061111035614046E+01
   0.9950803892320269E+00
   0.9750525312868779E+00
   0.9964534558976825E+00
   0.9986794524318995E+00
   0.9961378646419904E+00
   0.1004217028819639E+01
   0.1002727703545831E+01
   0.1002429221016314E+01
   0.1006162474387106E+01
   0.1001460103350297E+01
   0.9698939522299845E+00
   0.1003788466610674E+01
   0.1003603173887486E+01
   0.1004749181923147E+01
   0.9983060507107518E+00
   0.1011838267100811E+01
   0.9942681920235831E+00
   0.1002560082098353E+01
   0.1002223481625146E+01
   0.1009778319374143E+01
   0.1022528995814984E+01
   0.9835381566432927E+00
   0.8150033440785748E+00
   0.9786881889833559E+00
   0.9831884977189872E+00
   0.9723484946478609E+00
   0.9228018108036677E+00
   0.1511177868355555E+01
   0.1007734108705781E+01
   0.1039419739398515E+01
   0.1005194145721873E+01
   0.1007003882982184E+01
   0.1003215878191897E+01
   0.1004900998873803E+01
   0.1004744381949923E+01
   0.1003495569604969E+01
   0.1002281070839883E+01
   0.1002803393061845E+01
   0.1004999658177330E+01
   0.1102708787617198E+01
   0.9960950441384419E+00
   0.1003038628902664E+01
   0.1006092016472994E+01
   0.9966564390049084E+00
   0.1003321879018850E+01
   0.1004855697273478E+01
   0.1012538536163477E+01
   0.1012855643954750E+01
   0.9960383643519486E+00
   0.1006523579076156E+01
   0.1060692253729388E+01
   0.9949673842037345E+00
   0.9749586551741032E+00
   0.9963118335277257E+00
   0.9984633741077034E+00
   0.9959793879064731E+00
   0.1004160891012549E+01
   0.1002646731125591E+01
   0.1002385444580203E+01
   0.1005995753006190E+01
   0.1001376473814540E+01
   0.9695854785997352E+00
   0.1003677982616245E+01
   0.1003506429241674E+01
   0.1004644499790501E+01
   0.9980979056689847E+00
   0.1011696885519839E+01
   0.9941760846439710E+00
   0.1002616751998497E+01
   0.1002319845394062E+01
   0.1009860391064235E+01
   0.1020740395169625E+01
   0.9775301713710192E+00
   0.8139429724282462E+00
   0.9783044832411895E+00
   0.9823218022882347E+00
   0.9726984832255375E+00
   0.9252105807960539E+00
   0.1509616189833035E+01
   0.1010827971416582E+01
   0.1039708409119071E+01
   0.1005510866316438E+01
   0.1007055404160277E+01
   0.1003253678763585E+01
   0.1004968985386470E+01
   0.1004831626723483E+01
   0.1003620821483125E+01
   0.1002400094311486E+01
   0.1002867963206194E+01
   0.1005068799333815E+01
   0.1102033789635730E+01
   0.9921415873250614E+00
   0.1003055053153593E+01
   0.1005853876505266E+01
   0.9966204509189992E+00
   0.1003468867394492E+01
   0.1004968322336997E+01
   0.1012767331635976E+01
   0.1011273881278356E+01
   0.9937101847870884E+00
   0.1006727374208929E+01
   0.1060495932272087E+01
   0.9929058416825233E+00
   0.9730364927371790E+00
   0.9968109124738858E+00
   0.9985092503646373E+00
   0.9966253124894102E+00
   0.1004188712721883E+01
   0.1002777720132666E+01
   0.1001758152500136E+01
   0.1005820744650773E+01
   0.1001485782315805E+01
   0.9688176940928638E+00
   0.1003904237991025E+01
   0.1003683658199236E+01
   0.1004719539638441E+01
   0.9993134199020306E+00
   0.1011793379647419E+01
   0.9945188755045558E+00
SCALARS u double 1
LOOKUP_TABLE default
   0.4977061323714654E+00
   0.4991930428022842E+00
   0.5148125878945392E+00
   0.5220026109029153E+00
   0.4738758303394749E+00
   0.0000000000000000E+00
   0.0000000000000000E+00
   0.0000000000000000E+00
   0.0000000000000000E+00
   0.0000000000000000E+00
   0.0000000000000000E+00
   0.4793510996233532E+00
   0.4667631052568165E+00
   0.4942449376575291E+00
   0.4935702540994334E+00
   0.4961725795638033E+00
   0.4941029226393410E+00
   0.4954045730135906E+00
   0.4976844011080667E+00
   0.4986176873821830E+00
   0.4952807591370813E+00
   0.4948267928626240E+00
   0.4518346853154604E+00
   0.3969464147470735E+00
   0.5074385286014937E+00
   0.5527304335900239E+00
   0.5406451735466904E+00
   0.4966223846488790E+00
   0.4948222704928405E+00
   0.4884950810550545E+00
   0.4237241049853160E+00
   0.3186697342546802E+00
   0.4921834524821400E+00
   0.5409695086668174E+00
   0.5516498498789265E+00
   0.4724875261213856E+00
   0.5415330993660586E+00
   0.5917028809816380E+00
   0.5333947218341303E+00
   0.4992029487250119E+00
   0.4964218293278179E+00
   0.5788373179550104E+00
   0.5773668216630559E+00
   0.5014312852473637E+00
   0.3900576828283926E+00
   0.4947083624477274E+00
   0.4951977626226917E+00
   0.5000033918356683E+00
   0.4930644112920464E+00
   0.4929401093809502E+00
   0.5301090033675320E+00
   0.4978785064438094E+00
   0.4988779526407756E+00
   0.5143971567986577E+00
   0.5235835480994394E+00
   0.4771823976008440E+00
   0.0000000000000000E+00
   0.0000000000000000E+00
   0.0000000000000000E+00
   0.0000000000000000E+00
   0.0000000000000000E+00
   0.0000000000000000E+00
   0.4807094587362507E+00
   0.4673168114717464E+00
   0.4946032831864330E+00
   0.4936261697627509E+00
   0.4962095939099420E+00
   0.4941918187485004E+00
   0.4955588337901226E+00
   0.4980429689518887E+00
   0.4990540433444314E+00
   0.4952162077326137E+00
   0.4949282364805982E+00
   0.4554319211528264E+00
   0.4048542823775012E+00
   0.5064363810443898E+00
   0.5528313009310982E+00
   0.5400965303710397E+00
   0.4969016739334768E+00
   0.4950165339866206E+00
   0.4887486669162709E+00
   0.4334593795853846E+00
   0.3253245373120966E+00
   0.4924517894835921E+00
   0.5463256853674714E+00
   0.5582322710767621E+00
   0.4829580692498122E+00
   0.5412677155324345E+00
   0.5970120166768318E+00
   0.5336660512704136E+00
   0.4985854230099775E+00
   0.4965275294459470E+00
   0.5826595971847683E+00
   0.5826583714536363E+00
   0.5008678049740469E+00
   0.3974813931688923E+00
   0.4949836960670646E+00
   0.4954633134975263E+00
   0.4999405821440177E+00
   0.4931278788700872E+00
   0.4928657444004257E+00
   0.5292147822069482E+00
   0.4978495394668939E+00
   0.4988912965769488E+00
   0.5144753806666358E+00
   0.5237703545791795E+00
   0.4773525491705755E+00
   0.0000000000000000E+00
   0.0000000000000000E+00
   0.0000000000000000E+00
   0.0000000000000000E+00
   0.0000000000000000E+00
   0.0000000000000000E+00
   0.4805188804287404E+00
   0.4671692426847277E+00
   0.4945309423751342E+00
   0.4935846527591851E+00
   0.4961870338207482E+00
   0.4941111339611959E+00
   0.4954274557436543E+00
   0.4978883580952536E+00
   0.4989262285981162E+00
   0.4951470789322021E+00
   0.4948515379386172E+00
   0.4554043687324919E+00
   0.4051553507926703E+00
   0.5064682267045961E+00
   0.5530075344185457E+00
   0.5401379168252486E+00
   0.4967535427304277E+00
   0.4948896536848525E+00
   0.4885423209394509E+00
   0.4336731820307586E+00
   0.3256609907607068E+00
   0.4923125084701883E+00
   0.5461347133884885E+00
   0.5585957315465437E+00
   0.4833056393227921E+00
   0.5411048595023787E+00
   0.5969545479874994E+00
   0.5334296118170481E+00
   0.4985331267050629E+00
   0.4964017290841924E+00
   0.5828563837453271E+00
   0.5827371840701573E+00
   0.5007550506729969E+00
   0.3974052468683315E+00
   0.4948204678990509E+00
   0.4953120870803253E+00
   0.4997849720311044E+00
   0.4927249585847581E+00
   0.4926610580429305E+00
   0.5291189807702472E+00
   0.4978552859122816E+00
   0.4988797139998855E+00
   0.5144211908240963E+00
   0.5235647805447959E+00
   0.4770576586360656E+00
   0.0000000000000000E+00
   0.0000000000000000E+00
   0.0000000000000000E+00
   0.0000000000000000E+00
   0.0000000000000000E+00
   0.0000000000000000E+00
   0.4806945145641912E+00
   0.4673195900162895E+00
   0.4946115598089441E+00
   0.4936247128080916E+00
   0.4962094066808935E+00
   0.4941793090660437E+00
   0.4955236878780563E+00
   0.4979836738112072E+00
   0.4989857886981091E+00
   0.4951444521248731E+00
   0.4949145441568416E+00
   0.4554087795611741E+00
   0.4047216245400708E+00
   0.5063836156239055E+00
   0.5527585479744267E+00
   0.5399531407278207E+00
   0.4968230552549004E+00
   0.4949748616498431E+00
   0.4886639287506041E+00
   0.4332759759168855E+00
   0.3253179989379901E+00
   0.4924026840112729E+00
   0.5460615267297844E+00
   0.5580145631381749E+00
   0.4828084173079998E+00
   0.5410474856623995E+00
   0.5967589179580082E+00
   0.5334269290513661E+00
   0.4984850910094846E+00
   0.4964358164421993E+00
   0.5824795441331316E+00
   0.5824268281103061E+00
   0.5007404964168770E+00
   0.3971716417806508E+00
   0.4949030396747028E+00
   0.4953924863724938E+00
   0.4998206818301225E+00
   0.4928340431630838E+00
   0.4927250455265479E+00
   0.5290322382781084E+00
   0.4978495431734506E+00
   0.4988912951308387E+00
   0.5144752750294946E+00
   0.5237703645011154E+00
   0.4773532002999760E+00
   0.0000000000000000E+00
   0.0000000000000000E+00
   0.0000000000000000E+00
   0.0000000000000000E+00
   0.0000000000000000E+00
   0.0000000000000000E+00
   0.4805185801753181E+00
   0.4671695166065038E+00
   0.4945309036000138E+00
   0.4935846835475546E+00
   0.4961870418685493E+00
   0.4941111577553879E+00
   0.4954274729772212E+00
   0.4978883580562165E+00
   0.4989262240434327E+00
   0.4951470928164708E+00
   0.4948515544135789E+00
   0.4554036788573684E+00
   0.4051559810325654E+00
   0.5064682216061966E+00
   0.5530074746850102E+00
   0.5401378759088226E+00
   0.4967535564138563E+00
   0.4948896732135735E+00
   0.4885423338682804E+00
   0.4336731584259559E+00
   0.3256611667514318E+00
   0.4923125389279460E+00
   0.5461344469710279E+00
   0.5585959115615737E+00
   0.4833058769058999E+00
   0.5411048100388836E+00
   0.5969541802166948E+00
   0.5334295988573744E+00
   0.4985331434768502E+00
   0.4964017433194963E+00
   0.5828563327255856E+00
   0.5827370511276018E+00
   0.5007550632572747E+00
   0.3974050629053448E+00
   0.4948204836805132E+00
   0.4953121133440952E+00
   0.4997849911909600E+00
   0.4927252508203158E+00
   0.4926611230049031E+00
   0.5291189579227632E+00
   0.4978785222545018E+00
   0.4988779539777262E+00
   0.5143969401778279E+00
   0.5235834484446875E+00
   0.4771837675312384E+00
   0.0000000000000000E+00
   0.0000000000000000E+00
   0.0000000000000000E+00
   0.0000000000000000E+00
   0.0000000000000000E+00
   0.0000000000000000E+00
   0.4807088094493880E+00
   0.4673173197046228E+00
   0.4946031941101148E+00
   0.4936262259342670E+00
   0.4962096082122217E+00
   0.4941918612018942E+00
   0.4955588691175841E+00
   0.4980429713221190E+00
   0.4990540450411877E+00
   0.4952162355394855E+00
   0.4949282648414855E+00
   0.4554305488853428E+00
   0.4048557716834488E+00
   0.5064363564449942E+00
   0.5528311033760331E+00
   0.5400964098957812E+00
   0.4969016967373178E+00
   0.4950165660917592E+00
   0.4887487154618413E+00
   0.4334592969713236E+00
   0.3253248624591056E+00
   0.4924518290954500E+00
   0.5463250950630154E+00
   0.5582325112138862E+00
   0.4829584772122988E+00
   0.5412675787073273E+00
   0.5970112738494622E+00
   0.5336659996428202E+00
   0.4985854549183025E+00
   0.4965275429711669E+00
   0.5826595111076691E+00
   0.5826580444621511E+00
   0.5008678503895718E+00
   0.3974809317905940E+00
   0.4949837113012847E+00
   0.4954633514019026E+00
   0.4999406243226380E+00
   0.4931283244664345E+00
   0.4928658792519082E+00
   0.5292147483784964E+00
   0.4977061597663063E+00
   0.4991930647367576E+00
   0.5148124009740943E+00
   0.5220024778888936E+00
   0.4738777860540737E+00
   0.0000000000000000E+00
   0.0000000000000000E+00
   0.0000000000000000E+00
   0.0000000000000000E+00
   0.0000000000000000E+00
   0.0000000000000000E+00
   0.4793501595328915E+00
   0.4667638359365510E+00
   0.4942447934058669E+00
   0.4935703267844632E+00
   0.4961725962175721E+00
   0.4941029813405762E+00
   0.4954046355858115E+00
   0.4976844031236531E+00
   0.4986176847957495E+00
   0.4952808219314854E+00
   0.4948268320745762E+00
   0.4518327387173948E+00
   0.3969485155104114E+00
   0.5074386023503028E+00
   0.5527303108627045E+00
   0.5406451619227312E+00
   0.4966224267348416E+00
   0.4948223242094897E+00
   0.4884952229996112E+00
   0.4237238284732698E+00
   0.3186700239318364E+00
   0.4921834955009465E+00
   0.5409686131875788E+00
   0.5516501370205500E+00
   0.4724879537389721E+00
   0.5415330918743508E+00
   0.5917019100839859E+00
   0.5333947768624783E+00
   0.4992030707170905E+00
   0.4964218500732026E+00
   0.5788372911485317E+00
   0.5773664012323642E+00
   0.5014314384321028E+00
   0.3900569079073676E+00
   0.4947083957745601E+00
   0.4951978253642315E+00
   0.5000035278890413E+00
   0.4930650440820443E+00
   0.4929403761790587E+00
   0.5301091693801009E+00
SCALARS v double 1
LOOKUP_TABLE default
   0.0000000000000000E+00
   0.0000000000000000E+00
   0.0000000000000000E+00
   0.0000000000000000E+00
   0.0000000000000000E+00
   0.0000000000000000E+00
   0.0000000000000000E+00
   0.0000000000000000E+00
   0.0000000000000000E+00
   0.0000000000000000E+00
   0.0000000000000000E+00
   0.0000000000000000E+00
   0.0000000000000000E+00
   0.0000000000000000E+00
   0.0000000000000000E+00
   0.0000000000000000E+00
   0.0000000000000000E+00
   0.0000000000000000E+00
   0.0000000000000000E+00
   0.0000000000000000E+00
   0.0000000000000000E+00
   0.0000000000000000E+00
   0.0000000000000000E+00
   0.0000000000000000E+00
   0.0000000000000000E+00
   0.0000000000000000E+00
   0.0000000000000000E+00
   0.0000000000000000E+00
   0.0000000000000000E+00
   0.0000000000000000E+00
   0.0000000000000000E+00
   0.0000000000000000E+00
   0.0000000000000000E+00
   0.0000000000000000E+00
   0.0000000000000000E+00
   0.0000000000000000E+00
   0.0000000000000000E+00
   0.0000000000000000E+00
   0.0000000000000000E+00
   0.0000000000000000E+00
   0.0000000000000000E+00
   0.0000000000000000E+00
   0.0000000000000000E+00
   0.0000000000000000E+00
   0.0000000000000000E+00
   0.0000000000000000E+00
   0.0000000000000000E+00
   0.0000000000000000E+00
   0.0000000000000000E+00