# vtk DataFile Version 2.0
FUN3D:global_image_vtk
ASCII
DATASET UNSTRUCTURED_GRID
POINTS 357 double
    0.5000000000000000E+01    0.0000000000000000E+00    0.2500000000000000E+01
    0.5000000000000000E+01    0.0000000000000000E+00    0.1500000000000000E+01
    0.5000000000000000E+01    0.0000000000000000E+00    0.5000000000000000E+00
    0.5000000000000000E+01    0.0000000000000000E+00   -0.5000000000000000E+00
    0.5000000000000000E+01    0.0000000000000000E+00   -0.1500000000000000E+01
    0.5000000000000000E+01    0.0000000000000000E+00   -0.2500000000000000E+01
    0.4000000000000000E+01    0.0000000000000000E+00   -0.2500000000000000E+01
    0.3000000000000000E+01    0.0000000000000000E+00   -0.2500000000000000E+01
    0.2000000000000000E+01    0.0000000000000000E+00   -0.2500000000000000E+01
    0.9999999999999998E+00    0.0000000000000000E+00   -0.2500000000000000E+01
    0.0000000000000000E+00    0.0000000000000000E+00   -0.2500000000000000E+01
    0.0000000000000000E+00    0.0000000000000000E+00   -0.1500000000000000E+01
    0.0000000000000000E+00    0.0000000000000000E+00   -0.5000000000000000E+00
    0.0000000000000000E+00    0.0000000000000000E+00    0.5000000000000000E+00
    0.0000000000000000E+00    0.0000000000000000E+00    0.1500000000000000E+01
    0.0000000000000000E+00    0.0000000000000000E+00    0.2500000000000000E+01
    0.1000000000000000E+01    0.0000000000000000E+00    0.2500000000000000E+01
    0.2000000000000000E+01    0.0000000000000000E+00    0.2500000000000000E+01
    0.3000000000000000E+01    0.0000000000000000E+00    0.2500000000000000E+01
    0.4000000000000000E+01    0.0000000000000000E+00    0.2500000000000000E+01
    0.4251722454414101E+01    0.0000000000000000E+00    0.1683881519811194E+01
    0.6137332127746504E+00    0.0000000000000000E+00    0.1857879939968904E+01
    0.5055778377301318E+00    0.0000000000000000E+00   -0.1984051145810370E+01
    0.4417350419147004E+01    0.0000000000000000E+00   -0.1798049780917599E+01
    0.4277413896341787E+01    0.0000000000000000E+00    0.7849806286986014E+00
    0.4308949446070184E+01    0.0000000000000000E+00   -0.1030628045339280E+00
    0.3520446556869569E+01    0.0000000000000000E+00    0.1794049766750259E+00
    0.2591686382569276E+01    0.0000000000000000E+00    0.1667295362171870E+01
    0.1306794966956192E+01    0.0000000000000000E+00    0.1758138528035871E+01
    0.7010346092308208E+00    0.0000000000000000E+00    0.3961722714940701E-01
    0.2308484603929350E+01    0.0000000000000000E+00   -0.1644203313594280E+01
    0.2985842179142563E+01    0.0000000000000000E+00   -0.1902408850608312E+01
    0.7941286090671454E+00    0.0000000000000000E+00    0.1001771779085911E+01
    0.1020081380390785E+01    0.0000000000000000E+00   -0.1456956300840256E+01
    0.4356436167904402E+01    0.0000000000000000E+00   -0.1022551130153989E+01
    0.3730315927830617E+01    0.0000000000000000E+00   -0.1467697774434008E+01
    0.2084566650673803E+01    0.0000000000000000E+00   -0.2237556063676878E+00
    0.1900542590153839E+01    0.0000000000000000E+00   -0.1088755785946356E+01
    0.1324761360056765E+01    0.0000000000000000E+00   -0.5267852841860601E+00
    0.3681169751640886E+01    0.0000000000000000E+00    0.1040160628527462E+01
    0.3418876656618056E+01    0.0000000000000000E+00    0.1726168461930342E+01
    0.3751175205920376E+01    0.0000000000000000E+00   -0.6691259304140329E+00
    0.2889801815813465E+01    0.0000000000000000E+00   -0.8562661438192326E+00
    0.3017983410224082E+01    0.0000000000000000E+00    0.9231712184526961E+00
    0.1645821714894795E+01    0.0000000000000000E+00   -0.1837983080076178E+01
    0.1513509181197389E+01    0.0000000000000000E+00    0.1108836692078749E+01
    0.1919398798697967E+01    0.0000000000000000E+00    0.1580342757081665E+01
    0.2193859429875553E+01    0.0000000000000000E+00    0.7740897355665203E+00
    0.6091754699356742E+00    0.0000000000000000E+00   -0.7888248715753817E+00
    0.1441359832811715E+01    0.0000000000000000E+00    0.3490936567660688E+00
    0.2716632372076206E+01    0.0000000000000000E+00    0.1359772398136161E+00
    0.5000000000000000E+01   -0.8333333333333334E+00    0.2500000000000000E+01
    0.5000000000000000E+01   -0.8333333333333334E+00    0.1500000000000000E+01
    0.5000000000000000E+01   -0.8333333333333334E+00    0.5000000000000000E+00
    0.5000000000000000E+01   -0.8333333333333334E+00   -0.5000000000000000E+00
    0.5000000000000000E+01   -0.8333333333333334E+00   -0.1500000000000000E+01
    0.5000000000000000E+01   -0.8333333333333334E+00   -0.2500000000000000E+01
    0.4000000000000000E+01   -0.8333333333333334E+00   -0.2500000000000000E+01
    0.3000000000000000E+01   -0.8333333333333334E+00   -0.2500000000000000E+01
    0.2000000000000000E+01   -0.8333333333333334E+00   -0.2500000000000000E+01
    0.9999999999999998E+00   -0.8333333333333334E+00   -0.2500000000000000E+01
    0.0000000000000000E+00   -0.8333333333333334E+00   -0.2500000000000000E+01
    0.0000000000000000E+00   -0.8333333333333334E+00   -0.1500000000000000E+01
    0.0000000000000000E+00   -0.8333333333333334E+00   -0.5000000000000000E+00
    0.0000000000000000E+00   -0.8333333333333334E+00    0.5000000000000000E+00
    0.0000000000000000E+00   -0.8333333333333334E+00    0.1500000000000000E+01
    0.0000000000000000E+00   -0.8333333333333334E+00    0.2500000000000000E+01
    0.1000000000000000E+01   -0.8333333333333334E+00    0.2500000000000000E+01
    0.2000000000000000E+01   -0.8333333333333334E+00    0.2500000000000000E+01
    0.3000000000000000E+01   -0.8333333333333334E+00    0.2500000000000000E+01
    0.4000000000000000E+01   -0.8333333333333334E+00    0.2500000000000000E+01
    0.4251722454414101E+01   -0.8333333333333334E+00    0.1683881519811194E+01
    0.6137332127746504E+00   -0.8333333333333334E+00    0.1857879939968904E+01
    0.5055778377301318E+00   -0.8333333333333334E+00   -0.1984051145810370E+01
    0.4417350419147004E+01   -0.8333333333333334E+00   -0.1798049780917599E+01
    0.4277413896341787E+01   -0.8333333333333334E+00    0.7849806286986014E+00
    0.4308949446070184E+01   -0.8333333333333334E+00   -0.1030628045339280E+00
    0.3520446556869569E+01   -0.8333333333333334E+00    0.1794049766750259E+00
    0.2591686382569276E+01   -0.8333333333333334E+00    0.1667295362171870E+01
    0.1306794966956192E+01   -0.8333333333333334E+00    0.1758138528035871E+01
    0.7010346092308208E+00   -0.8333333333333334E+00    0.3961722714940701E-01
    0.2308484603929350E+01   -0.8333333333333334E+00   -0.1644203313594280E+01
    0.2985842179142563E+01   -0.8333333333333334E+00   -0.1902408850608312E+01
    0.7941286090671454E+00   -0.8333333333333334E+00    0.1001771779085911E+01
    0.1020081380390785E+01   -0.8333333333333334E+00   -0.1456956300840256E+01
    0.4356436167904402E+01   -0.8333333333333334E+00   -0.1022551130153989E+01
    0.3730315927830617E+01   -0.8333333333333334E+00   -0.1467697774434008E+01
    0.2084566650673803E+01   -0.8333333333333334E+00   -0.2237556063676878E+00
    0.1900542590153839E+01   -0.8333333333333334E+00   -0.1088755785946356E+01
    0.1324761360056765E+01   -0.8333333333333334E+00   -0.5267852841860601E+00
    0.3681169751640886E+01   -0.8333333333333334E+00    0.1040160628527462E+01
    0.3418876656618056E+01   -0.8333333333333334E+00    0.1726168461930342E+01
    0.3751175205920376E+01   -0.8333333333333334E+00   -0.6691259304140329E+00
    0.2889801815813465E+01   -0.8333333333333334E+00   -0.8562661438192326E+00
    0.3017983410224082E+01   -0.8333333333333334E+00    0.9231712184526961E+00
    0.1645821714894795E+01   -0.8333333333333334E+00   -0.1837983080076178E+01
    0.1513509181197389E+01   -0.8333333333333334E+00    0.1108836692078749E+01
    0.1919398798697967E+01   -0.8333333333333334E+00    0.1580342757081665E+01
    0.2193859429875553E+01   -0.8333333333333334E+00    0.7740897355665203E+00
    0.6091754699356742E+00   -0.8333333333333334E+00   -0.7888248715753817E+00
    0.1441359832811715E+01   -0.8333333333333334E+00    0.3490936567660688E+00
    0.2716632372076206E+01   -0.8333333333333334E+00    0.1359772398136161E+00
    0.5000000000000000E+01   -0.1666666666666667E+01    0.2500000000000000E+01
    0.5000000000000000E+01   -0.1666666666666667E+01    0.1500000000000000E+01
    0.5000000000000000E+01   -0.1666666666666667E+01    0.5000000000000000E+00
    0.5000000000000000E+01   -0.1666666666666667E+01   -0.5000000000000000E+00
    0.5000000000000000E+01   -0.1666666666666667E+01   -0.1500000000000000E+01
    0.5000000000000000E+01   -0.1666666666666667E+01   -0.2500000000000000E+01
    0.4000000000000000E+01   -0.1666666666666667E+01   -0.2500000000000000E+01
    0.3000000000000000E+01   -0.1666666666666667E+01   -0.2500000000000000E+01
    0.2000000000000000E+01   -0.1666666666666667E+01   -0.2500000000000000E+01
    0.9999999999999998E+00   -0.1666666666666667E+01   -0.2500000000000000E+01
    0.0000000000000000E+00   -0.1666666666666667E+01   -0.2500000000000000E+01
    0.0000000000000000E+00   -0.1666666666666667E+01   -0.1500000000000000E+01
    0.0000000000000000E+00   -0.1666666666666667E+01   -0.5000000000000000E+00
    0.0000000000000000E+00   -0.1666666666666667E+01    0.5000000000000000E+00
    0.0000000000000000E+00   -0.1666666666666667E+01    0.1500000000000000E+01
    0.0000000000000000E+00   -0.1666666666666667E+01    0.2500000000000000E+01
    0.1000000000000000E+01   -0.1666666666666667E+01    0.2500000000000000E+01
    0.2000000000000000E+01   -0.1666666666666667E+01    0.2500000000000000E+01
    0.3000000000000000E+01   -0.1666666666666667E+01    0.2500000000000000E+01
    0.4000000000000000E+01   -0.1666666666666667E+01    0.2500000000000000E+01
    0.4251722454414101E+01   -0.1666666666666667E+01    0.1683881519811194E+01
    0.6137332127746504E+00   -0.1666666666666667E+01    0.1857879939968904E+01
    0.5055778377301318E+00   -0.1666666666666667E+01   -0.1984051145810370E+01
[...]
POINT_DATA 357
SCALARS rho double 1
LOOKUP_TABLE default
   0.1002617419312687E+01
   0.1002317917034481E+01
   0.1009861661521896E+01
   0.1020738536063925E+01
   0.9775359223473770E+00
   0.8139514777634107E+00
   0.9783111494442874E+00
   0.9823280979125603E+00
   0.9727029838656119E+00
   0.9252130676546102E+00
   0.1509630409226122E+01
   0.1010825801809973E+01
   0.1039709334520391E+01
   0.1005510834233432E+01
   0.1007055576498791E+01
   0.1003253780032533E+01
   0.1004969235741376E+01
   0.1004832271431938E+01
   0.1003620494261504E+01
   0.1002402941682988E+01
   0.1002867249962627E+01
   0.1005069042268985E+01
   0.1102039347858268E+01
   0.9921505671039761E+00
   0.1003055431672632E+01
   0.1005854554450751E+01
   0.9966208032996189E+00
   0.1003469753485532E+01
   0.1004968647957383E+01
   0.1012767967051174E+01
   0.1011275219658701E+01
   0.9937154183753655E+00
   0.1006727622614557E+01
   0.1060497835174814E+01
   0.9929053153391239E+00
   0.9730396753287944E+00
   0.9968113464600217E+00
   0.9985104224923662E+00
   0.9966247092257805E+00
   0.1004189583990319E+01
   0.1002778029060287E+01
   0.1001758528482652E+01
   0.1005820862338334E+01
   0.1001486597976620E+01
   0.9688197230204573E+00
   0.1003904502371444E+01
   0.1003683908263220E+01
   0.1004719714846132E+01
   0.9993131959744026E+00
   0.1011793864305396E+01
   0.9945189893730197E+00
   0.1002560649781331E+01
   0.1002223276849211E+01
   0.1009778108994558E+01
   0.1022530753395782E+01
   0.9835365117360194E+00
   0.8150065085926543E+00
   0.9786904252794069E+00
   0.9831916547276692E+00
   0.9723517007814606E+00
   0.9228036230301515E+00
   0.1511188495797823E+01
   0.1007732908748135E+01
   0.1039421102227983E+01
   0.1005194216849437E+01
   0.1007004253872577E+01
   0.1003216074202420E+01
   0.1004901673006197E+01
   0.1004744790045426E+01
   0.1003496269973247E+01
   0.1002281815962750E+01
   0.1002803516785837E+01
   0.1004999872022577E+01
   0.1102712458050637E+01
   0.9960921355014873E+00
   0.1003039034369177E+01
   0.1006091548216090E+01
   0.9966565944227570E+00
   0.1003322293317340E+01
   0.1004855884325066E+01
   0.1012538944414618E+01
   0.1012857390152256E+01
   0.9960386618984503E+00
   0.1006524049119545E+01
   0.1060694156515764E+01
   0.9949695154125298E+00
   0.9749595636284055E+00
   0.9963119638687944E+00
   0.9984638941493165E+00
   0.9959794663760373E+00
   0.1004161261650144E+01
   0.1002646741507752E+01
   0.1002386130335303E+01
   0.1005996797633868E+01
   0.1001376883128098E+01
   0.9695862902707650E+00
   0.1003678494694635E+01
   0.1003506579384812E+01
   0.1004645104439100E+01
   0.9980975418078102E+00
   0.1011697291257501E+01
   0.9941759283965302E+00
   0.1002595581445096E+01
   0.1002244265308254E+01
   0.1009793149839204E+01
   0.1022544038335946E+01
   0.9835022900792560E+00
   0.8152282210096541E+00
   0.9788358883361048E+00
   0.9835086339391449E+00
   0.9725626682559351E+00
   0.9225195417603430E+00
   0.1511697305757257E+01
   0.1007720909916979E+01
   0.1039561407615689E+01
   0.1005264892081023E+01
   0.1007043936728309E+01
   0.1003239514584495E+01
   0.1004954263428244E+01
   0.1004819184311144E+01
   0.1003578728593712E+01
   0.1002353086957256E+01
   0.1002851034924255E+01
   0.1005051899804764E+01
   0.1103252655187120E+01
   0.9960123032184779E+00
   0.1003065033122181E+01
   0.1006100964978652E+01
   0.9967064741831563E+00
   0.1003412142796673E+01
   0.1004931179294930E+01
   0.1012683364409762E+01
   0.1013087250970883E+01
   0.9961357443005228E+00
   0.1006622885847103E+01
   0.1061111994046617E+01
   0.9950805871414785E+00
   0.9750538781830831E+00
   0.9964538358220233E+00
   0.9986800755580164E+00
   0.9961377798602786E+00
   0.1004217606228411E+01
   0.1002727950853749E+01
   0.1002429700947834E+01
   0.1006162849583415E+01
   0.1001460876941465E+01
   0.9698946029116970E+00
   0.1003788824092342E+01
   0.1003603447986864E+01
   0.1004749553610441E+01
   0.9983061075588177E+00
   0.1011838555098076E+01
   0.9942683172369952E+00
   0.1002583770198400E+01
   0.1002227314854742E+01
   0.1009785384726471E+01
   0.1022589978484809E+01
   0.9837325365600460E+00
   0.8152204700080707E+00
   0.9789815948109704E+00
   0.9835636355798636E+00
   0.9726179378840858E+00
   0.9224872127240096E+00
   0.1511585164445078E+01
   0.1007534409107567E+01
   0.1039446893835865E+01
   0.1005192009039086E+01
   0.1007007826927618E+01
   0.1003218098994056E+01
   0.1004911648440242E+01
   0.1004765312062681E+01
   0.1003528084287832E+01
   0.1002319309431830E+01
   0.1002835875006720E+01
   0.1005007114740102E+01
   0.1102974086604773E+01
   0.9962166975780142E+00
   0.1003070075869949E+01
   0.1006169309889119E+01
   0.9967508072533143E+00
   0.1003361160225780E+01
   0.1004873661468467E+01
   0.1012573541868913E+01
   0.1013125951874709E+01
   0.9961504975075351E+00
   0.1006552554853398E+01
   0.1061014372008662E+01
   0.9951797765212200E+00
   0.9751186856992226E+00
   0.9964203603446369E+00
   0.9986552323907579E+00
   0.9960717245314862E+00
   0.1004211509321213E+01
   0.1002690998354370E+01
   0.1002543491384486E+01
   0.1006205493643920E+01
   0.1001434303240142E+01
   0.9697981360593444E+00
   0.1003720144910097E+01
   0.1003546253570045E+01
   0.1004701732142055E+01
   0.9981707881738633E+00
   0.1011764771520246E+01
   0.9942559489108062E+00
   0.1002595567211562E+01
   0.1002244256767787E+01
   0.1009793201573671E+01
   0.1022543903907089E+01
   0.9835016300587431E+00
   0.8152264518420569E+00
   0.9788348830526686E+00
   0.9835076895499519E+00
   0.9725614392528683E+00
   0.9225189278419306E+00
   0.1511691999724881E+01
   0.1007721652135289E+01
   0.1039560967744799E+01
   0.1005264937912940E+01
   0.1007043900883150E+01
   0.1003239507909662E+01
   0.1004954241915654E+01
   0.1004819161385387E+01
   0.1003578716937588E+01
   0.1002353082472258E+01
   0.1002851018405112E+01
   0.1005051883814943E+01
   0.1103250843649546E+01
   0.9960116073789461E+00
   0.1003065031450860E+01
   0.1006100973770466E+01
   0.9967065033853234E+00
   0.1003412131769412E+01
   0.1004931163911307E+01
   0.1012683285867314E+01
   0.1013086628513562E+01
   0.9961348831960715E+00
   0.1006622862892377E+01
   0.1061111256825142E+01
   0.9950801616587543E+00
   0.9750532245242693E+00
   0.9964539088625030E+00
   0.9986799042210990E+00
   0.9961379430325881E+00
   0.1004217581453325E+01
   0.1002727938872405E+01
   0.1002429582318558E+01
   0.1006162702435138E+01
   0.1001460855495925E+01
   0.9698941127235442E+00
   0.1003788824988168E+01
   0.1003603444872285E+01
   0.1004749501962017E+01
   0.9983063365652706E+00
   0.1011838445864685E+01
   0.9942683806964933E+00
   0.1002560629966324E+01
   0.1002223259556950E+01
   0.1009778206368280E+01
   0.1022530527437191E+01
   0.9835352303954809E+00
   0.8150023148110819E+00
   0.9786878726783200E+00
   0.9831890574609311E+00
   0.9723489247358169E+00
   0.9228021755463528E+00
   0.1511178343770762E+01
   0.1007734352817686E+01
   0.1039420314608223E+01
   0.1005194311255027E+01
   0.1007004192830899E+01
   0.1003216062588183E+01
   0.1004901636082657E+01
   0.1004744745846705E+01
   0.1003496250256950E+01
   0.1002281808072450E+01
   0.1002803490890601E+01
   0.1004999844824765E+01
   0.1102708916651559E+01
   0.9960906855776990E+00
   0.1003039029828486E+01
   0.1006091580023993E+01
   0.9966566480467830E+00
   0.1003322275846754E+01
   0.1004855859318512E+01
   0.1012538791549062E+01
   0.1012856190597410E+01
   0.9960369014652447E+00
   0.1006524016719892E+01
   0.1060692771564747E+01
   0.9949687125166033E+00
   0.9749582614580384E+00
   0.9963120976909667E+00
   0.9984635669814497E+00
   0.9959797861724395E+00
   0.1004161221441949E+01
   0.1002646723363429E+01
   0.1002385901744570E+01
   0.1005996515404793E+01
   0.1001376847839635E+01
   0.9695852822417963E+00
   0.1003678502290464E+01
   0.1003506578280754E+01
   0.1004645004101978E+01
   0.9980980102727884E+00
   0.1011697085437662E+01
   0.9941760350153677E+00
   0.1002617398173680E+01
   0.1002317906208180E+01
   0.1009861783159046E+01
   0.1020738276122344E+01
   0.9775341063910218E+00
   0.8139448376986885E+00
   0.9783060236674511E+00
   0.9823228169964272E+00
   0.9726985834288725E+00
   0.9252106794969528E+00
   0.1509616419598130E+01
   0.1010827787119087E+01
   0.1039708266145189E+01
   0.1005510961506962E+01
   0.1007055499629646E+01
   0.1003253768743570E+01
   0.1004969187698208E+01
   0.1004832210560931E+01
   0.1003620469293318E+01
   0.1002402939570372E+01
   0.1002867218235089E+01
   0.1005069007448040E+01
   0.1102034406170590E+01
   0.9921482532996254E+00
   0.1003055431947361E+01
   0.1005854560342416E+01
   0.9966208817210459E+00
   0.1003469733126801E+01
   0.1004968611502552E+01
   0.1012767747624927E+01
   0.1011273537450796E+01
   0.9937129188698106E+00
   0.1006727584734789E+01
   0.1060495920477684E+01
   0.9929042723755421E+00
   0.9730379357137479E+00
   0.9968115255696460E+00
   0.9985099246076347E+00
   0.9966251382027979E+00
   0.1004189533666896E+01
   0.1002778011964769E+01
   0.1001758192802191E+01
   0.1005820459600421E+01
   0.1001486562567879E+01
   0.9688182479882598E+00
   0.1003904507196874E+01
   0.1003683906081718E+01
   0.1004719569293349E+01
   0.9993138706076821E+00
   0.1011793582253741E+01
   0.9945191320917187E+00
SCALARS u double 1
LOOKUP_TABLE default
   0.4977029399178618E+00
   0.4991946390640324E+00
   0.5148118651813576E+00
   0.5220046298348637E+00
   0.4738728674161624E+00
   0.0000000000000000E+00
   0.0000000000000000E+00
   0.0000000000000000E+00
   0.0000000000000000E+00
   0.0000000000000000E+00
   0.0000000000000000E+00
   0.4793511757005789E+00
   0.4667631486033698E+00
   0.4942448150325474E+00
   0.4935702115426185E+00
   0.4961725911451432E+00
   0.4941027585032172E+00
   0.4954035747322023E+00
   0.4976790792614748E+00
   0.4986114167564576E+00
   0.4952783314944132E+00
   0.4948266859804222E+00
   0.4518346132877531E+00
   0.3969468285347996E+00
   0.5074399810892734E+00
   0.5527295883363188E+00
   0.5406451631281869E+00
   0.4966228513288943E+00
   0.4948223826440074E+00
   0.4884948476087546E+00
   0.4237248950286000E+00
   0.3186713135292288E+00
   0.4921830691994524E+00
   0.5409694247287947E+00
   0.5516498028984993E+00
   0.4724887602724744E+00
   0.5415326214090005E+00
   0.5917031498564774E+00
   0.5333946293911397E+00
   0.4992037674575609E+00
   0.4964194431277112E+00
   0.5788358557956453E+00
   0.5773659613358340E+00
   0.5014324445296785E+00
   0.3900579306764730E+00
   0.4947081356028786E+00
   0.4951978722648803E+00
   0.5000032059294551E+00
   0.4930642208268053E+00
   0.4929396967000722E+00
   0.5301080525309476E+00
   0.4978806886071374E+00
   0.4988776996311965E+00
   0.5143978163784790E+00
   0.5235821370350926E+00
   0.4771851500429751E+00
   0.0000000000000000E+00
   0.0000000000000000E+00
   0.0000000000000000E+00
   0.0000000000000000E+00
   0.0000000000000000E+00
   0.0000000000000000E+00
   0.4807091951809722E+00
   0.4673162248551511E+00
   0.4946031376880829E+00
   0.4936259412430993E+00
   0.4962094155276892E+00
   0.4941913225965190E+00
   0.4955578412202920E+00
   0.4980418600312208E+00
   0.4990582820649796E+00
   0.4952152775377615E+00
   0.4949277350939706E+00
   0.4554317655242965E+00
   0.4048550522640449E+00
   0.5064361446783787E+00
   0.5528323122761966E+00
   0.5400964652871905E+00
   0.4969011767500889E+00
   0.4950161952218802E+00
   0.4887483876346949E+00
   0.4334589621093425E+00
   0.3253244034575001E+00
   0.4924514080752475E+00
   0.5463252465865880E+00
   0.5582315632236513E+00
   0.4829577211626989E+00
   0.5412672741816702E+00
   0.5970117903524279E+00
   0.5336657818940377E+00
   0.4985856251103946E+00
   0.4965258537934525E+00
   0.5826586212221406E+00
   0.5826575297592189E+00
   0.5008681723812570E+00
   0.3974808300586366E+00
   0.4949833096536300E+00
   0.4954627927465369E+00
   0.4999401128755210E+00
   0.4931275610222894E+00
   0.4928652780125136E+00
   0.5292138732420657E+00
   0.4978486286789992E+00
   0.4988919843901887E+00
   0.5144751158537031E+00
   0.5237708702293187E+00
   0.4773514787835926E+00
   0.0000000000000000E+00
   0.0000000000000000E+00
   0.0000000000000000E+00
   0.0000000000000000E+00
   0.0000000000000000E+00
   0.0000000000000000E+00
   0.4805188334486314E+00
   0.4671690450819256E+00
   0.4945308438487530E+00
   0.4935845470468182E+00
   0.4961869945315777E+00
   0.4941109489107551E+00
   0.4954260454099564E+00
   0.4978836950147381E+00
   0.4989235237296760E+00
   0.4951447190574738E+00
   0.4948513278034949E+00
   0.4554042728139988E+00
   0.4051553193094266E+00
   0.5064683234924162E+00
   0.5530071564745368E+00
   0.5401375481423945E+00
   0.4967532443609172E+00
   0.4948897091024840E+00
   0.4885420594853193E+00
   0.4336732857899827E+00
   0.3256614470534543E+00
   0.4923121431854678E+00
   0.5461344538964998E+00
   0.5585948806462415E+00
   0.4833057651328060E+00
   0.5411044236687609E+00
   0.5969545445136060E+00
   0.5334293976379154E+00
   0.4985329821556256E+00
   0.4963986225201357E+00
   0.5828550281779660E+00
   0.5827364951802783E+00
   0.5007555403718452E+00
   0.3974050197922315E+00
   0.4948202688713575E+00
   0.4953119640233366E+00
   0.4997847019247194E+00
   0.4927246954703228E+00
   0.4926606538827000E+00
   0.5291180709936074E+00
   0.4978552771236990E+00
   0.4988803554127735E+00
   0.5144214413036584E+00
   0.5235645857963007E+00
   0.4770589458689614E+00
   0.0000000000000000E+00
   0.0000000000000000E+00
   0.0000000000000000E+00
   0.0000000000000000E+00
   0.0000000000000000E+00
   0.0000000000000000E+00
   0.4806943656949281E+00
   0.4673192142185754E+00
   0.4946114078742324E+00
   0.4936245534397882E+00
   0.4962092696165586E+00
   0.4941788520979233E+00
   0.4955231825491695E+00
   0.4979820603963592E+00
   0.4989867871375068E+00
   0.4951434069736660E+00
   0.4949140892614424E+00
   0.4554086542025157E+00
   0.4047232189051130E+00
   0.5063847036311313E+00
   0.5527589817623884E+00
   0.5399533876956893E+00
   0.4968232673375141E+00
   0.4949745274755714E+00
   0.4886636764176485E+00
   0.4332762200844959E+00
   0.3253190923263595E+00
   0.4924023031084192E+00
   0.5460612333579500E+00
   0.5580147010947806E+00
   0.4828094304567399E+00
   0.5410470856734261E+00
   0.5967588895336745E+00
   0.5334267202469151E+00
   0.4984860846781374E+00
   0.4964347887640079E+00
   0.5824784527367336E+00
   0.5824258844950676E+00
   0.5007414322354781E+00
   0.3971715123579692E+00
   0.4949026638458257E+00
   0.4953921211287448E+00
   0.4998203207570500E+00
   0.4928337908487861E+00
   0.4927245987533459E+00
   0.5290313426466895E+00
   0.4978486321882155E+00
   0.4988919828554650E+00
   0.5144750101967324E+00
   0.5237708802133474E+00
   0.4773521298235331E+00
   0.0000000000000000E+00
   0.0000000000000000E+00
   0.0000000000000000E+00
   0.0000000000000000E+00
   0.0000000000000000E+00
   0.0000000000000000E+00
   0.4805185332078670E+00
   0.4671693190154803E+00
   0.4945308050791928E+00
   0.4935845778560431E+00
   0.4961870026042915E+00
   0.4941109728196367E+00
   0.4954260626100138E+00
   0.4978836947634296E+00
   0.4989235187629543E+00
   0.4951447327021344E+00
   0.4948513443025670E+00
   0.4554035829459592E+00
   0.4051559495605395E+00
   0.5064683182368701E+00
   0.5530070967174592E+00
   0.5401375072518241E+00
   0.4967532579879719E+00
   0.4948897286612694E+00
   0.4885420724244154E+00
   0.4336732621293226E+00
   0.3256616229748294E+00
   0.4923121736080048E+00
   0.5461341875110030E+00
   0.5585950606256807E+00
   0.4833060026904086E+00
   0.5411043741293048E+00
   0.5969541767376698E+00
   0.5334293846732189E+00
   0.4985329988142405E+00
   0.4963986365642127E+00
   0.5828549771942650E+00
   0.5827363622015976E+00
   0.5007555529826700E+00
   0.3974048358388833E+00
   0.4948202846282159E+00
   0.4953119903047222E+00
   0.4997847211215028E+00
   0.4927249877105578E+00
   0.4926607188190887E+00
   0.5291180482126741E+00
   0.4978807047172683E+00
   0.4988777011292279E+00
   0.5143975998326092E+00
   0.5235820372254755E+00
   0.4771865201553525E+00
   0.0000000000000000E+00
   0.0000000000000000E+00
   0.0000000000000000E+00
   0.0000000000000000E+00
   0.0000000000000000E+00
   0.0000000000000000E+00
   0.4807085458985689E+00
   0.4673167330742617E+00
   0.4946030486209160E+00
   0.4936259974268101E+00
   0.4962094298436976E+00
   0.4941913649629301E+00
   0.4955578767448727E+00
   0.4980418627486779E+00
   0.4990582840755145E+00
   0.4952153058357708E+00
   0.4949277635105905E+00
   0.4554303932298517E+00
   0.4048565413331041E+00
   0.5064361203365975E+00
   0.5528321149448081E+00
   0.5400963448920798E+00
   0.4969011997966836E+00
   0.4950162273469332E+00
   0.4887484361932231E+00
   0.4334588792640102E+00
   0.3253247283118381E+00
   0.4924514476961424E+00
   0.5463246562305264E+00
   0.5582318032364626E+00
   0.4829581287780711E+00
   0.5412671374170688E+00
   0.5970110474790394E+00
   0.5336657302537374E+00
   0.4985856573400717E+00
   0.4965258677775018E+00
   0.5826585351529762E+00
   0.5826572027289219E+00
   0.5008682178316681E+00
   0.3974803685660866E+00
   0.4949833248728447E+00
   0.4954628307097927E+00
   0.4999401549280332E+00
   0.4931280065818764E+00
   0.4928654128466667E+00
   0.5292138393881615E+00
   0.4977029656035127E+00
   0.4991946613590878E+00
   0.5148116780741605E+00
   0.5220044972979250E+00
   0.4738748222304296E+00
   0.0000000000000000E+00
   0.0000000000000000E+00
   0.0000000000000000E+00
   0.0000000000000000E+00
   0.0000000000000000E+00
   0.0000000000000000E+00
   0.4793502357323207E+00
   0.4667638793614087E+00
   0.4942446707423401E+00
   0.4935702842482598E+00
   0.4961726080130550E+00
   0.4941028170781635E+00
   0.4954036361823798E+00
   0.4976790782920466E+00
   0.4986114099687840E+00
   0.4952783936740003E+00
   0.4948267255469089E+00
   0.4518326667262005E+00
   0.3969489294930860E+00
   0.5074400553016417E+00
   0.5527294650546609E+00
   0.5406451513371124E+00
   0.4966228936716726E+00
   0.4948224367248126E+00
   0.4884949895775363E+00
   0.4237246190549013E+00
   0.3186716039303018E+00
   0.4921831122126952E+00
   0.5409685293688838E+00
   0.5516500900063163E+00
   0.4724891883593019E+00
   0.5415326137500306E+00
   0.5917021790838065E+00
   0.5333946844009543E+00
   0.4992038897722730E+00
   0.4964194631078330E+00
   0.5788358285308783E+00
   0.5773655407668652E+00
   0.5014325981386119E+00
   0.3900571560901800E+00
   0.4947081690787259E+00
   0.4951979353911702E+00
   0.5000033421709856E+00
   0.4930648536171732E+00
   0.4929399634625556E+00
   0.5301082182819481E+00
SCALARS v double 1
LOOKUP_TABLE default
   0.0000000000000000E+00
   0.0000000000000000E+00
   0.0000000000000000E+00
   0.0000000000000000E+00
   0.0000000000000000E+00
   0.0000000000000000E+00
   0.0000000000000000E+00
   0.0000000000000000E+00
   0.0000000000000000E+00
   0.0000000000000000E+00
   0.0000000000000000E+00
   0.0000000000000000E+00
   0.0000000000000000E+00
   0.0000000000000000E+00
   0.0000000000000000E+00
   0.0000000000000000E+00
   0.0000000000000000E+00
   0.0000000000000000E+00
   0.0000000000000000E+00
   0.0000000000000000E+00
   0.0000000000000000E+00
   0.0000000000000000E+00
   0.0000000000000000E+00
   0.0000000000000000E+00
   0.0000000000000000E+00
   0.0000000000000000E+00
   0.0000000000000000E+00
   0.0000000000000000E+00
   0.0000000000000000E+00
   0.0000000000000000E+00
   0.0000000000000000E+00
   0.0000000000000000E+00
   0.0000000000000000E+00
   0.0000000000000000E+00
   0.0000000000000000E+00
   0.0000000000000000E+00
   0.0000000000000000E+00
   0.0000000000000000E+00
   0.0000000000000000E+00
   0.0000000000000000E+00
   0.0000000000000000E+00
   0.0000000000000000E+00
   0.0000000000000000E+00
   0.0000000000000000E+00
   0.0000000000000000E+00
   0.0000000000000000E+00
   0.0000000000000000E+00
   0.0000000000000000E+00
   0.0000000000000000E+00