# vtk DataFile Version 2.0
FUN3D:global_image_vtk
ASCII
DATASET UNSTRUCTURED_GRID
POINTS 357 double
    0.5000000000000000E+01    0.0000000000000000E+00    0.2500000000000000E+01
    0.5000000000000000E+01    0.0000000000000000E+00    0.1500000000000000E+01
    0.5000000000000000E+01    0.0000000000000000E+00    0.5000000000000000E+00
    0.5000000000000000E+01    0.0000000000000000E+00   -0.5000000000000000E+00
    0.5000000000000000E+01    0.0000000000000000E+00   -0.1500000000000000E+01
    0.5000000000000000E+01    0.0000000000000000E+00   -0.2500000000000000E+01
    0.4000000000000000E+01    0.0000000000000000E+00   -0.2500000000000000E+01
    0.3000000000000000E+01    0.0000000000000000E+00   -0.2500000000000000E+01
    0.2000000000000000E+01    0.0000000000000000E+00   -0.2500000000000000E+01
    0.9999999999999998E+00    0.0000000000000000E+00   -0.2500000000000000E+01
    0.0000000000000000E+00    0.0000000000000000E+00   -0.2500000000000000E+01
    0.0000000000000000E+00    0.0000000000000000E+00   -0.1500000000000000E+01
    0.0000000000000000E+00    0.0000000000000000E+00   -0.5000000000000000E+00
    0.0000000000000000E+00    0.0000000000000000E+00    0.5000000000000000E+00
    0.0000000000000000E+00    0.0000000000000000E+00    0.1500000000000000E+01
    0.0000000000000000E+00    0.0000000000000000E+00    0.2500000000000000E+01
    0.1000000000000000E+01    0.0000000000000000E+00    0.2500000000000000E+01
    0.2000000000000000E+01    0.0000000000000000E+00    0.2500000000000000E+01
    0.3000000000000000E+01    0.0000000000000000E+00    0.2500000000000000E+01
    0.4000000000000000E+01    0.0000000000000000E+00    0.2500000000000000E+01
    0.4251722454414101E+01    0.0000000000000000E+00    0.1683881519811194E+01
    0.6137332127746504E+00    0.0000000000000000E+00    0.1857879939968904E+01
    0.5055778377301318E+00    0.0000000000000000E+00   -0.1984051145810370E+01
    0.4417350419147004E+01    0.0000000000000000E+00   -0.1798049780917599E+01
    0.4277413896341787E+01    0.0000000000000000E+00    0.7849806286986014E+00
    0.4308949446070184E+01    0.0000000000000000E+00   -0.1030628045339280E+00
    0.3520446556869569E+01    0.0000000000000000E+00    0.1794049766750259E+00
    0.2591686382569276E+01    0.0000000000000000E+00    0.1667295362171870E+01
    0.1306794966956192E+01    0.0000000000000000E+00    0.1758138528035871E+01
    0.7010346092308208E+00    0.0000000000000000E+00    0.3961722714940701E-01
    0.2308484603929350E+01    0.0000000000000000E+00   -0.1644203313594280E+01
    0.2985842179142563E+01    0.0000000000000000E+00   -0.1902408850608312E+01
    0.7941286090671454E+00    0.0000000000000000E+00    0.1001771779085911E+01
    0.1020081380390785E+01    0.0000000000000000E+00   -0.1456956300840256E+01
    0.4356436167904402E+01    0.0000000000000000E+00   -0.1022551130153989E+01
    0.3730315927830617E+01    0.0000000000000000E+00   -0.1467697774434008E+01
    0.2084566650673803E+01    0.0000000000000000E+00   -0.2237556063676878E+00
    0.1900542590153839E+01    0.0000000000000000E+00   -0.1088755785946356E+01
    0.1324761360056765E+01    0.0000000000000000E+00   -0.5267852841860601E+00
    0.3681169751640886E+01    0.0000000000000000E+00    0.1040160628527462E+01
    0.3418876656618056E+01    0.0000000000000000E+00    0.1726168461930342E+01
    0.3751175205920376E+01    0.0000000000000000E+00   -0.6691259304140329E+00
    0.2889801815813465E+01    0.0000000000000000E+00   -0.8562661438192326E+00
    0.3017983410224082E+01    0.0000000000000000E+00    0.9231712184526961E+00
    0.1645821714894795E+01    0.0000000000000000E+00   -0.1837983080076178E+01
    0.1513509181197389E+01    0.0000000000000000E+00    0.1108836692078749E+01
    0.1919398798697967E+01    0.0000000000000000E+00    0.1580342757081665E+01
    0.2193859429875553E+01    0.0000000000000000E+00    0.7740897355665203E+00
    0.6091754699356742E+00    0.0000000000000000E+00   -0.7888248715753817E+00
    0.1441359832811715E+01    0.0000000000000000E+00    0.3490936567660688E+00
    0.2716632372076206E+01    0.0000000000000000E+00    0.1359772398136161E+00
    0.5000000000000000E+01   -0.8333333333333334E+00    0.2500000000000000E+01
    0.5000000000000000E+01   -0.8333333333333334E+00    0.1500000000000000E+01
    0.5000000000000000E+01   -0.8333333333333334E+00    0.5000000000000000E+00
    0.5000000000000000E+01   -0.8333333333333334E+00   -0.5000000000000000E+00
    0.5000000000000000E+01   -0.8333333333333334E+00   -0.1500000000000000E+01
    0.5000000000000000E+01   -0.8333333333333334E+00   -0.2500000000000000E+01
    0.4000000000000000E+01   -0.8333333333333334E+00   -0.2500000000000000E+01
    0.3000000000000000E+01   -0.8333333333333334E+00   -0.2500000000000000E+01
    0.2000000000000000E+01   -0.8333333333333334E+00   -0.2500000000000000E+01
    0.9999999999999998E+00   -0.8333333333333334E+00   -0.2500000000000000E+01
    0.0000000000000000E+00   -0.8333333333333334E+00   -0.2500000000000000E+01
    0.0000000000000000E+00   -0.8333333333333334E+00   -0.1500000000000000E+01
    0.0000000000000000E+00   -0.8333333333333334E+00   -0.5000000000000000E+00
    0.0000000000000000E+00   -0.8333333333333334E+00    0.5000000000000000E+00
    0.0000000000000000E+00   -0.8333333333333334E+00    0.1500000000000000E+01
    0.0000000000000000E+00   -0.8333333333333334E+00    0.2500000000000000E+01
    0.1000000000000000E+01   -0.8333333333333334E+00    0.2500000000000000E+01
    0.2000000000000000E+01   -0.8333333333333334E+00    0.2500000000000000E+01
    0.3000000000000000E+01   -0.8333333333333334E+00    0.2500000000000000E+01
    0.4000000000000000E+01   -0.8333333333333334E+00    0.2500000000000000E+01
    0.4251722454414101E+01   -0.8333333333333334E+00    0.1683881519811194E+01
    0.6137332127746504E+00   -0.8333333333333334E+00    0.1857879939968904E+01
    0.5055778377301318E+00   -0.8333333333333334E+00   -0.1984051145810370E+01
    0.4417350419147004E+01   -0.8333333333333334E+00   -0.1798049780917599E+01
    0.4277413896341787E+01   -0.8333333333333334E+00    0.7849806286986014E+00
    0.4308949446070184E+01   -0.8333333333333334E+00   -0.1030628045339280E+00
    0.3520446556869569E+01   -0.8333333333333334E+00    0.1794049766750259E+00
    0.2591686382569276E+01   -0.8333333333333334E+00    0.1667295362171870E+01
    0.1306794966956192E+01   -0.8333333333333334E+00    0.1758138528035871E+01
    0.7010346092308208E+00   -0.8333333333333334E+00    0.3961722714940701E-01
    0.2308484603929350E+01   -0.8333333333333334E+00   -0.1644203313594280E+01
    0.2985842179142563E+01   -0.8333333333333334E+00   -0.1902408850608312E+01
    0.7941286090671454E+00   -0.8333333333333334E+00    0.1001771779085911E+01
    0.1020081380390785E+01   -0.8333333333333334E+00   -0.1456956300840256E+01
    0.4356436167904402E+01   -0.8333333333333334E+00   -0.1022551130153989E+01
    0.3730315927830617E+01   -0.8333333333333334E+00   -0.1467697774434008E+01
    0.2084566650673803E+01   -0.8333333333333334E+00   -0.2237556063676878E+00
    0.1900542590153839E+01   -0.8333333333333334E+00   -0.1088755785946356E+01
    0.1324761360056765E+01   -0.8333333333333334E+00   -0.5267852841860601E+00
    0.3681169751640886E+01   -0.8333333333333334E+00    0.1040160628527462E+01
    0.3418876656618056E+01   -0.8333333333333334E+00    0.1726168461930342E+01
    0.3751175205920376E+01   -0.8333333333333334E+00   -0.6691259304140329E+00
    0.2889801815813465E+01   -0.8333333333333334E+00   -0.8562661438192326E+00
    0.3017983410224082E+01   -0.8333333333333334E+00    0.9231712184526961E+00
    0.1645821714894795E+01   -0.8333333333333334E+00   -0.1837983080076178E+01
    0.1513509181197389E+01   -0.8333333333333334E+00    0.1108836692078749E+01
    0.1919398798697967E+01   -0.8333333333333334E+00    0.1580342757081665E+01
    0.2193859429875553E+01   -0.8333333333333334E+00    0.7740897355665203E+00
    0.6091754699356742E+00   -0.8333333333333334E+00   -0.7888248715753817E+00
    0.1441359832811715E+01   -0.8333333333333334E+00    0.3490936567660688E+00
    0.2716632372076206E+01   -0.8333333333333334E+00    0.1359772398136161E+00
    0.5000000000000000E+01   -0.1666666666666667E+01    0.2500000000000000E+01
    0.5000000000000000E+01   -0.1666666666666667E+01    0.1500000000000000E+01
    0.5000000000000000E+01   -0.1666666666666667E+01    0.5000000000000000E+00
    0.5000000000000000E+01   -0.1666666666666667E+01   -0.5000000000000000E+00
    0.5000000000000000E+01   -0.1666666666666667E+01   -0.1500000000000000E+01
    0.5000000000000000E+01   -0.1666666666666667E+01   -0.2500000000000000E+01
    0.4000000000000000E+01   -0.1666666666666667E+01   -0.2500000000000000E+01
    0.3000000000000000E+01   -0.1666666666666667E+01   -0.2500000000000000E+01
    0.2000000000000000E+01   -0.1666666666666667E+01   -0.2500000000000000E+01
    0.9999999999999998E+00   -0.1666666666666667E+01   -0.2500000000000000E+01
    0.0000000000000000E+00   -0.1666666666666667E+01   -0.2500000000000000E+01
    0.0000000000000000E+00   -0.1666666666666667E+01   -0.1500000000000000E+01
    0.0000000000000000E+00   -0.1666666666666667E+01   -0.5000000000000000E+00
    0.0000000000000000E+00   -0.1666666666666667E+01    0.5000000000000000E+00
    0.0000000000000000E+00   -0.1666666666666667E+01    0.1500000000000000E+01
    0.0000000000000000E+00   -0.1666666666666667E+01    0.2500000000000000E+01
    0.1000000000000000E+01   -0.1666666666666667E+01    0.2500000000000000E+01
    0.2000000000000000E+01   -0.1666666666666667E+01    0.2500000000000000E+01
    0.3000000000000000E+01   -0.1666666666666667E+01    0.2500000000000000E+01
    0.4000000000000000E+01   -0.1666666666666667E+01    0.2500000000000000E+01
    0.4251722454414101E+01   -0.1666666666666667E+01    0.1683881519811194E+01
    0.6137332127746504E+00   -0.1666666666666667E+01    0.1857879939968904E+01
    0.5055778377301318E+00   -0.1666666666666667E+01   -0.1984051145810370E+01
[...]
POINT_DATA 357
SCALARS rho double 1
LOOKUP_TABLE default
   0.1002652403665438E+01
   0.1002348415055883E+01
   0.1009836528220326E+01
   0.1020719385490182E+01
   0.9776013862411361E+00
   0.8140180349791489E+00
   0.9783345110709984E+00
   0.9823281125111699E+00
   0.9726938933314254E+00
   0.9252150989870610E+00
   0.1509631961664195E+01
   0.1010830833632806E+01
   0.1039712151294420E+01
   0.1005514334024288E+01
   0.1007062705060895E+01
   0.1003256019920005E+01
   0.1004995026803661E+01
   0.1004842992854940E+01
   0.1003640150186240E+01
   0.1002368086002354E+01
   0.1002889455936542E+01
   0.1005088777262505E+01
   0.1102036857842994E+01
   0.9922278231874391E+00
   0.1003039527673878E+01
   0.1005846060483055E+01
   0.9966245548757717E+00
   0.1003454743500366E+01
   0.1004963948987725E+01
   0.1012771262608795E+01
   0.1011274109901247E+01
   0.9937308932299814E+00
   0.1006741590056911E+01
   0.1060497636010010E+01
   0.9929117082850901E+00
   0.9730552063272901E+00
   0.9968065706412627E+00
   0.9985147162034672E+00
   0.9966280543224133E+00
   0.1004158183702845E+01
   0.1002767607345272E+01
   0.1001749715491827E+01
   0.1005812455969335E+01
   0.1001470358814571E+01
   0.9688234819098951E+00
   0.1003923771599670E+01
   0.1003689106764962E+01
   0.1004725463842756E+01
   0.9993190952470100E+00
   0.1011796736178252E+01
   0.9945325642426488E+00
   0.1002612790537537E+01
   0.1002239052168325E+01
   0.1009738438999326E+01
   0.1022568030677443E+01
   0.9834712287519148E+00
   0.8150335522287122E+00
   0.9786811503423976E+00
   0.9831848583226169E+00
   0.9723509263992796E+00
   0.9228138451071105E+00
   0.1511195085872266E+01
   0.1007743433980737E+01
   0.1039427982008321E+01
   0.1005200677947086E+01
   0.1007011020144926E+01
   0.1003218409444542E+01
   0.1004937318720660E+01
   0.1004739826078644E+01
   0.1003499526754485E+01
   0.1002230370814680E+01
   0.1002834125287518E+01
   0.1005018609859572E+01
   0.1102706250137604E+01
   0.9960131734573373E+00
   0.1003000166517503E+01
   0.1006095030052482E+01
   0.9966468415187731E+00
   0.1003312205291480E+01
   0.1004847393550812E+01
   0.1012539764711551E+01
   0.1012867209863732E+01
   0.9959940408605693E+00
   0.1006541431062936E+01
   0.1060701278474943E+01
   0.9949875132728148E+00
   0.9749324746715017E+00
   0.9963009734882862E+00
   0.9984658675308739E+00
   0.9959926270471334E+00
   0.1004135820838284E+01
   0.1002638592061391E+01
   0.1002394966502406E+01
   0.1006009690899853E+01
   0.1001359231068458E+01
   0.9695837163706023E+00
   0.1003703818320734E+01
   0.1003511039745790E+01
   0.1004654384836533E+01
   0.9981041112489595E+00
   0.1011697573449046E+01
   0.9941803188175309E+00
   0.1002640506946039E+01
   0.1002274886499114E+01
   0.1009759896720990E+01
   0.1022557502854615E+01
   0.9835013356146020E+00
   0.8152731472522470E+00
   0.9788386454721247E+00
   0.9835029343352271E+00
   0.9725583877658788E+00
   0.9225254496702852E+00
   0.1511700673267800E+01
   0.1007728952536370E+01
   0.1039566536156969E+01
   0.1005269936542837E+01
   0.1007051086626747E+01
   0.1003241716312005E+01
   0.1004986334746188E+01
   0.1004822083831136E+01
   0.1003588637793847E+01
   0.1002303092393709E+01
   0.1002881449491015E+01
   0.1005070311092198E+01
   0.1103246383903014E+01
   0.9960015385764879E+00
   0.1003039477021903E+01
   0.1006097138807191E+01
   0.9967029586485784E+00
   0.1003398888249509E+01
   0.1004923970327700E+01
   0.1012684094568764E+01
   0.1013092288502749E+01
   0.9961177272610598E+00
   0.1006638344992249E+01
   0.1061115002355014E+01
   0.9950989317350110E+00
   0.9750491796654397E+00
   0.9964453398928829E+00
   0.9986816721186915E+00
   0.9961465778498413E+00
   0.1004190644728793E+01
   0.1002717513219667E+01
   0.1002431417206983E+01
   0.1006166661043045E+01
   0.1001443766416313E+01
   0.9698927197211301E+00
   0.1003811182403866E+01
   0.1003607357419954E+01
   0.1004756830943829E+01
   0.9983110838870335E+00
   0.1011839283938451E+01
   0.9942768480762751E+00
   0.1002623890823308E+01
   0.1002247376151766E+01
   0.1009748078312383E+01
   0.1022604268799042E+01
   0.9837206888090886E+00
   0.8152740733180720E+00
   0.9789861570905357E+00
   0.9835625203370325E+00
   0.9726128943305622E+00
   0.9224944905725858E+00
   0.1511589657822485E+01
   0.1007543476374672E+01
   0.1039452526043053E+01
   0.1005197372921601E+01
   0.1007014870361033E+01
   0.1003220880777609E+01
   0.1004943118171967E+01
   0.1004766863500818E+01
   0.1003541393270599E+01
   0.1002276473460748E+01
   0.1002862463251533E+01
   0.1005026790085953E+01
   0.1102969592111724E+01
   0.9961975994059509E+00
   0.1003040497087247E+01
   0.1006164238510759E+01
   0.9967469623857554E+00
   0.1003348801924890E+01
   0.1004866314753021E+01
   0.1012575691415126E+01
   0.1013130964945944E+01
   0.9961294284373600E+00
   0.1006569266032715E+01
   0.1061018831798358E+01
   0.9951962922655090E+00
   0.9751099871045457E+00
   0.9964123845445400E+00
   0.9986580392817168E+00
   0.9960815206470113E+00
   0.1004182206858653E+01
   0.1002682387269530E+01
   0.1002543072837510E+01
   0.1006209284990496E+01
   0.1001417040342881E+01
   0.9697983412452905E+00
   0.1003743869247298E+01
   0.1003551524859574E+01
   0.1004710190011135E+01
   0.9981777168090308E+00
   0.1011766245664763E+01
   0.9942644977869873E+00
   0.1002640489875568E+01
   0.1002274878272648E+01
   0.1009759950161888E+01
   0.1022557366213299E+01
   0.9835006791071379E+00
   0.8152713796202800E+00
   0.9788376429103043E+00
   0.9835019904067879E+00
   0.9725571601448780E+00
   0.9225248336944615E+00
   0.1511695368905444E+01
   0.1007729691335480E+01
   0.1039566098479515E+01
   0.1005269981246638E+01
   0.1007051052684011E+01
   0.1003241708423297E+01
   0.1004986314176064E+01
   0.1004822064164863E+01
   0.1003588624558361E+01
   0.1002303083945968E+01
   0.1002881431616261E+01
   0.1005070295237996E+01
   0.1103244575981112E+01
   0.9960008471241513E+00
   0.1003039477640687E+01
   0.1006097146823020E+01
   0.9967029886222830E+00
   0.1003398876580204E+01
   0.1004923956432395E+01
   0.1012684017631222E+01
   0.1013091667288051E+01
   0.9961168704339979E+00
   0.1006638320943461E+01
   0.1061114266571622E+01
   0.9950985060139019E+00
   0.9750485282267035E+00
   0.9964454133241903E+00
   0.9986815010908503E+00
   0.9961467395450092E+00
   0.1004190621865711E+01
   0.1002717500057120E+01
   0.1002431297390317E+01
   0.1006166512965768E+01
   0.1001443746410542E+01
   0.9698922306915407E+00
   0.1003811180979919E+01
   0.1003607353314937E+01
   0.1004756779620185E+01
   0.9983113116062283E+00
   0.1011839176301881E+01
   0.9942769113562441E+00
   0.1002612767957215E+01
   0.1002239031478980E+01
   0.1009738541083576E+01
   0.1022567805266843E+01
   0.9834699501061660E+00
   0.8150293552445799E+00
   0.9786785985504957E+00
   0.9831822620262338E+00
   0.9723481541508336E+00
   0.9228123953374531E+00
   0.1511184937849209E+01
   0.1007744872142366E+01
   0.1039427196925865E+01
   0.1005200769255944E+01
   0.1007010961193535E+01
   0.1003218396418386E+01
   0.1004937282585507E+01
   0.1004739784792571E+01
   0.1003499505793446E+01
   0.1002230367512318E+01
   0.1002834096244539E+01
   0.1005018583560562E+01
   0.1102702715857799E+01
   0.9960117285768817E+00
   0.1003000164390971E+01
   0.1006095063418869E+01
   0.9966468970868086E+00
   0.1003312187552725E+01
   0.1004847370417101E+01
   0.1012539615158725E+01
   0.1012866013071821E+01
   0.9959922857482988E+00
   0.1006541396604576E+01
   0.1060699896011831E+01
   0.9949867097811850E+00
   0.9749311753934298E+00
   0.9963011079606577E+00
   0.9984655406577081E+00
   0.9959929448420783E+00
   0.1004135782125548E+01
   0.1002638573687352E+01
   0.1002394736608387E+01
   0.1006009407117202E+01
   0.1001359198279552E+01
   0.9695827106774491E+00
   0.1003703821834345E+01
   0.1003511037774703E+01
   0.1004654285942554E+01
   0.9981045782835777E+00
   0.1011697371066141E+01
   0.9941804259342349E+00
   0.1002652375855429E+01
   0.1002348404079484E+01
   0.1009836653077592E+01
   0.1020719116255399E+01
   0.9775995886345896E+00
   0.8140113957570875E+00
   0.9783293898861988E+00
   0.9823228334167496E+00
   0.9726894963856950E+00
   0.9252127068905724E+00
   0.1509617977632274E+01
   0.1010832806945970E+01
   0.1039711088555020E+01
   0.1005514455851790E+01
   0.1007062631607978E+01
   0.1003256007015054E+01
   0.1004994977698286E+01
   0.1004842940851102E+01
   0.1003640129640889E+01
   0.1002368087935803E+01
   0.1002889419754060E+01
   0.1005088744621241E+01
   0.1102031927925823E+01
   0.9922255328024657E+00
   0.1003039533974318E+01
   0.1005846063386161E+01
   0.9966246369582897E+00
   0.1003454720746471E+01
   0.1004963916582139E+01
   0.1012771049311885E+01
   0.1011272433360634E+01
   0.9937284107339810E+00
   0.1006741548434583E+01
   0.1060495723822814E+01
   0.9929106646757129E+00
   0.9730534781393833E+00
   0.9968067497200961E+00
   0.9985142175660484E+00
   0.9966284774082488E+00
   0.1004158135778811E+01
   0.1002767587814943E+01
   0.1001749375468284E+01
   0.1005812048139970E+01
   0.1001470326703993E+01
   0.9688220126036113E+00
   0.1003923769130828E+01
   0.1003689103049494E+01
   0.1004725320635588E+01
   0.9993197651021949E+00
   0.1011796461857529E+01
   0.9945327092182557E+00
SCALARS u double 1
LOOKUP_TABLE default
   0.4978150222930575E+00
   0.4991441039497686E+00
   0.5147948380656197E+00
   0.5220346863018285E+00
   0.4738607481719159E+00
   0.0000000000000000E+00
   0.0000000000000000E+00
   0.0000000000000000E+00
   0.0000000000000000E+00
   0.0000000000000000E+00
   0.0000000000000000E+00
   0.4793437961948054E+00
   0.4667594822076221E+00
   0.4942371077088851E+00
   0.4935566381554398E+00
   0.4961569944536801E+00
   0.4940538374455549E+00
   0.4954451845713407E+00
   0.4978952783043214E+00
   0.4989508654815842E+00
   0.4952886344953297E+00
   0.4947938263228545E+00
   0.4518364630312761E+00
   0.3969807205940155E+00
   0.5074001224159683E+00
   0.5527160826002999E+00
   0.5406662717260740E+00
   0.4965705161876663E+00
   0.4947732704107071E+00
   0.4884802295213787E+00
   0.4237435302334833E+00
   0.3186973959623063E+00
   0.4921912354464223E+00
   0.5409735972474241E+00
   0.5516852638175449E+00
   0.4725431774920711E+00
   0.5415487806584863E+00
   0.5917010231336912E+00
   0.5333858944066400E+00
   0.4991316364370884E+00
   0.4964355762474522E+00
   0.5788593920603158E+00
   0.5773866606004435E+00
   0.5013923312079350E+00
   0.3900728485294837E+00
   0.4947079533202335E+00
   0.4951466769095590E+00
   0.5000077029879452E+00
   0.4930664697802735E+00
   0.4929484725805724E+00
   0.5301431830252447E+00
   0.4979954657210121E+00
   0.4988185554050543E+00
   0.5144024358329075E+00
   0.5235521961466877E+00
   0.4772566712224383E+00
   0.0000000000000000E+00
   0.0000000000000000E+00
   0.0000000000000000E+00
   0.0000000000000000E+00
   0.0000000000000000E+00
   0.0000000000000000E+00
   0.4806966403483938E+00
   0.4673093180189062E+00
   0.4945911276298898E+00
   0.4936128377676403E+00
   0.4961891913558435E+00
   0.4941417007832370E+00
   0.4956237105533126E+00
   0.4983074806903074E+00
   0.4994696901379907E+00
   0.4952142690460898E+00
   0.4948912421830631E+00
   0.4554308903882773E+00
   0.4048894125954655E+00
   0.5063606304135931E+00
   0.5528694100817017E+00
   0.5401182929672301E+00
   0.4968539667562588E+00
   0.4949653709644418E+00
   0.4887304764614671E+00
   0.4334365702212279E+00
   0.3253018499460474E+00
   0.4924583382436506E+00
   0.5463183237360363E+00
   0.5582150461923204E+00
   0.4829638477878125E+00
   0.5412890406084148E+00
   0.5969966721346022E+00
   0.5336541780733136E+00
   0.4984823591925795E+00
   0.4965521354863879E+00
   0.5826880247415622E+00
   0.5826705639720899E+00
   0.5008127759784126E+00
   0.3974736485522156E+00
   0.4949855756912923E+00
   0.4954204121620315E+00
   0.4999365718593520E+00
   0.4931309369864436E+00
   0.4928704362027848E+00
   0.5292552518561332E+00
   0.4979741276786487E+00
   0.4988340995406579E+00
   0.5144726403881917E+00
   0.5237677156321645E+00
   0.4773823979350333E+00
   0.0000000000000000E+00
   0.0000000000000000E+00
   0.0000000000000000E+00
   0.0000000000000000E+00
   0.0000000000000000E+00
   0.0000000000000000E+00
   0.4805081667643405E+00
   0.4671634272249983E+00
   0.4945208698899327E+00
   0.4935709828140935E+00
   0.4961690142049033E+00
   0.4940627956387276E+00
   0.4954759904862275E+00
   0.4981251371453559E+00
   0.4993184636156121E+00
   0.4951564710706081E+00
   0.4948182310973515E+00
   0.4554051687785317E+00
   0.4051836370253579E+00
   0.5064085476636130E+00
   0.5530265786481192E+00
   0.5401630683885756E+00
   0.4967030964407885E+00
   0.4948410315143995E+00
   0.4885265094855505E+00
   0.4336700767914740E+00
   0.3256572592831289E+00
   0.4923198858245257E+00
   0.5461333008888155E+00
   0.5585995047163922E+00
   0.4833308788037316E+00
   0.5411255950474682E+00
   0.5969480055542701E+00
   0.5334206883372257E+00
   0.4984497781235750E+00
   0.4964209213617084E+00
   0.5828852939240958E+00
   0.5827564847549720E+00
   0.5007120663485841E+00
   0.3974096197480738E+00
   0.4948218436343506E+00
   0.4952662131023763E+00
   0.4997876378461611E+00
   0.4927290039862045E+00
   0.4926681159211769E+00
   0.5291613247798740E+00
   0.4979722647197412E+00
   0.4988220057795021E+00
   0.5144128553287931E+00
   0.5235563358873059E+00
   0.4771069506439861E+00
   0.0000000000000000E+00
   0.0000000000000000E+00
   0.0000000000000000E+00
   0.0000000000000000E+00
   0.0000000000000000E+00
   0.0000000000000000E+00
   0.4806828763409173E+00
   0.4673130301272731E+00
   0.4946007295244789E+00
   0.4936103572565247E+00
   0.4961901700135327E+00
   0.4941311433608080E+00
   0.4955777119561613E+00
   0.4982225583917484E+00
   0.4993638943767669E+00
   0.4951410473995135E+00
   0.4948786990150674E+00
   0.4554089224285634E+00
   0.4047760820586757E+00
   0.5063195308226676E+00
   0.5527632945958193E+00
   0.5399718658925213E+00
   0.4967719225792970E+00
   0.4949247552432267E+00
   0.4886459070145142E+00
   0.4332738491732517E+00
   0.3253299706206680E+00
   0.4924092396018754E+00
   0.5460576794597245E+00
   0.5580280229166686E+00
   0.4828509190520189E+00
   0.5410651379879595E+00
   0.5967469335531461E+00
   0.5334163241876400E+00
   0.4983919268382253E+00
   0.4964501851953214E+00
   0.5824973328480719E+00
   0.5824362040675561E+00
   0.5006896589848463E+00
   0.3971747651709110E+00
   0.4949037052878492E+00
   0.4953463247203662E+00
   0.4998191822434773E+00
   0.4928360366089741E+00
   0.4927306883586663E+00
   0.5290692419437012E+00
   0.4979741330385714E+00
   0.4988341005086720E+00
   0.5144725339490185E+00
   0.5237677251215288E+00
   0.4773830454470582E+00
   0.0000000000000000E+00
   0.0000000000000000E+00
   0.0000000000000000E+00
   0.0000000000000000E+00
   0.0000000000000000E+00
   0.0000000000000000E+00
   0.4805078696037935E+00
   0.4671636995370255E+00
   0.4945208324078214E+00
   0.4935710123572076E+00
   0.4961690230462869E+00
   0.4940628182610034E+00
   0.4954760056670389E+00
   0.4981251369683192E+00
   0.4993184601293865E+00
   0.4951564894734168E+00
   0.4948182468930265E+00
   0.4554044792136031E+00
   0.4051842668695297E+00
   0.5064085445123816E+00
   0.5530265177855189E+00
   0.5401630264019507E+00
   0.4967031125340705E+00
   0.4948410495323515E+00
   0.4885265235507565E+00
   0.4336700540526154E+00
   0.3256574364886685E+00
   0.4923199148021672E+00
   0.5461330352664284E+00
   0.5585996818028823E+00
   0.4833311159668353E+00
   0.5411255426780316E+00
   0.5969476389367661E+00
   0.5334206736750936E+00
   0.4984497994840084E+00
   0.4964209397379173E+00
   0.5828852420633973E+00
   0.5827563501591282E+00
   0.5007120818769024E+00
   0.3974094366872385E+00
   0.4948218589092264E+00
   0.4952662388473595E+00
   0.4997876583136872E+00
   0.4927292935178766E+00
   0.4926681807950917E+00
   0.5291613001138318E+00
   0.4979954829122035E+00
   0.4988185593873662E+00
   0.5144022157682857E+00
   0.5235520986377697E+00
   0.4772580374062286E+00
   0.0000000000000000E+00
   0.0000000000000000E+00
   0.0000000000000000E+00
   0.0000000000000000E+00
   0.0000000000000000E+00
   0.0000000000000000E+00
   0.4806959966322028E+00
   0.4673098238221652E+00
   0.4945910414277460E+00
   0.4936128916542454E+00
   0.4961892071125641E+00
   0.4941417402109203E+00
   0.4956237430719143E+00
   0.4983074786534333E+00
   0.4994696865296860E+00
   0.4952142966809320E+00
   0.4948912710038141E+00
   0.4554295191853141E+00
   0.4048908949507236E+00
   0.5063606059993382E+00
   0.5528692138124316E+00
   0.5401181718283431E+00
   0.4968539940811927E+00
   0.4949654033630555E+00
   0.4887305262782845E+00
   0.4334364866168852E+00
   0.3253021740217050E+00
   0.4924583772718397E+00
   0.5463177352658998E+00
   0.5582152882283318E+00
   0.4829642521091107E+00
   0.5412888984367146E+00
   0.5969959295891862E+00
   0.5336541224224699E+00
   0.4984823919313732E+00
   0.4965521480176233E+00
   0.5826879382342492E+00
   0.5826702347567917E+00
   0.5008128248673832E+00
   0.3974731890715612E+00
   0.4949855940636553E+00
   0.4954204531685799E+00
   0.4999366167934713E+00
   0.4931313777914426E+00
   0.4928705714342080E+00
   0.5292552140159744E+00
   0.4978150557524492E+00
   0.4991441260661803E+00
   0.5147946415465322E+00
   0.5220345648773823E+00
   0.4738626943910254E+00
   0.0000000000000000E+00
   0.0000000000000000E+00
   0.0000000000000000E+00
   0.0000000000000000E+00
   0.0000000000000000E+00
   0.0000000000000000E+00
   0.4793428678065670E+00
   0.4667602068883713E+00
   0.4942369691605044E+00
   0.4935567065107795E+00
   0.4961570157986449E+00
   0.4940538881780441E+00
   0.4954452300493638E+00
   0.4978952612289960E+00
   0.4989508498218469E+00
   0.4952886990857416E+00
   0.4947938674207258E+00
   0.4518345196827005E+00
   0.3969828237728463E+00
   0.5074001939925746E+00
   0.5527159488291482E+00
   0.5406662544623304E+00
   0.4965705584208693E+00
   0.4947733218519817E+00
   0.4884803729822612E+00
   0.4237432659584953E+00
   0.3186976997203522E+00
   0.4921912788340383E+00
   0.5409727089924802E+00
   0.5516855633171417E+00
   0.4725436175743174E+00
   0.5415487638306570E+00
   0.5917000567634237E+00
   0.5333859429159823E+00
   0.4991317615750798E+00
   0.4964355906532526E+00
   0.5788593626322353E+00
   0.5773862403218709E+00
   0.5013924908857071E+00
   0.3900720855997651E+00
   0.4947079910923210E+00
   0.4951467378756847E+00
   0.5000078444917040E+00
   0.4930670954638445E+00
   0.4929487406170467E+00
   0.5301433409346542E+00
SCALARS v double 1
LOOKUP_TABLE default
   0.0000000000000000E+00
   0.0000000000000000E+00
   0.0000000000000000E+00
   0.0000000000000000E+00
   0.0000000000000000E+00
   0.0000000000000000E+00
   0.0000000000000000E+00
   0.0000000000000000E+00
   0.0000000000000000E+00
   0.0000000000000000E+00
   0.0000000000000000E+00
   0.0000000000000000E+00
   0.0000000000000000E+00
   0.0000000000000000E+00
   0.0000000000000000E+00
   0.0000000000000000E+00
   0.0000000000000000E+00
   0.0000000000000000E+00
   0.0000000000000000E+00
   0.0000000000000000E+00
   0.0000000000000000E+00
   0.0000000000000000E+00
   0.0000000000000000E+00
   0.0000000000000000E+00
   0.0000000000000000E+00
   0.0000000000000000E+00
   0.0000000000000000E+00
   0.0000000000000000E+00
   0.0000000000000000E+00
   0.0000000000000000E+00
   0.0000000000000000E+00
   0.0000000000000000E+00
   0.0000000000000000E+00
   0.0000000000000000E+00
   0.0000000000000000E+00
   0.0000000000000000E+00
   0.0000000000000000E+00
   0.0000000000000000E+00
   0.0000000000000000E+00
   0.0000000000000000E+00
   0.0000000000000000E+00
   0.0000000000000000E+00
   0.0000000000000000E+00
   0.0000000000000000E+00
   0.0000000000000000E+00
   0.0000000000000000E+00
   0.0000000000000000E+00
   0.0000000000000000E+00
   0.0000000000000000E+00