# vtk DataFile Version 2.0
FUN3D:global_image_vtk
ASCII
DATASET UNSTRUCTURED_GRID
POINTS 357 double
    0.5000000000000000E+01    0.0000000000000000E+00    0.2500000000000000E+01
    0.5000000000000000E+01    0.0000000000000000E+00    0.1500000000000000E+01
    0.5000000000000000E+01    0.0000000000000000E+00    0.5000000000000000E+00
    0.5000000000000000E+01    0.0000000000000000E+00   -0.5000000000000000E+00
    0.5000000000000000E+01    0.0000000000000000E+00   -0.1500000000000000E+01
    0.5000000000000000E+01    0.0000000000000000E+00   -0.2500000000000000E+01
    0.4000000000000000E+01    0.0000000000000000E+00   -0.2500000000000000E+01
    0.3000000000000000E+01    0.0000000000000000E+00   -0.2500000000000000E+01
    0.2000000000000000E+01    0.0000000000000000E+00   -0.2500000000000000E+01
    0.9999999999999998E+00    0.0000000000000000E+00   -0.2500000000000000E+01
    0.0000000000000000E+00    0.0000000000000000E+00   -0.2500000000000000E+01
    0.0000000000000000E+00    0.0000000000000000E+00   -0.1500000000000000E+01
    0.0000000000000000E+00    0.0000000000000000E+00   -0.5000000000000000E+00
    0.0000000000000000E+00    0.0000000000000000E+00    0.5000000000000000E+00
    0.0000000000000000E+00    0.0000000000000000E+00    0.1500000000000000E+01
    0.0000000000000000E+00    0.0000000000000000E+00    0.2500000000000000E+01
    0.1000000000000000E+01    0.0000000000000000E+00    0.2500000000000000E+01
    0.2000000000000000E+01    0.0000000000000000E+00    0.2500000000000000E+01
    0.3000000000000000E+01    0.0000000000000000E+00    0.2500000000000000E+01
    0.4000000000000000E+01    0.0000000000000000E+00    0.2500000000000000E+01
    0.4251722454414101E+01    0.0000000000000000E+00    0.1683881519811194E+01
    0.6137332127746504E+00    0.0000000000000000E+00    0.1857879939968904E+01
    0.5055778377301318E+00    0.0000000000000000E+00   -0.1984051145810370E+01
    0.4417350419147004E+01    0.0000000000000000E+00   -0.1798049780917599E+01
    0.4277413896341787E+01    0.0000000000000000E+00    0.7849806286986014E+00
    0.4308949446070184E+01    0.0000000000000000E+00   -0.1030628045339280E+00
    0.3520446556869569E+01    0.0000000000000000E+00    0.1794049766750259E+00
    0.2591686382569276E+01    0.0000000000000000E+00    0.1667295362171870E+01
    0.1306794966956192E+01    0.0000000000000000E+00    0.1758138528035871E+01
    0.7010346092308208E+00    0.0000000000000000E+00    0.3961722714940701E-01
    0.2308484603929350E+01    0.0000000000000000E+00   -0.1644203313594280E+01
    0.2985842179142563E+01    0.0000000000000000E+00   -0.1902408850608312E+01
    0.7941286090671454E+00    0.0000000000000000E+00    0.1001771779085911E+01
    0.1020081380390785E+01    0.0000000000000000E+00   -0.1456956300840256E+01
    0.4356436167904402E+01    0.0000000000000000E+00   -0.1022551130153989E+01
    0.3730315927830617E+01    0.0000000000000000E+00   -0.1467697774434008E+01
    0.2084566650673803E+01    0.0000000000000000E+00   -0.2237556063676878E+00
    0.1900542590153839E+01    0.0000000000000000E+00   -0.1088755785946356E+01
    0.1324761360056765E+01    0.0000000000000000E+00   -0.5267852841860601E+00
    0.3681169751640886E+01    0.0000000000000000E+00    0.1040160628527462E+01
    0.3418876656618056E+01    0.0000000000000000E+00    0.1726168461930342E+01
    0.3751175205920376E+01    0.0000000000000000E+00   -0.6691259304140329E+00
    0.2889801815813465E+01    0.0000000000000000E+00   -0.8562661438192326E+00
    0.3017983410224082E+01    0.0000000000000000E+00    0.9231712184526961E+00
    0.1645821714894795E+01    0.0000000000000000E+00   -0.1837983080076178E+01
    0.1513509181197389E+01    0.0000000000000000E+00    0.1108836692078749E+01
    0.1919398798697967E+01    0.0000000000000000E+00    0.1580342757081665E+01
    0.2193859429875553E+01    0.0000000000000000E+00    0.7740897355665203E+00
    0.6091754699356742E+00    0.0000000000000000E+00   -0.7888248715753817E+00
    0.1441359832811715E+01    0.0000000000000000E+00    0.3490936567660688E+00
    0.2716632372076206E+01    0.0000000000000000E+00    0.1359772398136161E+00
    0.5000000000000000E+01   -0.8333333333333334E+00    0.2500000000000000E+01
    0.5000000000000000E+01   -0.8333333333333334E+00    0.1500000000000000E+01
    0.5000000000000000E+01   -0.8333333333333334E+00    0.5000000000000000E+00
    0.5000000000000000E+01   -0.8333333333333334E+00   -0.5000000000000000E+00
    0.5000000000000000E+01   -0.8333333333333334E+00   -0.1500000000000000E+01
    0.5000000000000000E+01   -0.8333333333333334E+00   -0.2500000000000000E+01
    0.4000000000000000E+01   -0.8333333333333334E+00   -0.2500000000000000E+01
    0.3000000000000000E+01   -0.8333333333333334E+00   -0.2500000000000000E+01
    0.2000000000000000E+01   -0.8333333333333334E+00   -0.2500000000000000E+01
    0.9999999999999998E+00   -0.8333333333333334E+00   -0.2500000000000000E+01
    0.0000000000000000E+00   -0.8333333333333334E+00   -0.2500000000000000E+01
    0.0000000000000000E+00   -0.8333333333333334E+00   -0.1500000000000000E+01
    0.0000000000000000E+00   -0.8333333333333334E+00   -0.5000000000000000E+00
    0.0000000000000000E+00   -0.8333333333333334E+00    0.5000000000000000E+00
    0.0000000000000000E+00   -0.8333333333333334E+00    0.1500000000000000E+01
    0.0000000000000000E+00   -0.8333333333333334E+00    0.2500000000000000E+01
    0.1000000000000000E+01   -0.8333333333333334E+00    0.2500000000000000E+01
    0.2000000000000000E+01   -0.8333333333333334E+00    0.2500000000000000E+01
    0.3000000000000000E+01   -0.8333333333333334E+00    0.2500000000000000E+01
    0.4000000000000000E+01   -0.8333333333333334E+00    0.2500000000000000E+01
    0.4251722454414101E+01   -0.8333333333333334E+00    0.1683881519811194E+01
    0.6137332127746504E+00   -0.8333333333333334E+00    0.1857879939968904E+01
    0.5055778377301318E+00   -0.8333333333333334E+00   -0.1984051145810370E+01
    0.4417350419147004E+01   -0.8333333333333334E+00   -0.1798049780917599E+01
    0.4277413896341787E+01   -0.8333333333333334E+00    0.7849806286986014E+00
    0.4308949446070184E+01   -0.8333333333333334E+00   -0.1030628045339280E+00
    0.3520446556869569E+01   -0.8333333333333334E+00    0.1794049766750259E+00
    0.2591686382569276E+01   -0.8333333333333334E+00    0.1667295362171870E+01
    0.1306794966956192E+01   -0.8333333333333334E+00    0.1758138528035871E+01
    0.7010346092308208E+00   -0.8333333333333334E+00    0.3961722714940701E-01
    0.2308484603929350E+01   -0.8333333333333334E+00   -0.1644203313594280E+01
    0.2985842179142563E+01   -0.8333333333333334E+00   -0.1902408850608312E+01
    0.7941286090671454E+00   -0.8333333333333334E+00    0.1001771779085911E+01
    0.1020081380390785E+01   -0.8333333333333334E+00   -0.1456956300840256E+01
    0.4356436167904402E+01   -0.8333333333333334E+00   -0.1022551130153989E+01
    0.3730315927830617E+01   -0.8333333333333334E+00   -0.1467697774434008E+01
    0.2084566650673803E+01   -0.8333333333333334E+00   -0.2237556063676878E+00
    0.1900542590153839E+01   -0.8333333333333334E+00   -0.1088755785946356E+01
    0.1324761360056765E+01   -0.8333333333333334E+00   -0.5267852841860601E+00
    0.3681169751640886E+01   -0.8333333333333334E+00    0.1040160628527462E+01
    0.3418876656618056E+01   -0.8333333333333334E+00    0.1726168461930342E+01
    0.3751175205920376E+01   -0.8333333333333334E+00   -0.6691259304140329E+00
    0.2889801815813465E+01   -0.8333333333333334E+00   -0.8562661438192326E+00
    0.3017983410224082E+01   -0.8333333333333334E+00    0.9231712184526961E+00
    0.1645821714894795E+01   -0.8333333333333334E+00   -0.1837983080076178E+01
    0.1513509181197389E+01   -0.8333333333333334E+00    0.1108836692078749E+01
    0.1919398798697967E+01   -0.8333333333333334E+00    0.1580342757081665E+01
    0.2193859429875553E+01   -0.8333333333333334E+00    0.7740897355665203E+00
    0.6091754699356742E+00   -0.8333333333333334E+00   -0.7888248715753817E+00
    0.1441359832811715E+01   -0.8333333333333334E+00    0.3490936567660688E+00
    0.2716632372076206E+01   -0.8333333333333334E+00    0.1359772398136161E+00
    0.5000000000000000E+01   -0.1666666666666667E+01    0.2500000000000000E+01
    0.5000000000000000E+01   -0.1666666666666667E+01    0.1500000000000000E+01
    0.5000000000000000E+01   -0.1666666666666667E+01    0.5000000000000000E+00
    0.5000000000000000E+01   -0.1666666666666667E+01   -0.5000000000000000E+00
    0.5000000000000000E+01   -0.1666666666666667E+01   -0.1500000000000000E+01
    0.5000000000000000E+01   -0.1666666666666667E+01   -0.2500000000000000E+01
    0.4000000000000000E+01   -0.1666666666666667E+01   -0.2500000000000000E+01
    0.3000000000000000E+01   -0.1666666666666667E+01   -0.2500000000000000E+01
    0.2000000000000000E+01   -0.1666666666666667E+01   -0.2500000000000000E+01
    0.9999999999999998E+00   -0.1666666666666667E+01   -0.2500000000000000E+01
    0.0000000000000000E+00   -0.1666666666666667E+01   -0.2500000000000000E+01
    0.0000000000000000E+00   -0.1666666666666667E+01   -0.1500000000000000E+01
    0.0000000000000000E+00   -0.1666666666666667E+01   -0.5000000000000000E+00
    0.0000000000000000E+00   -0.1666666666666667E+01    0.5000000000000000E+00
    0.0000000000000000E+00   -0.1666666666666667E+01    0.1500000000000000E+01
    0.0000000000000000E+00   -0.1666666666666667E+01    0.2500000000000000E+01
    0.1000000000000000E+01   -0.1666666666666667E+01    0.2500000000000000E+01
    0.2000000000000000E+01   -0.1666666666666667E+01    0.2500000000000000E+01
    0.3000000000000000E+01   -0.1666666666666667E+01    0.2500000000000000E+01
    0.4000000000000000E+01   -0.1666666666666667E+01    0.2500000000000000E+01
    0.4251722454414101E+01   -0.1666666666666667E+01    0.1683881519811194E+01
    0.6137332127746504E+00   -0.1666666666666667E+01    0.1857879939968904E+01
    0.5055778377301318E+00   -0.1666666666666667E+01   -0.1984051145810370E+01
[...]
POINT_DATA 357
SCALARS rho double 1
LOOKUP_TABLE default
   0.1002616775886102E+01
   0.1002319841579004E+01
   0.1009860261879890E+01
   0.1020740689764439E+01
   0.9775319232959511E+00
   0.8139495895122350E+00
   0.9783095974359252E+00
   0.9823270851448491E+00
   0.9727028859448745E+00
   0.9252129698504872E+00
   0.1509630181637770E+01
   0.1010825989561669E+01
   0.1039709483149533E+01
   0.1005510738018080E+01
   0.1007055481226251E+01
   0.1003253693708219E+01
   0.1004969032082477E+01
   0.1004831693233960E+01
   0.1003620841029150E+01
   0.1002400117866649E+01
   0.1002867984932620E+01
   0.1005068833347686E+01
   0.1102038724255529E+01
   0.9921437985083338E+00
   0.1003055059405633E+01
   0.1005853862285331E+01
   0.9966203771509998E+00
   0.1003468892193438E+01
   0.1004968360134675E+01
   0.1012767550385606E+01
   0.1011275571062685E+01
   0.9937126489412114E+00
   0.1006727415035282E+01
   0.1060497852421775E+01
   0.9929069133194223E+00
   0.9730382228917963E+00
   0.9968107359953733E+00
   0.9985097437159214E+00
   0.9966248871780187E+00
   0.1004188764739604E+01
   0.1002777737347305E+01
   0.1001758489921884E+01
   0.1005821156613115E+01
   0.1001485821937743E+01
   0.9688191581271062E+00
   0.1003904234658153E+01
   0.1003683658598042E+01
   0.1004719688206816E+01
   0.9993127425267971E+00
   0.1011793661026987E+01
   0.9945187248193038E+00
   0.1002560099802746E+01
   0.1002223512012749E+01
   0.1009778229717064E+01
   0.1022529192327871E+01
   0.9835394920256876E+00
   0.8150075576580517E+00
   0.9786907514659982E+00
   0.9831910935236363E+00
   0.9723512680801915E+00
   0.9228032575951245E+00
   0.1511188019377609E+01
   0.1007732661419288E+01
   0.1039420522446995E+01
   0.1005194052023894E+01
   0.1007003943947762E+01
   0.1003215887042233E+01
   0.1004901036617349E+01
   0.1004744421466759E+01
   0.1003495593341368E+01
   0.1002281060801635E+01
   0.1002803427284648E+01
   0.1004999685868732E+01
   0.1102712334728450E+01
   0.9960965778442702E+00
   0.1003038629134902E+01
   0.1006091991265677E+01
   0.9966563812387582E+00
   0.1003321892805737E+01
   0.1004855721094483E+01
   0.1012538689580309E+01
   0.1012856838037840E+01
   0.9960401513819410E+00
   0.1006523608879180E+01
   0.1060693634440279E+01
   0.9949681638674278E+00
   0.9749599644477779E+00
   0.9963116972445532E+00
   0.9984637046926970E+00
   0.9959790647482686E+00
   0.1004160930156992E+01
   0.1002646749241347E+01
   0.1002385672153900E+01
   0.1005996028155534E+01
   0.1001376505253600E+01
   0.9695864953137225E+00
   0.1003677973896330E+01
   0.1003506431283674E+01
   0.1004644597235363E+01
   0.9980974394367297E+00
   0.1011697091719042E+01
   0.9941759841447725E+00
   0.1002595025892471E+01
   0.1002245767729002E+01
   0.1009792525312525E+01
   0.1022544813667134E+01
   0.9835010553603357E+00
   0.8152278732623380E+00
   0.9788351023983644E+00
   0.9835077192155126E+00
   0.9725623668475661E+00
   0.9225193428690008E+00
   0.1511696988165562E+01
   0.1007720913573829E+01
   0.1039561282877680E+01
   0.1005264804667389E+01
   0.1007043797069864E+01
   0.1003239422434479E+01
   0.1004953842903495E+01
   0.1004818595199490E+01
   0.1003578610552651E+01
   0.1002350650421088E+01
   0.1002851510413442E+01
   0.1005051725355054E+01
   0.1103252317345028E+01
   0.9960103156988435E+00
   0.1003064654622725E+01
   0.1006100715227569E+01
   0.9967059466693501E+00
   0.1003411420174220E+01
   0.1004930941271231E+01
   0.1012683032150489E+01
   0.1013087169192975E+01
   0.9961348384415212E+00
   0.1006622582350199E+01
   0.1061111775421032E+01
   0.9950808276619870E+00
   0.9750531825366763E+00
   0.9964533855619077E+00
   0.9986796219683417E+00
   0.9961377037100583E+00
   0.1004217054648331E+01
   0.1002727715638625E+01
   0.1002429340254109E+01
   0.1006162624923364E+01
   0.1001460128494480E+01
   0.9698944372796959E+00
   0.1003788466407915E+01
   0.1003603176852709E+01
   0.1004749236020403E+01
   0.9983058207428839E+00
   0.1011838376809796E+01
   0.9942681255411865E+00
   0.1002583061546990E+01
   0.1002228016466957E+01
   0.1009784813433083E+01
   0.1022589569086947E+01
   0.9837330469002741E+00
   0.8152197989122684E+00
   0.9789813109746713E+00
   0.9835630340102804E+00
   0.9726177958816922E+00
   0.9224868899868007E+00
   0.1511584794792194E+01
   0.1007534306374209E+01
   0.1039446554280199E+01
   0.1005191857259915E+01
   0.1007007566308741E+01
   0.1003217911160083E+01
   0.1004911213909566E+01
   0.1004764909440995E+01
   0.1003527867458768E+01
   0.1002318033807552E+01
   0.1002836084701145E+01
   0.1005006895373705E+01
   0.1102973740438883E+01
   0.9962171254137108E+00
   0.1003069675120468E+01
   0.1006169361554056E+01
   0.9967506643525317E+00
   0.1003360643392511E+01
   0.1004873467105418E+01
   0.1012573215137175E+01
   0.1013125728931434E+01
   0.9961504371475323E+00
   0.1006552181479613E+01
   0.1061014067939684E+01
   0.9951795609565294E+00
   0.9751184250016788E+00
   0.9964199411020370E+00
   0.9986548819002738E+00
   0.9960715436932555E+00
   0.1004210959620251E+01
   0.1002690948540863E+01
   0.1002543331668814E+01
   0.1006205174888394E+01
   0.1001433890199951E+01
   0.9697980413452085E+00
   0.1003719705681471E+01
   0.1003546144673042E+01
   0.1004701472209165E+01
   0.9981705414840630E+00
   0.1011764567137737E+01
   0.9942560046930942E+00
   0.1002595011762517E+01
   0.1002245759291652E+01
   0.1009792577058503E+01
   0.1022544679316578E+01
   0.9835003951732547E+00
   0.8152261039642537E+00
   0.9788340970862758E+00
   0.9835067748467035E+00
   0.9725611378215711E+00
   0.9225187289560536E+00
   0.1511691682109623E+01
   0.1007721655806861E+01
   0.1039560843016973E+01
   0.1005264850491343E+01
   0.1007043761223883E+01
   0.1003239415806730E+01
   0.1004953821399339E+01
   0.1004818572219054E+01
   0.1003578598869700E+01
   0.1002350645875586E+01
   0.1002851493962442E+01
   0.1005051709394618E+01
   0.1103250505806016E+01
   0.9960096196710250E+00
   0.1003064652951792E+01
   0.1006100723997069E+01
   0.9967059757788617E+00
   0.1003411409141725E+01
   0.1004930925866539E+01
   0.1012682953605636E+01
   0.1013086546742599E+01
   0.9961339772141844E+00
   0.1006622559420813E+01
   0.1061111038212223E+01
   0.9950804021970747E+00
   0.9750525288464705E+00
   0.9964534586016577E+00
   0.9986794506255479E+00
   0.9961378668891698E+00
   0.1004217029844871E+01
   0.1002727703672066E+01
   0.1002429221640139E+01
   0.1006162477820732E+01
   0.1001460106974669E+01
   0.9698939470693489E+00
   0.1003788467364423E+01
   0.1003603173707857E+01
   0.1004749184359011E+01
   0.9983060497578009E+00
   0.1011838267585180E+01
   0.9942681889789529E+00
   0.1002560080038218E+01
   0.1002223494498665E+01
   0.1009778326982087E+01
   0.1022528966195273E+01
   0.9835382111543325E+00
   0.8150033641690195E+00
   0.9786881990638779E+00
   0.9831884962830767E+00
   0.9723484919411745E+00
   0.9228018100647926E+00
   0.1511177867289697E+01
   0.1007734105495205E+01
   0.1039419734808498E+01
   0.1005194146445624E+01
   0.1007003882908741E+01
   0.1003215875400732E+01
   0.1004900999721702E+01
   0.1004744377380102E+01
   0.1003495573737223E+01
   0.1002281053216034E+01
   0.1002803401254991E+01
   0.1004999658692021E+01
   0.1102708793282505E+01
   0.9960951284313092E+00
   0.1003038624581210E+01
   0.1006092023063523E+01
   0.9966564350168108E+00
   0.1003321875356978E+01
   0.1004855696111030E+01
   0.1012538536709747E+01
   0.1012855638416873E+01
   0.9960383911381492E+00
   0.1006523576488085E+01
   0.1060692249444163E+01
   0.9949673609471658E+00
   0.9749586623969028E+00
   0.9963118310679315E+00
   0.9984633775363111E+00
   0.9959793845213498E+00
   0.1004160889930576E+01
   0.1002646731007914E+01
   0.1002385443486644E+01
   0.1005995745825982E+01
   0.1001376470043097E+01
   0.9695854872834696E+00
   0.1003677981476685E+01
   0.1003506430244072E+01
   0.1004644496916832E+01
   0.9980979079048236E+00
   0.1011696885881196E+01
   0.9941760908248989E+00
   0.1002616754818611E+01
   0.1002319831155159E+01
   0.1009860383280900E+01
   0.1020740430465353E+01
   0.9775301060782133E+00
   0.8139429489795440E+00
   0.9783044713420540E+00
   0.9823218040916503E+00
   0.9726984855166023E+00
   0.9252105817763095E+00
   0.1509616192043419E+01
   0.1010827975028571E+01
   0.1039708414849745E+01
   0.1005510865262661E+01
   0.1007055404439263E+01
   0.1003253682409540E+01
   0.1004968984341129E+01
   0.1004831632169640E+01
   0.1003620816029222E+01
   0.1002400114907301E+01
   0.1002867953500902E+01
   0.1005068798542097E+01
   0.1102033782413037E+01
   0.9921414829613580E+00
   0.1003055059510078E+01
   0.1005853868138983E+01
   0.9966204553745076E+00
   0.1003468871631449E+01
   0.1004968323519202E+01
   0.1012767330930807E+01
   0.1011273888875506E+01
   0.9937101486685717E+00
   0.1006727377271389E+01
   0.1060495937790217E+01
   0.9929058705403009E+00
   0.9730364826637622E+00
   0.9968109150058660E+00
   0.9985092457868487E+00
   0.9966253162866039E+00
   0.1004188714313283E+01
   0.1002777720050017E+01
   0.1001758154391400E+01
   0.1005820754170864E+01
   0.1001485786382770E+01
   0.9688176829379647E+00
   0.1003904239634896E+01
   0.1003683656324850E+01
   0.1004719542755865E+01
   0.9993134171511627E+00
   0.1011793378927484E+01
   0.9945188673665207E+00
SCALARS u double 1
LOOKUP_TABLE default
   0.4977061269902085E+00
   0.4991930406942862E+00
   0.5148125984497869E+00
   0.5220025724509758E+00
   0.4738758921816080E+00
   0.0000000000000000E+00
   0.0000000000000000E+00
   0.0000000000000000E+00
   0.0000000000000000E+00
   0.0000000000000000E+00
   0.0000000000000000E+00
   0.4793510965305645E+00
   0.4667630999702621E+00
   0.4942449386358934E+00
   0.4935702545780594E+00
   0.4961725770440321E+00
   0.4941029233719008E+00
   0.4954045686521506E+00
   0.4976843661723004E+00
   0.4986176764491914E+00
   0.4952807315101067E+00
   0.4948267912110351E+00
   0.4518346858446589E+00
   0.3969464278163231E+00
   0.5074385257875387E+00
   0.5527304391911205E+00
   0.5406451742346685E+00
   0.4966223871952827E+00
   0.4948222683586296E+00
   0.4884950807373898E+00
   0.4237241055506619E+00
   0.3186697346048245E+00
   0.4921834521293266E+00
   0.5409695057770230E+00
   0.5516498442796227E+00
   0.4724875200113116E+00
   0.5415330964303302E+00
   0.5917028791616191E+00
   0.5333947192842701E+00
   0.4992029500404378E+00
   0.4964218003096244E+00
   0.5788373077830558E+00
   0.5773668148564209E+00
   0.5014312920282229E+00
   0.3900576780508596E+00
   0.4947083593446971E+00
   0.4951977596240630E+00
   0.5000033870477048E+00
   0.4930644095445015E+00
   0.4929401082951442E+00
   0.5301089906594695E+00
   0.4978785111933375E+00
   0.4988779551180462E+00
   0.5143971482939752E+00
   0.5235835793476334E+00
   0.4771823452988943E+00
   0.0000000000000000E+00
   0.0000000000000000E+00
   0.0000000000000000E+00
   0.0000000000000000E+00
   0.0000000000000000E+00
   0.0000000000000000E+00
   0.4807094614540984E+00
   0.4673168156587554E+00
   0.4946032824794483E+00
   0.4936261694811102E+00
   0.4962095955240936E+00
   0.4941918185477183E+00
   0.4955588392699537E+00
   0.4980430002182522E+00
   0.4990540546215814E+00
   0.4952162328747937E+00
   0.4949282374622054E+00
   0.4554319209104098E+00
   0.4048542717760498E+00
   0.5064363854225492E+00
   0.5528312962014522E+00
   0.5400965296757995E+00
   0.4969016741062316E+00
   0.4950165354559182E+00
   0.4887486670202337E+00
   0.4334593775252633E+00
   0.3253245353588871E+00
   0.4924517902336017E+00
   0.5463256877801177E+00
   0.5582322734471773E+00
   0.4829580737664166E+00
   0.5412677197715999E+00
   0.5970120184878144E+00
   0.5336660532845451E+00
   0.4985854255911366E+00
   0.4965275568360474E+00
   0.5826596044848785E+00
   0.5826583777232252E+00
   0.5008678008835208E+00
   0.3974813965205435E+00
   0.4949836989128498E+00
   0.4954633159563267E+00
   0.4999405864016679E+00
   0.4931278800409998E+00
   0.4928657459231515E+00
   0.5292147933743315E+00
   0.4978495379218587E+00
   0.4988912938161256E+00
   0.5144753842973743E+00
   0.5237703358812028E+00
   0.4773525839867430E+00
   0.0000000000000000E+00
   0.0000000000000000E+00
   0.0000000000000000E+00
   0.0000000000000000E+00
   0.0000000000000000E+00
   0.0000000000000000E+00
   0.4805188789705279E+00
   0.4671692400855124E+00
   0.4945309425987131E+00
   0.4935846526746333E+00
   0.4961870324393515E+00
   0.4941111337069420E+00
   0.4954274501042329E+00
   0.4978883335743045E+00
   0.4989262263138587E+00
   0.4951470543190514E+00
   0.4948515365182930E+00
   0.4554043686024211E+00
   0.4051553626533304E+00
   0.5064682210532662E+00
   0.5530075368081789E+00
   0.5401379178222367E+00
   0.4967535390171480E+00
   0.4948896529614364E+00
   0.4885423210086258E+00
   0.4336731867638771E+00
   0.3256609972632212E+00
   0.4923125072989780E+00
   0.5461347116226456E+00
   0.5585957330968890E+00
   0.4833056410242402E+00
   0.5411048540280268E+00
   0.5969545475628286E+00
   0.5334296104042701E+00
   0.4985331180716728E+00
   0.4964017017346726E+00
   0.5828563780509992E+00
   0.5827371784826512E+00
   0.5007550512071783E+00
   0.3974052460071698E+00
   0.4948204649516112E+00
   0.4953120856206978E+00
   0.4997849677275703E+00
   0.4927249580472657E+00
   0.4926610560123068E+00
   0.5291189710861643E+00
   0.4978552866595245E+00
   0.4988797168830566E+00
   0.5144211890629223E+00
   0.5235647938630803E+00
   0.4770576312136711E+00
   0.0000000000000000E+00
   0.0000000000000000E+00
   0.0000000000000000E+00
   0.0000000000000000E+00
   0.0000000000000000E+00
   0.0000000000000000E+00
   0.4806945157506832E+00
   0.4673195917139629E+00
   0.4946115599128068E+00
   0.4936247131051625E+00
   0.4962094070965740E+00
   0.4941793101142265E+00
   0.4955236947491237E+00
   0.4979836955203600E+00
   0.4989857909087622E+00
   0.4951444744450532E+00
   0.4949145447623990E+00
   0.4554087799794313E+00
   0.4047216124335207E+00
   0.5063836224433013E+00
   0.5527585473072361E+00
   0.5399531396001969E+00
   0.4968230614133774E+00
   0.4949748618297761E+00
   0.4886639285529850E+00
   0.4332759695878355E+00
   0.3253179902051387E+00
   0.4924026855274555E+00
   0.5460615279941791E+00
   0.5580145579993101E+00
   0.4828084129029357E+00
   0.5410474922479117E+00
   0.5967589182529607E+00
   0.5334269300133542E+00
   0.4984851031897953E+00
   0.4964358425708536E+00
   0.5824795477077179E+00
   0.5824268333798237E+00
   0.5007404980490060E+00
   0.3971716411287911E+00
   0.4949030422412314E+00
   0.4953924873899964E+00
   0.4998206854105412E+00
   0.4928340431201258E+00
   0.4927250480115531E+00
   0.5290322464020721E+00
   0.4978495416275104E+00
   0.4988912923689146E+00
   0.5144752786617501E+00
   0.5237703458003390E+00
   0.4773532351196398E+00
   0.0000000000000000E+00
   0.0000000000000000E+00
   0.0000000000000000E+00
   0.0000000000000000E+00
   0.0000000000000000E+00
   0.0000000000000000E+00
   0.4805185787171180E+00
   0.4671695140068298E+00
   0.4945309038235146E+00
   0.4935846834629790E+00
   0.4961870404876578E+00
   0.4941111574997342E+00
   0.4954274673332534E+00
   0.4978883335333553E+00
   0.4989262217589051E+00
   0.4951470682010418E+00
   0.4948515529933616E+00
   0.4554036787271187E+00
   0.4051559928931886E+00
   0.5064682159528665E+00
   0.5530074770742002E+00
   0.5401378769051165E+00
   0.4967535526955922E+00
   0.4948896724901773E+00
   0.4885423339371312E+00
   0.4336731631576326E+00
   0.3256611732526907E+00
   0.4923125377563341E+00
   0.5461344452047326E+00
   0.5585959131123709E+00
   0.4833058786061613E+00
   0.5411048045629707E+00
   0.5969541797905095E+00
   0.5334295974437149E+00
   0.4985331348388524E+00
   0.4964017159663635E+00
   0.5828563270309129E+00
   0.5827370455391380E+00
   0.5007550637885121E+00
   0.3974050620433422E+00
   0.4948204807331531E+00
   0.4953121118832914E+00
   0.4997849868874022E+00
   0.4927252502826372E+00
   0.4926611209733795E+00
   0.5291189482383322E+00
   0.4978785269960253E+00
   0.4988779564607297E+00
   0.5143969316711892E+00
   0.5235834796984513E+00
   0.4771837152220155E+00
   0.0000000000000000E+00
   0.0000000000000000E+00
   0.0000000000000000E+00
   0.0000000000000000E+00
   0.0000000000000000E+00
   0.0000000000000000E+00
   0.4807088121675863E+00
   0.4673173238926573E+00
   0.4946031934031173E+00
   0.4936262256526609E+00
   0.4962096098259954E+00
   0.4941918610021296E+00
   0.4955588746063248E+00
   0.4980430025948884E+00
   0.4990540562927989E+00
   0.4952162606930203E+00
   0.4949282658233838E+00
   0.4554305486433695E+00
   0.4048557610863407E+00
   0.5064363608338959E+00
   0.5528310986412562E+00
   0.5400964091988079E+00
   0.4969016969191731E+00
   0.4950165675607244E+00
   0.4887487155660705E+00
   0.4334592949140560E+00
   0.3253248605101501E+00
   0.4924518298458485E+00
   0.5463250974769853E+00
   0.5582325135865974E+00
   0.4829584817365876E+00
   0.5412675829492372E+00
   0.5970112756627669E+00
   0.5336660016581136E+00
   0.4985854575120688E+00
   0.4965275703779603E+00
   0.5826595184080580E+00
   0.5826580507346156E+00
   0.5008678463016756E+00
   0.3974809351446557E+00
   0.4949837141473943E+00
   0.4954633538623229E+00
   0.4999406285795733E+00
   0.4931283256379211E+00
   0.4928658807754929E+00
   0.5292147595466018E+00
   0.4977061544054967E+00
   0.4991930626203960E+00
   0.5148124115297024E+00
   0.5220024394280853E+00
   0.4738778479114914E+00
   0.0000000000000000E+00
   0.0000000000000000E+00
   0.0000000000000000E+00
   0.0000000000000000E+00
   0.0000000000000000E+00
   0.0000000000000000E+00
   0.4793501564384245E+00
   0.4667638306489090E+00
   0.4942447943845494E+00
   0.4935703272630591E+00
   0.4961725936977593E+00
   0.4941029820715768E+00
   0.4954046312142476E+00
   0.4976843681741754E+00
   0.4986176739263364E+00
   0.4952807942774929E+00
   0.4948268304220872E+00
   0.4518327392463957E+00
   0.3969485285748546E+00
   0.5074385995187576E+00
   0.5527303164737162E+00
   0.5406451626149544E+00
   0.4966224292743144E+00
   0.4948223220748009E+00
   0.4884952226810741E+00
   0.4237238290366150E+00
   0.3186700242767865E+00
   0.4921834951481210E+00
   0.5409686102963428E+00
   0.5516501314179050E+00
   0.4724879476188718E+00
   0.5415330889348465E+00
   0.5917019082621687E+00
   0.5333947743107957E+00
   0.4992030720120256E+00
   0.4964218210201025E+00
   0.5788372809753108E+00
   0.5773663944207227E+00
   0.5014314452126034E+00
   0.3900569031264012E+00
   0.4947083926714170E+00
   0.4951978223638749E+00
   0.5000035231005595E+00
   0.4930650423341526E+00
   0.4929403750931147E+00
   0.5301091566688705E+00
SCALARS v double 1
LOOKUP_TABLE default
   0.0000000000000000E+00
   0.0000000000000000E+00
   0.0000000000000000E+00
   0.0000000000000000E+00
   0.0000000000000000E+00
   0.0000000000000000E+00
   0.0000000000000000E+00
   0.0000000000000000E+00
   0.0000000000000000E+00
   0.0000000000000000E+00
   0.0000000000000000E+00
   0.0000000000000000E+00
   0.0000000000000000E+00
   0.0000000000000000E+00
   0.0000000000000000E+00
   0.0000000000000000E+00
   0.0000000000000000E+00
   0.0000000000000000E+00
   0.0000000000000000E+00
   0.0000000000000000E+00
   0.0000000000000000E+00
   0.0000000000000000E+00
   0.0000000000000000E+00
   0.0000000000000000E+00
   0.0000000000000000E+00
   0.0000000000000000E+00
   0.0000000000000000E+00
   0.0000000000000000E+00
   0.0000000000000000E+00
   0.0000000000000000E+00
   0.0000000000000000E+00
   0.0000000000000000E+00
   0.0000000000000000E+00
   0.0000000000000000E+00
   0.0000000000000000E+00
   0.0000000000000000E+00
   0.0000000000000000E+00
   0.0000000000000000E+00
   0.0000000000000000E+00
   0.0000000000000000E+00
   0.0000000000000000E+00
   0.0000000000000000E+00
   0.0000000000000000E+00
   0.0000000000000000E+00
   0.0000000000000000E+00
   0.0000000000000000E+00
   0.0000000000000000E+00
   0.0000000000000000E+00
   0.0000000000000000E+00