# vtk DataFile Version 2.0
FUN3D:global_image_vtk
ASCII
DATASET UNSTRUCTURED_GRID
POINTS 357 double
    0.5000000000000000E+01    0.0000000000000000E+00    0.2500000000000000E+01
    0.5000000000000000E+01    0.0000000000000000E+00    0.1500000000000000E+01
    0.5000000000000000E+01    0.0000000000000000E+00    0.5000000000000000E+00
    0.5000000000000000E+01    0.0000000000000000E+00   -0.5000000000000000E+00
    0.5000000000000000E+01    0.0000000000000000E+00   -0.1500000000000000E+01
    0.5000000000000000E+01    0.0000000000000000E+00   -0.2500000000000000E+01
    0.4000000000000000E+01    0.0000000000000000E+00   -0.2500000000000000E+01
    0.3000000000000000E+01    0.0000000000000000E+00   -0.2500000000000000E+01
    0.2000000000000000E+01    0.0000000000000000E+00   -0.2500000000000000E+01
    0.9999999999999998E+00    0.0000000000000000E+00   -0.2500000000000000E+01
    0.0000000000000000E+00    0.0000000000000000E+00   -0.2500000000000000E+01
    0.0000000000000000E+00    0.0000000000000000E+00   -0.1500000000000000E+01
    0.0000000000000000E+00    0.0000000000000000E+00   -0.5000000000000000E+00
    0.0000000000000000E+00    0.0000000000000000E+00    0.5000000000000000E+00
    0.0000000000000000E+00    0.0000000000000000E+00    0.1500000000000000E+01
    0.0000000000000000E+00    0.0000000000000000E+00    0.2500000000000000E+01
    0.1000000000000000E+01    0.0000000000000000E+00    0.2500000000000000E+01
    0.2000000000000000E+01    0.0000000000000000E+00    0.2500000000000000E+01
    0.3000000000000000E+01    0.0000000000000000E+00    0.2500000000000000E+01
    0.4000000000000000E+01    0.0000000000000000E+00    0.2500000000000000E+01
    0.4251722454414101E+01    0.0000000000000000E+00    0.1683881519811194E+01
    0.6137332127746504E+00    0.0000000000000000E+00    0.1857879939968904E+01
    0.5055778377301318E+00    0.0000000000000000E+00   -0.1984051145810370E+01
    0.4417350419147004E+01    0.0000000000000000E+00   -0.1798049780917599E+01
    0.4277413896341787E+01    0.0000000000000000E+00    0.7849806286986014E+00
    0.4308949446070184E+01    0.0000000000000000E+00   -0.1030628045339280E+00
    0.3520446556869569E+01    0.0000000000000000E+00    0.1794049766750259E+00
    0.2591686382569276E+01    0.0000000000000000E+00    0.1667295362171870E+01
    0.1306794966956192E+01    0.0000000000000000E+00    0.1758138528035871E+01
    0.7010346092308208E+00    0.0000000000000000E+00    0.3961722714940701E-01
    0.2308484603929350E+01    0.0000000000000000E+00   -0.1644203313594280E+01
    0.2985842179142563E+01    0.0000000000000000E+00   -0.1902408850608312E+01
    0.7941286090671454E+00    0.0000000000000000E+00    0.1001771779085911E+01
    0.1020081380390785E+01    0.0000000000000000E+00   -0.1456956300840256E+01
    0.4356436167904402E+01    0.0000000000000000E+00   -0.1022551130153989E+01
    0.3730315927830617E+01    0.0000000000000000E+00   -0.1467697774434008E+01
    0.2084566650673803E+01    0.0000000000000000E+00   -0.2237556063676878E+00
    0.1900542590153839E+01    0.0000000000000000E+00   -0.1088755785946356E+01
    0.1324761360056765E+01    0.0000000000000000E+00   -0.5267852841860601E+00
    0.3681169751640886E+01    0.0000000000000000E+00    0.1040160628527462E+01
    0.3418876656618056E+01    0.0000000000000000E+00    0.1726168461930342E+01
    0.3751175205920376E+01    0.0000000000000000E+00   -0.6691259304140329E+00
    0.2889801815813465E+01    0.0000000000000000E+00   -0.8562661438192326E+00
    0.3017983410224082E+01    0.0000000000000000E+00    0.9231712184526961E+00
    0.1645821714894795E+01    0.0000000000000000E+00   -0.1837983080076178E+01
    0.1513509181197389E+01    0.0000000000000000E+00    0.1108836692078749E+01
    0.1919398798697967E+01    0.0000000000000000E+00    0.1580342757081665E+01
    0.2193859429875553E+01    0.0000000000000000E+00    0.7740897355665203E+00
    0.6091754699356742E+00    0.0000000000000000E+00   -0.7888248715753817E+00
    0.1441359832811715E+01    0.0000000000000000E+00    0.3490936567660688E+00
    0.2716632372076206E+01    0.0000000000000000E+00    0.1359772398136161E+00
    0.5000000000000000E+01   -0.8333333333333334E+00    0.2500000000000000E+01
    0.5000000000000000E+01   -0.8333333333333334E+00    0.1500000000000000E+01
    0.5000000000000000E+01   -0.8333333333333334E+00    0.5000000000000000E+00
    0.5000000000000000E+01   -0.8333333333333334E+00   -0.5000000000000000E+00
    0.5000000000000000E+01   -0.8333333333333334E+00   -0.1500000000000000E+01
    0.5000000000000000E+01   -0.8333333333333334E+00   -0.2500000000000000E+01
    0.4000000000000000E+01   -0.8333333333333334E+00   -0.2500000000000000E+01
    0.3000000000000000E+01   -0.8333333333333334E+00   -0.2500000000000000E+01
    0.2000000000000000E+01   -0.8333333333333334E+00   -0.2500000000000000E+01
    0.9999999999999998E+00   -0.8333333333333334E+00   -0.2500000000000000E+01
    0.0000000000000000E+00   -0.8333333333333334E+00   -0.2500000000000000E+01
    0.0000000000000000E+00   -0.8333333333333334E+00   -0.1500000000000000E+01
    0.0000000000000000E+00   -0.8333333333333334E+00   -0.5000000000000000E+00
    0.0000000000000000E+00   -0.8333333333333334E+00    0.5000000000000000E+00
    0.0000000000000000E+00   -0.8333333333333334E+00    0.1500000000000000E+01
    0.0000000000000000E+00   -0.8333333333333334E+00    0.2500000000000000E+01
    0.1000000000000000E+01   -0.8333333333333334E+00    0.2500000000000000E+01
    0.2000000000000000E+01   -0.8333333333333334E+00    0.2500000000000000E+01
    0.3000000000000000E+01   -0.8333333333333334E+00    0.2500000000000000E+01
    0.4000000000000000E+01   -0.8333333333333334E+00    0.2500000000000000E+01
    0.4251722454414101E+01   -0.8333333333333334E+00    0.1683881519811194E+01
    0.6137332127746504E+00   -0.8333333333333334E+00    0.1857879939968904E+01
    0.5055778377301318E+00   -0.8333333333333334E+00   -0.1984051145810370E+01
    0.4417350419147004E+01   -0.8333333333333334E+00   -0.1798049780917599E+01
    0.4277413896341787E+01   -0.8333333333333334E+00    0.7849806286986014E+00
    0.4308949446070184E+01   -0.8333333333333334E+00   -0.1030628045339280E+00
    0.3520446556869569E+01   -0.8333333333333334E+00    0.1794049766750259E+00
    0.2591686382569276E+01   -0.8333333333333334E+00    0.1667295362171870E+01
    0.1306794966956192E+01   -0.8333333333333334E+00    0.1758138528035871E+01
    0.7010346092308208E+00   -0.8333333333333334E+00    0.3961722714940701E-01
    0.2308484603929350E+01   -0.8333333333333334E+00   -0.1644203313594280E+01
    0.2985842179142563E+01   -0.8333333333333334E+00   -0.1902408850608312E+01
    0.7941286090671454E+00   -0.8333333333333334E+00    0.1001771779085911E+01
    0.1020081380390785E+01   -0.8333333333333334E+00   -0.1456956300840256E+01
    0.4356436167904402E+01   -0.8333333333333334E+00   -0.1022551130153989E+01
    0.3730315927830617E+01   -0.8333333333333334E+00   -0.1467697774434008E+01
    0.2084566650673803E+01   -0.8333333333333334E+00   -0.2237556063676878E+00
    0.1900542590153839E+01   -0.8333333333333334E+00   -0.1088755785946356E+01
    0.1324761360056765E+01   -0.8333333333333334E+00   -0.5267852841860601E+00
    0.3681169751640886E+01   -0.8333333333333334E+00    0.1040160628527462E+01
    0.3418876656618056E+01   -0.8333333333333334E+00    0.1726168461930342E+01
    0.3751175205920376E+01   -0.8333333333333334E+00   -0.6691259304140329E+00
    0.2889801815813465E+01   -0.8333333333333334E+00   -0.8562661438192326E+00
    0.3017983410224082E+01   -0.8333333333333334E+00    0.9231712184526961E+00
    0.1645821714894795E+01   -0.8333333333333334E+00   -0.1837983080076178E+01
    0.1513509181197389E+01   -0.8333333333333334E+00    0.1108836692078749E+01
    0.1919398798697967E+01   -0.8333333333333334E+00    0.1580342757081665E+01
    0.2193859429875553E+01   -0.8333333333333334E+00    0.7740897355665203E+00
    0.6091754699356742E+00   -0.8333333333333334E+00   -0.7888248715753817E+00
    0.1441359832811715E+01   -0.8333333333333334E+00    0.3490936567660688E+00
    0.2716632372076206E+01   -0.8333333333333334E+00    0.1359772398136161E+00
    0.5000000000000000E+01   -0.1666666666666667E+01    0.2500000000000000E+01
    0.5000000000000000E+01   -0.1666666666666667E+01    0.1500000000000000E+01
    0.5000000000000000E+01   -0.1666666666666667E+01    0.5000000000000000E+00
    0.5000000000000000E+01   -0.1666666666666667E+01   -0.5000000000000000E+00
    0.5000000000000000E+01   -0.1666666666666667E+01   -0.1500000000000000E+01
    0.5000000000000000E+01   -0.1666666666666667E+01   -0.2500000000000000E+01
    0.4000000000000000E+01   -0.1666666666666667E+01   -0.2500000000000000E+01
    0.3000000000000000E+01   -0.1666666666666667E+01   -0.2500000000000000E+01
    0.2000000000000000E+01   -0.1666666666666667E+01   -0.2500000000000000E+01
    0.9999999999999998E+00   -0.1666666666666667E+01   -0.2500000000000000E+01
    0.0000000000000000E+00   -0.1666666666666667E+01   -0.2500000000000000E+01
    0.0000000000000000E+00   -0.1666666666666667E+01   -0.1500000000000000E+01
    0.0000000000000000E+00   -0.1666666666666667E+01   -0.5000000000000000E+00
    0.0000000000000000E+00   -0.1666666666666667E+01    0.5000000000000000E+00
    0.0000000000000000E+00   -0.1666666666666667E+01    0.1500000000000000E+01
    0.0000000000000000E+00   -0.1666666666666667E+01    0.2500000000000000E+01
    0.1000000000000000E+01   -0.1666666666666667E+01    0.2500000000000000E+01
    0.2000000000000000E+01   -0.1666666666666667E+01    0.2500000000000000E+01
    0.3000000000000000E+01   -0.1666666666666667E+01    0.2500000000000000E+01
    0.4000000000000000E+01   -0.1666666666666667E+01    0.2500000000000000E+01
    0.4251722454414101E+01   -0.1666666666666667E+01    0.1683881519811194E+01
    0.6137332127746504E+00   -0.1666666666666667E+01    0.1857879939968904E+01
    0.5055778377301318E+00   -0.1666666666666667E+01   -0.1984051145810370E+01
[...]
POINT_DATA 357
SCALARS rho double 1
LOOKUP_TABLE default
   0.1002616776996178E+01
   0.1002319843768711E+01
   0.1009860263621270E+01
   0.1020740683943879E+01
   0.9775319354038420E+00
   0.8139495930539332E+00
   0.9783095987608105E+00
   0.9823270844022551E+00
   0.9727028863052513E+00
   0.9252129696017085E+00
   0.1509630180757344E+01
   0.1010825988878192E+01
   0.1039709482021548E+01
   0.1005510738124127E+01
   0.1007055481352646E+01
   0.1003253692953910E+01
   0.1004969032790255E+01
   0.1004831692006080E+01
   0.1003620842487113E+01
   0.1002400114096093E+01
   0.1002867986976647E+01
   0.1005068833318657E+01
   0.1102038725846763E+01
   0.9921438187077249E+00
   0.1003055057201818E+01
   0.1005853864929564E+01
   0.9966203762228566E+00
   0.1003468891556591E+01
   0.1004968359871190E+01
   0.1012767550518959E+01
   0.1011275569343990E+01
   0.9937126574386724E+00
   0.1006727414673473E+01
   0.1060497851420558E+01
   0.9929069073393803E+00
   0.9730382254062914E+00
   0.9968107358079036E+00
   0.9985097446610034E+00
   0.9966248866168721E+00
   0.1004188764408631E+01
   0.1002777736929389E+01
   0.1001758489563314E+01
   0.1005821154525594E+01
   0.1001485821432781E+01
   0.9688191602404040E+00
   0.1003904234041035E+01
   0.1003683659109996E+01
   0.1004719687781091E+01
   0.9993127431610633E+00
   0.1011793661421302E+01
   0.9945187263025781E+00
   0.1002560098702076E+01
   0.1002223509845415E+01
   0.1009778228110402E+01
   0.1022529197012418E+01
   0.9835394819476497E+00
   0.8150075546216674E+00
   0.9786907505818505E+00
   0.9831910943036204E+00
   0.9723512676798843E+00
   0.9228032578057392E+00
   0.1511188020123323E+01
   0.1007732661940133E+01
   0.1039420523420726E+01
   0.1005194051932700E+01
   0.1007003943828851E+01
   0.1003215887708750E+01
   0.1004901035943785E+01
   0.1004744422558146E+01
   0.1003495592110736E+01
   0.1002281063912303E+01
   0.1002803425433750E+01
   0.1004999685850453E+01
   0.1102712333468073E+01
   0.9960965616622700E+00
   0.1003038630957207E+01
   0.1006091989025239E+01
   0.9966563821396028E+00
   0.1003321893372702E+01
   0.1004855721330965E+01
   0.1012538689468337E+01
   0.1012856839261686E+01
   0.9960401447788174E+00
   0.1006523609222876E+01
   0.1060693635216631E+01
   0.9949681686521148E+00
   0.9749599626262407E+00
   0.9963116974615847E+00
   0.9984637040568722E+00
   0.9959790650905987E+00
   0.1004160930548296E+01
   0.1002646749533904E+01
   0.1002385672310971E+01
   0.1005996029793949E+01
   0.1001376505731331E+01
   0.9695864936918189E+00
   0.1003677974404283E+01
   0.1003506430897891E+01
   0.1004644597525829E+01
   0.9980974389089510E+00
   0.1011697091359899E+01
   0.9941759829355801E+00
   0.1002595026800916E+01
   0.1002245769962720E+01
   0.1009792526674709E+01
   0.1022544810786146E+01
   0.9835010614149383E+00
   0.8152278744816115E+00
   0.9788351025740749E+00
   0.9835077184125000E+00
   0.9725623672391415E+00
   0.9225193427522436E+00
   0.1511696987568199E+01
   0.1007720913349308E+01
   0.1039561282055573E+01
   0.1005264804666713E+01
   0.1007043797114452E+01
   0.1003239421898189E+01
   0.1004953843442894E+01
   0.1004818594258208E+01
   0.1003578611211019E+01
   0.1002350648452246E+01
   0.1002851511860122E+01
   0.1005051725397716E+01
   0.1103252318004758E+01
   0.9960103249448859E+00
   0.1003064653527989E+01
   0.1006100716656518E+01
   0.9967059457945306E+00
   0.1003411419663062E+01
   0.1004930941031604E+01
   0.1012683032198874E+01
   0.1013087168666279E+01
   0.9961348420676148E+00
   0.1006622581982414E+01
   0.1061111774945505E+01
   0.9950808247774550E+00
   0.9750531831750541E+00
   0.9964533853035280E+00
   0.9986796220699918E+00
   0.9961377036909361E+00
   0.1004217054091650E+01
   0.1002727715616862E+01
   0.1002429340392002E+01
   0.1006162624026673E+01
   0.1001460128033923E+01
   0.9698944381272042E+00
   0.1003788465992673E+01
   0.1003603176984313E+01
   0.1004749235921261E+01
   0.9983058210701037E+00
   0.1011838377032783E+01
   0.9942681261766950E+00
   0.1002583060605838E+01
   0.1002228014263413E+01
   0.1009784812151779E+01
   0.1022589571143335E+01
   0.9837330426932626E+00
   0.8152197984714467E+00
   0.9789813110821141E+00
   0.9835630348966680E+00
   0.9726177954658893E+00
   0.9224868900227953E+00
   0.1511584795307406E+01
   0.1007534306460655E+01
   0.1039446554992804E+01
   0.1005191857273287E+01
   0.1007007566264118E+01
   0.1003217911616968E+01
   0.1004911213374764E+01
   0.1004764910268415E+01
   0.1003527867001661E+01
   0.1002318035160898E+01
   0.1002836083409462E+01
   0.1005006895283203E+01
   0.1102973740021046E+01
   0.9962171192303353E+00
   0.1003069675892186E+01
   0.1006169360465174E+01
   0.9967506652339775E+00
   0.1003360643843474E+01
   0.1004873467330665E+01
   0.1012573215108746E+01
   0.1013125729095162E+01
   0.9961504348659826E+00
   0.1006552181824069E+01
   0.1061014068249298E+01
   0.9951795630070411E+00
   0.9751184249389534E+00
   0.9964199413714629E+00
   0.9986548820371848E+00
   0.9960715435263812E+00
   0.1004210960211663E+01
   0.1002690948450871E+01
   0.1002543331345367E+01
   0.1006205175425289E+01
   0.1001433890616407E+01
   0.9697980408163943E+00
   0.1003719705992336E+01
   0.1003546144652835E+01
   0.1004701472182239E+01
   0.9981705412134800E+00
   0.1011764566943668E+01
   0.9942560042864876E+00
   0.1002595012670760E+01
   0.1002245761526132E+01
   0.1009792578421097E+01
   0.1022544676435000E+01
   0.9835004012289589E+00
   0.8152261051836460E+00
   0.9788340972620390E+00
   0.9835067740436767E+00
   0.9725611382130862E+00
   0.9225187288392157E+00
   0.1511691681512107E+01
   0.1007721655582300E+01
   0.1039560842194672E+01
   0.1005264850490666E+01
   0.1007043761268494E+01
   0.1003239415270431E+01
   0.1004953821938678E+01
   0.1004818571277694E+01
   0.1003578599527889E+01
   0.1002350643906415E+01
   0.1002851495409373E+01
   0.1005051709437326E+01
   0.1103250506465718E+01
   0.9960096289185157E+00
   0.1003064651857160E+01
   0.1006100725426013E+01
   0.9967059749036447E+00
   0.1003411408630413E+01
   0.1004930925626835E+01
   0.1012682953654018E+01
   0.1013086546215547E+01
   0.9961339808406900E+00
   0.1006622559052914E+01
   0.1061111037736647E+01
   0.9950803993122390E+00
   0.9750525294849444E+00
   0.9964534583432351E+00
   0.9986794507270353E+00
   0.9961378668700193E+00
   0.1004217029288096E+01
   0.1002727703650415E+01
   0.1002429221778005E+01
   0.1006162476923899E+01
   0.1001460106513893E+01
   0.9698939479169133E+00
   0.1003788466949156E+01
   0.1003603173839263E+01
   0.1004749184259753E+01
   0.9983060500850772E+00
   0.1011838267808176E+01
   0.9942681896144950E+00
   0.1002560078938263E+01
   0.1002223492329585E+01
   0.1009778325374895E+01
   0.1022528970881098E+01
   0.9835382010736580E+00
   0.8150033611315443E+00
   0.9786881981795098E+00
   0.9831884970631050E+00
   0.9723484915409704E+00
   0.9228018102756268E+00
   0.1511177868035620E+01
   0.1007734106016208E+01
   0.1039419735782584E+01
   0.1005194146354398E+01
   0.1007003882789793E+01
   0.1003215876067319E+01
   0.1004900999048204E+01
   0.1004744378471720E+01
   0.1003495572506790E+01
   0.1002281056328058E+01
   0.1002803399403382E+01
   0.1004999658673617E+01
   0.1102708792022004E+01
   0.9960951122458126E+00
   0.1003038626403480E+01
   0.1006092020823131E+01
   0.9966564359182986E+00
   0.1003321875924362E+01
   0.1004855696347618E+01
   0.1012538536597771E+01
   0.1012855639641354E+01
   0.9960383845338533E+00
   0.1006523576832008E+01
   0.1060692250220618E+01
   0.9949673657325048E+00
   0.9749586605749193E+00
   0.9963118312850574E+00
   0.9984633769007212E+00
   0.9959793848637645E+00
   0.1004160890322241E+01
   0.1002646731300125E+01
   0.1002385443643841E+01
   0.1005995747464870E+01
   0.1001376470521271E+01
   0.9695854856613567E+00
   0.1003677981984732E+01
   0.1003506429858542E+01
   0.1004644497207459E+01
   0.9980979073769676E+00
   0.1011696885521992E+01
   0.9941760896153942E+00
   0.1002616755927224E+01
   0.1002319833347600E+01
   0.1009860385022651E+01
   0.1020740424642698E+01
   0.9775301181905179E+00
   0.8139429525231922E+00
   0.9783044726675839E+00
   0.9823218033487988E+00
   0.9726984858767721E+00
   0.9252105815272410E+00
   0.1509616191162614E+01
   0.1010827974344645E+01
   0.1039708413721385E+01
   0.1005510865368806E+01
   0.1007055404565738E+01
   0.1003253681655005E+01
   0.1004968985048922E+01
   0.1004831630941024E+01
   0.1003620817487128E+01
   0.1002400111133668E+01
   0.1002867955546058E+01
   0.1005068798513150E+01
   0.1102033784004813E+01
   0.9921415031664251E+00
   0.1003055057306158E+01
   0.1005853870783205E+01
   0.9966204544457589E+00
   0.1003468870993770E+01
   0.1004968323255586E+01
   0.1012767331064163E+01
   0.1011273887156277E+01
   0.9937101571678361E+00
   0.1006727376909277E+01
   0.1060495936788868E+01
   0.9929058645595238E+00
   0.9730364851793046E+00
   0.9968109148181699E+00
   0.9985092467317963E+00
   0.9966253157252851E+00
   0.1004188713981615E+01
   0.1002777719632270E+01
   0.1001758154032543E+01
   0.1005820752082303E+01
   0.1001485785877323E+01
   0.9688176850517124E+00
   0.1003904239017443E+01
   0.1003683656836802E+01
   0.1004719542329992E+01
   0.9993134177854955E+00
   0.1011793379321883E+01
   0.9945188688505247E+00
SCALARS u double 1
LOOKUP_TABLE default
   0.4977061301770628E+00
   0.4991930408538670E+00
   0.5148125965300129E+00
   0.5220025797389002E+00
   0.4738758791610764E+00
   0.0000000000000000E+00
   0.0000000000000000E+00
   0.0000000000000000E+00
   0.0000000000000000E+00
   0.0000000000000000E+00
   0.0000000000000000E+00
   0.4793510971173081E+00
   0.4667631009705004E+00
   0.4942449384981896E+00
   0.4935702544372408E+00
   0.4961725774112762E+00
   0.4941029235805025E+00
   0.4954045681622939E+00
   0.4976843711060793E+00
   0.4986176840792236E+00
   0.4952807358469383E+00
   0.4948267912631324E+00
   0.4518346854388677E+00
   0.3969464229222193E+00
   0.5074385258148015E+00
   0.5527304404961669E+00
   0.5406451763039473E+00
   0.4966223850815703E+00
   0.4948222692904595E+00
   0.4884950809125757E+00
   0.4237241063016781E+00
   0.3186697340683475E+00
   0.4921834521623724E+00
   0.5409695058778068E+00
   0.5516498443616625E+00
   0.4724875186798371E+00
   0.5415330962949979E+00
   0.5917028797565164E+00
   0.5333947196195996E+00
   0.4992029488174582E+00
   0.4964218030801800E+00
   0.5788373105184180E+00
   0.5773668163699460E+00
   0.5014312909543444E+00
   0.3900576788503066E+00
   0.4947083594838071E+00
   0.4951977604034314E+00
   0.5000033878157829E+00
   0.4930644097413079E+00
   0.4929401081910406E+00
   0.5301089932014719E+00
   0.4978785084109675E+00
   0.4988779548418917E+00
   0.5143971497904309E+00
   0.5235835733350920E+00
   0.4771823562472055E+00
   0.0000000000000000E+00
   0.0000000000000000E+00
   0.0000000000000000E+00
   0.0000000000000000E+00
   0.0000000000000000E+00
   0.0000000000000000E+00
   0.4807094609922966E+00
   0.4673168147750611E+00
   0.4946032825986451E+00
   0.4936261696352925E+00
   0.4962095952663119E+00
   0.4941918184156349E+00
   0.4955588394037307E+00
   0.4980429957659028E+00
   0.4990540481555449E+00
   0.4952162287668875E+00
   0.4949282374560416E+00
   0.4554319213058228E+00
   0.4048542760136133E+00
   0.5064363850210502E+00
   0.5528312948964834E+00
   0.5400965277391303E+00
   0.4969016759190704E+00
   0.4950165346189835E+00
   0.4887486668832094E+00
   0.4334593771485998E+00
   0.3253245362416503E+00
   0.4924517901074865E+00
   0.5463256877226547E+00
   0.5582322734468144E+00
   0.4829580750765849E+00
   0.5412677199148054E+00
   0.5970120181665305E+00
   0.5336660531606986E+00
   0.4985854265071336E+00
   0.4965275543017154E+00
   0.5826596017697855E+00
   0.5826583761915392E+00
   0.5008678019491741E+00
   0.3974813958910826E+00
   0.4949836985838884E+00
   0.4954633152620452E+00
   0.4999405857183662E+00
   0.4931278798936026E+00
   0.4928657459897297E+00
   0.5292147910566313E+00
   0.4978495397417918E+00
   0.4988912943430472E+00
   0.5144753836083460E+00
   0.5237703397373115E+00
   0.4773525767907342E+00
   0.0000000000000000E+00
   0.0000000000000000E+00
   0.0000000000000000E+00
   0.0000000000000000E+00
   0.0000000000000000E+00
   0.0000000000000000E+00
   0.4805188791838728E+00
   0.4671692408731430E+00
   0.4945309425769577E+00
   0.4935846525529325E+00
   0.4961870325344628E+00
   0.4941111338299852E+00
   0.4954274506388615E+00
   0.4978883370911528E+00
   0.4989262296846446E+00
   0.4951470583413481E+00
   0.4948515365507737E+00
   0.4554043682735653E+00
   0.4051553591398594E+00
   0.5064682221606717E+00
   0.5530075382194795E+00
   0.5401379195516711E+00
   0.4967535378157478E+00
   0.4948896538225063E+00
   0.4885423211251045E+00
   0.4336731863926572E+00
   0.3256609956479012E+00
   0.4923125076153680E+00
   0.5461347116201454E+00
   0.5585957329053991E+00
   0.4833056394847845E+00
   0.5411048539013621E+00
   0.5969545474384201E+00
   0.5334296102586840E+00
   0.4985331178888882E+00
   0.4964017040415222E+00
   0.5828563807010734E+00
   0.5827371799794812E+00
   0.5007550502186167E+00
   0.3974052462384139E+00
   0.4948204656236898E+00
   0.4953120863528275E+00
   0.4997849683021448E+00
   0.4927249581279872E+00
   0.4926610560309129E+00
   0.5291189730918220E+00
   0.4978552851887558E+00
   0.4988797162330064E+00
   0.5144211893921933E+00
   0.5235647909791087E+00
   0.4770576366745063E+00
   0.0000000000000000E+00
   0.0000000000000000E+00
   0.0000000000000000E+00
   0.0000000000000000E+00
   0.0000000000000000E+00
   0.0000000000000000E+00
   0.4806945156559118E+00
   0.4673195910099127E+00
   0.4946115599173286E+00
   0.4936247132440861E+00
   0.4962094071132462E+00
   0.4941793100341518E+00
   0.4955236939033867E+00
   0.4979836923625846E+00
   0.4989857885157579E+00
   0.4951444705725452E+00
   0.4949145447892818E+00
   0.4554087803077517E+00
   0.4047216156770819E+00
   0.5063836210564571E+00
   0.5527585457800145E+00
   0.5399531380081695E+00
   0.4968230624244748E+00
   0.4949748610547642E+00
   0.4886639284799090E+00
   0.4332759703741430E+00
   0.3253179922824158E+00
   0.4924026851307415E+00
   0.5460615280363798E+00
   0.5580145583787226E+00
   0.4828084145963495E+00
   0.5410474923585820E+00
   0.5967589186374084E+00
   0.5334269303491856E+00
   0.4984851031066871E+00
   0.4964358404818993E+00
   0.5824795450162121E+00
   0.5824268318367545E+00
   0.5007404990666743E+00
   0.3971716410912483E+00
   0.4949030413997240E+00
   0.4953924867722165E+00
   0.4998206849100250E+00
   0.4928340430996032E+00
   0.4927250479459767E+00
   0.5290322445491699E+00
   0.4978495434479289E+00
   0.4988912928961015E+00
   0.5144752779726584E+00
   0.5237703496570839E+00
   0.4773532279227669E+00
   0.0000000000000000E+00
   0.0000000000000000E+00
   0.0000000000000000E+00
   0.0000000000000000E+00
   0.0000000000000000E+00
   0.0000000000000000E+00
   0.4805185789304974E+00
   0.4671695147946434E+00
   0.4945309038017405E+00
   0.4935846833412209E+00
   0.4961870405827034E+00
   0.4941111576228105E+00
   0.4954274678688175E+00
   0.4978883370510158E+00
   0.4989262251298418E+00
   0.4951470722244879E+00
   0.4948515530258304E+00
   0.4554036783982765E+00
   0.4051559893798596E+00
   0.5064682170611307E+00
   0.5530074784855522E+00
   0.5401378786345983E+00
   0.4967535514947194E+00
   0.4948896733511788E+00
   0.4885423340536185E+00
   0.4336731627867648E+00
   0.3256611716379066E+00
   0.4923125380729185E+00
   0.5461344452021896E+00
   0.5585959129209863E+00
   0.4833058770674646E+00
   0.5411048044366628E+00
   0.5969541796661632E+00
   0.5334295972980946E+00
   0.4985331346569113E+00
   0.4964017182742415E+00
   0.5828563296815479E+00
   0.5827370470366753E+00
   0.5007550627998791E+00
   0.3974050622746690E+00
   0.4948204814053992E+00
   0.4953121126153690E+00
   0.4997849874617972E+00
   0.4927252503633936E+00
   0.4926611209922088E+00
   0.5291189502440933E+00
   0.4978785242140706E+00
   0.4988779561835686E+00
   0.5143969331677335E+00
   0.5235834736848147E+00
   0.4771837261721107E+00
   0.0000000000000000E+00
   0.0000000000000000E+00
   0.0000000000000000E+00
   0.0000000000000000E+00
   0.0000000000000000E+00
   0.0000000000000000E+00
   0.4807088117056652E+00
   0.4673173230086510E+00
   0.4946031935223904E+00
   0.4936262258069627E+00
   0.4962096095682326E+00
   0.4941918608701772E+00
   0.4955588747384523E+00
   0.4980429981394714E+00
   0.4990540498295103E+00
   0.4952162565816144E+00
   0.4949282658171223E+00
   0.4554305490387494E+00
   0.4048557653233210E+00
   0.5064363604303435E+00
   0.5528310973373102E+00
   0.5400964072625506E+00
   0.4969016987316007E+00
   0.4950165667238224E+00
   0.4887487154290173E+00
   0.4334592945367746E+00
   0.3253248613919886E+00
   0.4924518297194916E+00
   0.5463250974194832E+00
   0.5582325135855309E+00
   0.4829584830450506E+00
   0.5412675830918512E+00
   0.5970112753413079E+00
   0.5336660015342691E+00
   0.4985854584266813E+00
   0.4965275678401450E+00
   0.5826595156920880E+00
   0.5826580492016248E+00
   0.5008678473681906E+00
   0.3974809345148495E+00
   0.4949837138180213E+00
   0.4954633531680335E+00
   0.4999406278964086E+00
   0.4931283254904358E+00
   0.4928658808417392E+00
   0.5292147572283080E+00
   0.4977061575909341E+00
   0.4991930627813392E+00
   0.5148124096101134E+00
   0.5220024467177474E+00
   0.4738778348875297E+00
   0.0000000000000000E+00
   0.0000000000000000E+00
   0.0000000000000000E+00
   0.0000000000000000E+00
   0.0000000000000000E+00
   0.0000000000000000E+00
   0.4793501570255313E+00
   0.4667638316495032E+00
   0.4942447942467179E+00
   0.4935703271221283E+00
   0.4961725940648889E+00
   0.4941029822805793E+00
   0.4954046307263805E+00
   0.4976843731140358E+00
   0.4986176815506049E+00
   0.4952807986204562E+00
   0.4948268304741749E+00
   0.4518327388405320E+00
   0.3969485236811957E+00
   0.5074385995485493E+00
   0.5527303177770371E+00
   0.5406451646835201E+00
   0.4966224271600760E+00
   0.4948223230068413E+00
   0.4884952228564104E+00
   0.4237238297883174E+00
   0.3186700237413176E+00
   0.4921834951814433E+00
   0.5409686103972319E+00
   0.5516501315005667E+00
   0.4724879462891771E+00
   0.5415330887999473E+00
   0.5917019088572387E+00
   0.5333947746461717E+00
   0.4992030707907821E+00
   0.4964218237968936E+00
   0.5788372837117255E+00
   0.5773663959358338E+00
   0.5014314441370455E+00
   0.3900569039265102E+00
   0.4947083928109586E+00
   0.4951978231433865E+00
   0.5000035238690861E+00
   0.4930650425309385E+00
   0.4929403749892902E+00
   0.5301091592120255E+00
SCALARS v double 1
LOOKUP_TABLE default
   0.0000000000000000E+00
   0.0000000000000000E+00
   0.0000000000000000E+00
   0.0000000000000000E+00
   0.0000000000000000E+00
   0.0000000000000000E+00
   0.0000000000000000E+00
   0.0000000000000000E+00
   0.0000000000000000E+00
   0.0000000000000000E+00
   0.0000000000000000E+00
   0.0000000000000000E+00
   0.0000000000000000E+00
   0.0000000000000000E+00
   0.0000000000000000E+00
   0.0000000000000000E+00
   0.0000000000000000E+00
   0.0000000000000000E+00
   0.0000000000000000E+00
   0.0000000000000000E+00
   0.0000000000000000E+00
   0.0000000000000000E+00
   0.0000000000000000E+00
   0.0000000000000000E+00
   0.0000000000000000E+00
   0.0000000000000000E+00
   0.0000000000000000E+00
   0.0000000000000000E+00
   0.0000000000000000E+00
   0.0000000000000000E+00
   0.0000000000000000E+00
   0.0000000000000000E+00
   0.0000000000000000E+00
   0.0000000000000000E+00
   0.0000000000000000E+00
   0.0000000000000000E+00
   0.0000000000000000E+00
   0.0000000000000000E+00
   0.0000000000000000E+00
   0.0000000000000000E+00
   0.0000000000000000E+00
   0.0000000000000000E+00
   0.0000000000000000E+00
   0.0000000000000000E+00
   0.0000000000000000E+00
   0.0000000000000000E+00
   0.0000000000000000E+00
   0.0000000000000000E+00
   0.0000000000000000E+00