# vtk DataFile Version 2.0
FUN3D:global_image_vtk
ASCII
DATASET UNSTRUCTURED_GRID
POINTS 357 double
    0.5000000000000000E+01    0.0000000000000000E+00    0.2500000000000000E+01
    0.5000000000000000E+01    0.0000000000000000E+00    0.1500000000000000E+01
    0.5000000000000000E+01    0.0000000000000000E+00    0.5000000000000000E+00
    0.5000000000000000E+01    0.0000000000000000E+00   -0.5000000000000000E+00
    0.5000000000000000E+01    0.0000000000000000E+00   -0.1500000000000000E+01
    0.5000000000000000E+01    0.0000000000000000E+00   -0.2500000000000000E+01
    0.4000000000000000E+01    0.0000000000000000E+00   -0.2500000000000000E+01
    0.3000000000000000E+01    0.0000000000000000E+00   -0.2500000000000000E+01
    0.2000000000000000E+01    0.0000000000000000E+00   -0.2500000000000000E+01
    0.9999999999999998E+00    0.0000000000000000E+00   -0.2500000000000000E+01
    0.0000000000000000E+00    0.0000000000000000E+00   -0.2500000000000000E+01
    0.0000000000000000E+00    0.0000000000000000E+00   -0.1500000000000000E+01
    0.0000000000000000E+00    0.0000000000000000E+00   -0.5000000000000000E+00
    0.0000000000000000E+00    0.0000000000000000E+00    0.5000000000000000E+00
    0.0000000000000000E+00    0.0000000000000000E+00    0.1500000000000000E+01
    0.0000000000000000E+00    0.0000000000000000E+00    0.2500000000000000E+01
    0.1000000000000000E+01    0.0000000000000000E+00    0.2500000000000000E+01
    0.2000000000000000E+01    0.0000000000000000E+00    0.2500000000000000E+01
    0.3000000000000000E+01    0.0000000000000000E+00    0.2500000000000000E+01
    0.4000000000000000E+01    0.0000000000000000E+00    0.2500000000000000E+01
    0.4251722454414101E+01    0.0000000000000000E+00    0.1683881519811194E+01
    0.6137332127746504E+00    0.0000000000000000E+00    0.1857879939968904E+01
    0.5055778377301318E+00    0.0000000000000000E+00   -0.1984051145810370E+01
    0.4417350419147004E+01    0.0000000000000000E+00   -0.1798049780917599E+01
    0.4277413896341787E+01    0.0000000000000000E+00    0.7849806286986014E+00
    0.4308949446070184E+01    0.0000000000000000E+00   -0.1030628045339280E+00
    0.3520446556869569E+01    0.0000000000000000E+00    0.1794049766750259E+00
    0.2591686382569276E+01    0.0000000000000000E+00    0.1667295362171870E+01
    0.1306794966956192E+01    0.0000000000000000E+00    0.1758138528035871E+01
    0.7010346092308208E+00    0.0000000000000000E+00    0.3961722714940701E-01
    0.2308484603929350E+01    0.0000000000000000E+00   -0.1644203313594280E+01
    0.2985842179142563E+01    0.0000000000000000E+00   -0.1902408850608312E+01
    0.7941286090671454E+00    0.0000000000000000E+00    0.1001771779085911E+01
    0.1020081380390785E+01    0.0000000000000000E+00   -0.1456956300840256E+01
    0.4356436167904402E+01    0.0000000000000000E+00   -0.1022551130153989E+01
    0.3730315927830617E+01    0.0000000000000000E+00   -0.1467697774434008E+01
    0.2084566650673803E+01    0.0000000000000000E+00   -0.2237556063676878E+00
    0.1900542590153839E+01    0.0000000000000000E+00   -0.1088755785946356E+01
    0.1324761360056765E+01    0.0000000000000000E+00   -0.5267852841860601E+00
    0.3681169751640886E+01    0.0000000000000000E+00    0.1040160628527462E+01
    0.3418876656618056E+01    0.0000000000000000E+00    0.1726168461930342E+01
    0.3751175205920376E+01    0.0000000000000000E+00   -0.6691259304140329E+00
    0.2889801815813465E+01    0.0000000000000000E+00   -0.8562661438192326E+00
    0.3017983410224082E+01    0.0000000000000000E+00    0.9231712184526961E+00
    0.1645821714894795E+01    0.0000000000000000E+00   -0.1837983080076178E+01
    0.1513509181197389E+01    0.0000000000000000E+00    0.1108836692078749E+01
    0.1919398798697967E+01    0.0000000000000000E+00    0.1580342757081665E+01
    0.2193859429875553E+01    0.0000000000000000E+00    0.7740897355665203E+00
    0.6091754699356742E+00    0.0000000000000000E+00   -0.7888248715753817E+00
    0.1441359832811715E+01    0.0000000000000000E+00    0.3490936567660688E+00
    0.2716632372076206E+01    0.0000000000000000E+00    0.1359772398136161E+00
    0.5000000000000000E+01   -0.8333333333333334E+00    0.2500000000000000E+01
    0.5000000000000000E+01   -0.8333333333333334E+00    0.1500000000000000E+01
    0.5000000000000000E+01   -0.8333333333333334E+00    0.5000000000000000E+00
    0.5000000000000000E+01   -0.8333333333333334E+00   -0.5000000000000000E+00
    0.5000000000000000E+01   -0.8333333333333334E+00   -0.1500000000000000E+01
    0.5000000000000000E+01   -0.8333333333333334E+00   -0.2500000000000000E+01
    0.4000000000000000E+01   -0.8333333333333334E+00   -0.2500000000000000E+01
    0.3000000000000000E+01   -0.8333333333333334E+00   -0.2500000000000000E+01
    0.2000000000000000E+01   -0.8333333333333334E+00   -0.2500000000000000E+01
    0.9999999999999998E+00   -0.8333333333333334E+00   -0.2500000000000000E+01
    0.0000000000000000E+00   -0.8333333333333334E+00   -0.2500000000000000E+01
    0.0000000000000000E+00   -0.8333333333333334E+00   -0.1500000000000000E+01
    0.0000000000000000E+00   -0.8333333333333334E+00   -0.5000000000000000E+00
    0.0000000000000000E+00   -0.8333333333333334E+00    0.5000000000000000E+00
    0.0000000000000000E+00   -0.8333333333333334E+00    0.1500000000000000E+01
    0.0000000000000000E+00   -0.8333333333333334E+00    0.2500000000000000E+01
    0.1000000000000000E+01   -0.8333333333333334E+00    0.2500000000000000E+01
    0.2000000000000000E+01   -0.8333333333333334E+00    0.2500000000000000E+01
    0.3000000000000000E+01   -0.8333333333333334E+00    0.2500000000000000E+01
    0.4000000000000000E+01   -0.8333333333333334E+00    0.2500000000000000E+01
    0.4251722454414101E+01   -0.8333333333333334E+00    0.1683881519811194E+01
    0.6137332127746504E+00   -0.8333333333333334E+00    0.1857879939968904E+01
    0.5055778377301318E+00   -0.8333333333333334E+00   -0.1984051145810370E+01
    0.4417350419147004E+01   -0.8333333333333334E+00   -0.1798049780917599E+01
    0.4277413896341787E+01   -0.8333333333333334E+00    0.7849806286986014E+00
    0.4308949446070184E+01   -0.8333333333333334E+00   -0.1030628045339280E+00
    0.3520446556869569E+01   -0.8333333333333334E+00    0.1794049766750259E+00
    0.2591686382569276E+01   -0.8333333333333334E+00    0.1667295362171870E+01
    0.1306794966956192E+01   -0.8333333333333334E+00    0.1758138528035871E+01
    0.7010346092308208E+00   -0.8333333333333334E+00    0.3961722714940701E-01
    0.2308484603929350E+01   -0.8333333333333334E+00   -0.1644203313594280E+01
    0.2985842179142563E+01   -0.8333333333333334E+00   -0.1902408850608312E+01
    0.7941286090671454E+00   -0.8333333333333334E+00    0.1001771779085911E+01
    0.1020081380390785E+01   -0.8333333333333334E+00   -0.1456956300840256E+01
    0.4356436167904402E+01   -0.8333333333333334E+00   -0.1022551130153989E+01
    0.3730315927830617E+01   -0.8333333333333334E+00   -0.1467697774434008E+01
    0.2084566650673803E+01   -0.8333333333333334E+00   -0.2237556063676878E+00
    0.1900542590153839E+01   -0.8333333333333334E+00   -0.1088755785946356E+01
    0.1324761360056765E+01   -0.8333333333333334E+00   -0.5267852841860601E+00
    0.3681169751640886E+01   -0.8333333333333334E+00    0.1040160628527462E+01
    0.3418876656618056E+01   -0.8333333333333334E+00    0.1726168461930342E+01
    0.3751175205920376E+01   -0.8333333333333334E+00   -0.6691259304140329E+00
    0.2889801815813465E+01   -0.8333333333333334E+00   -0.8562661438192326E+00
    0.3017983410224082E+01   -0.8333333333333334E+00    0.9231712184526961E+00
    0.1645821714894795E+01   -0.8333333333333334E+00   -0.1837983080076178E+01
    0.1513509181197389E+01   -0.8333333333333334E+00    0.1108836692078749E+01
    0.1919398798697967E+01   -0.8333333333333334E+00    0.1580342757081665E+01
    0.2193859429875553E+01   -0.8333333333333334E+00    0.7740897355665203E+00
    0.6091754699356742E+00   -0.8333333333333334E+00   -0.7888248715753817E+00
    0.1441359832811715E+01   -0.8333333333333334E+00    0.3490936567660688E+00
    0.2716632372076206E+01   -0.8333333333333334E+00    0.1359772398136161E+00
    0.5000000000000000E+01   -0.1666666666666667E+01    0.2500000000000000E+01
    0.5000000000000000E+01   -0.1666666666666667E+01    0.1500000000000000E+01
    0.5000000000000000E+01   -0.1666666666666667E+01    0.5000000000000000E+00
    0.5000000000000000E+01   -0.1666666666666667E+01   -0.5000000000000000E+00
    0.5000000000000000E+01   -0.1666666666666667E+01   -0.1500000000000000E+01
    0.5000000000000000E+01   -0.1666666666666667E+01   -0.2500000000000000E+01
    0.4000000000000000E+01   -0.1666666666666667E+01   -0.2500000000000000E+01
    0.3000000000000000E+01   -0.1666666666666667E+01   -0.2500000000000000E+01
    0.2000000000000000E+01   -0.1666666666666667E+01   -0.2500000000000000E+01
    0.9999999999999998E+00   -0.1666666666666667E+01   -0.2500000000000000E+01
    0.0000000000000000E+00   -0.1666666666666667E+01   -0.2500000000000000E+01
    0.0000000000000000E+00   -0.1666666666666667E+01   -0.1500000000000000E+01
    0.0000000000000000E+00   -0.1666666666666667E+01   -0.5000000000000000E+00
    0.0000000000000000E+00   -0.1666666666666667E+01    0.5000000000000000E+00
    0.0000000000000000E+00   -0.1666666666666667E+01    0.1500000000000000E+01
    0.0000000000000000E+00   -0.1666666666666667E+01    0.2500000000000000E+01
    0.1000000000000000E+01   -0.1666666666666667E+01    0.2500000000000000E+01
    0.2000000000000000E+01   -0.1666666666666667E+01    0.2500000000000000E+01
    0.3000000000000000E+01   -0.1666666666666667E+01    0.2500000000000000E+01
    0.4000000000000000E+01   -0.1666666666666667E+01    0.2500000000000000E+01
    0.4251722454414101E+01   -0.1666666666666667E+01    0.1683881519811194E+01
    0.6137332127746504E+00   -0.1666666666666667E+01    0.1857879939968904E+01
    0.5055778377301318E+00   -0.1666666666666667E+01   -0.1984051145810370E+01
[...]
POINT_DATA 357
SCALARS rho double 1
LOOKUP_TABLE default
   0.1002628982723372E+01
   0.1002310179904988E+01
   0.1009862544472534E+01
   0.1020738107106368E+01
   0.9775478968970994E+00
   0.8139563577238113E+00
   0.9783143486778026E+00
   0.9823321250508374E+00
   0.9727077996638076E+00
   0.9252158491543039E+00
   0.1509632528719409E+01
   0.1010827138764582E+01
   0.1039711894231166E+01
   0.1005512830371222E+01
   0.1007056139893744E+01
   0.1003254687097751E+01
   0.1004972902975166E+01
   0.1004836903163939E+01
   0.1003626687911537E+01
   0.1002418798640211E+01
   0.1002866226430801E+01
   0.1005072873185098E+01
   0.1102042333224399E+01
   0.9921675592397478E+00
   0.1003054163310616E+01
   0.1005857499713279E+01
   0.9966257392531414E+00
   0.1003473148395907E+01
   0.1004971168534783E+01
   0.1012770712290256E+01
   0.1011276609541482E+01
   0.9937260223769990E+00
   0.1006731678028311E+01
   0.1060499877462872E+01
   0.9929042338200118E+00
   0.9730463880832422E+00
   0.9968146378881181E+00
   0.9985147720916421E+00
   0.9966269134403674E+00
   0.1004189731298176E+01
   0.1002777843341241E+01
   0.1001758777472385E+01
   0.1005820676640133E+01
   0.1001490743145038E+01
   0.9688227675059315E+00
   0.1003908016429919E+01
   0.1003688744730702E+01
   0.1004723823060355E+01
   0.9993161778617197E+00
   0.1011796139452279E+01
   0.9945224277457800E+00
   0.1002571974957350E+01
   0.1002217051056526E+01
   0.1009774671318673E+01
   0.1022541786076686E+01
   0.9835241655472133E+00
   0.8150036497304288E+00
   0.9786876078624258E+00
   0.9831937316051979E+00
   0.9723576412671332E+00
   0.9228077392470569E+00
   0.1511191591175870E+01
   0.1007735419366232E+01
   0.1039425642459621E+01
   0.1005197153076109E+01
   0.1007005855959361E+01
   0.1003216648181309E+01
   0.1004907718799670E+01
   0.1004748252250582E+01
   0.1003500117788792E+01
   0.1002285693953742E+01
   0.1002804934225214E+01
   0.1005003094505060E+01
   0.1102714505078439E+01
   0.9960762269887857E+00
   0.1003035413744009E+01
   0.1006093017980286E+01
   0.9966584513480143E+00
   0.1003325701687661E+01
   0.1004857813172865E+01
   0.1012541094831038E+01
   0.1012861240177405E+01
   0.9960374675158450E+00
   0.1006528646350161E+01
   0.1060697744032683E+01
   0.9949738046423531E+00
   0.9749596977754319E+00
   0.9963143160426735E+00
   0.9984671387845455E+00
   0.9959836852694381E+00
   0.1004163384123351E+01
   0.1002646068076157E+01
   0.1002388050382898E+01
   0.1006000019312255E+01
   0.1001379925271378E+01
   0.9695874230556539E+00
   0.1003682665028695E+01
   0.1003510030953951E+01
   0.1004649286787327E+01
   0.9980997396728852E+00
   0.1011699272920650E+01
   0.9941771906235750E+00
   0.1002605863200056E+01
   0.1002238365563102E+01
   0.1009792540122801E+01
   0.1022549415966786E+01
   0.9835038473510860E+00
   0.8152291547099215E+00
   0.9788367261023603E+00
   0.9835115008274712E+00
   0.9725680505794403E+00
   0.9225228813430776E+00
   0.1511699972432187E+01
   0.1007722822302553E+01
   0.1039564948844883E+01
   0.1005267221840902E+01
   0.1007044990534510E+01
   0.1003240412960599E+01
   0.1004958817591395E+01
   0.1004823584113349E+01
   0.1003584766307398E+01
   0.1002363111609667E+01
   0.1002851450448302E+01
   0.1005055357307805E+01
   0.1103254938894041E+01
   0.9960135204510250E+00
   0.1003063495714730E+01
   0.1006103054764170E+01
   0.9967103301465488E+00
   0.1003415492281225E+01
   0.1004933406594376E+01
   0.1012685700393393E+01
   0.1013089991558052E+01
   0.9961403194062872E+00
   0.1006627242680186E+01
   0.1061114783727102E+01
   0.9950832698220604E+00
   0.9750578720914379E+00
   0.9964567610428334E+00
   0.9986839229932483E+00
   0.9961409899695983E+00
   0.1004218786179425E+01
   0.1002727655746356E+01
   0.1002431031729326E+01
   0.1006164584489139E+01
   0.1001464635842003E+01
   0.9698963840571692E+00
   0.1003792785316684E+01
   0.1003607719763211E+01
   0.1004753904171846E+01
   0.9983085057580789E+00
   0.1011840702394004E+01
   0.9942708798095545E+00
   0.1002596286651365E+01
   0.1002219843811288E+01
   0.1009783006917933E+01
   0.1022596266190763E+01
   0.9837292224244550E+00
   0.8152215790352659E+00
   0.9789813958159692E+00
   0.9835670842346858E+00
   0.9726231496259283E+00
   0.9224906913687233E+00
   0.1511587990663858E+01
   0.1007536452658054E+01
   0.1039450714651093E+01
   0.1005194658985857E+01
   0.1007008994588782E+01
   0.1003218629523376E+01
   0.1004917068382651E+01
   0.1004769020883040E+01
   0.1003532123294921E+01
   0.1002328874210245E+01
   0.1002835888276270E+01
   0.1005010675683658E+01
   0.1102976614816402E+01
   0.9962131762110121E+00
   0.1003066815709182E+01
   0.1006171203440300E+01
   0.9967541502339033E+00
   0.1003364547779852E+01
   0.1004875775112902E+01
   0.1012575990188503E+01
   0.1013128797420853E+01
   0.9961538565760242E+00
   0.1006556983182191E+01
   0.1061017378610603E+01
   0.9951816987796840E+00
   0.9751210940442783E+00
   0.9964228973942257E+00
   0.9986589073384196E+00
   0.9960751807103826E+00
   0.1004212281172532E+01
   0.1002690329243640E+01
   0.1002544265152301E+01
   0.1006206922613198E+01
   0.1001437677511528E+01
   0.9698000759831548E+00
   0.1003723951266411E+01
   0.1003550206367207E+01
   0.1004705793537126E+01
   0.9981734063527531E+00
   0.1011766744561779E+01
   0.9942578501487297E+00
   0.1002605848439406E+01
   0.1002238357066402E+01
   0.1009792591776677E+01
   0.1022549281039440E+01
   0.9835031883265071E+00
   0.8152273859341713E+00
   0.9788357214532493E+00
   0.9835105566861936E+00
   0.9725668215919953E+00
   0.9225222673222188E+00
   0.1511694666551530E+01
   0.1007723564332133E+01
   0.1039564508966901E+01
   0.1005267267435795E+01
   0.1007044954656583E+01
   0.1003240406450993E+01
   0.1004958795604839E+01
   0.1004823561528010E+01
   0.1003584755605324E+01
   0.1002363107601848E+01
   0.1002851433976729E+01
   0.1005055341373415E+01
   0.1103253127554302E+01
   0.9960128256848062E+00
   0.1003063494175259E+01
   0.1006103063356574E+01
   0.9967103593058974E+00
   0.1003415481244249E+01
   0.1004933391441548E+01
   0.1012685622002452E+01
   0.1013089369040602E+01
   0.9961394587466514E+00
   0.1006627219672047E+01
   0.1061114046588952E+01
   0.9950828444879838E+00
   0.9750572187711991E+00
   0.9964568341665383E+00
   0.9986837515473983E+00
   0.9961411529507234E+00
   0.1004218761128691E+01
   0.1002727643957503E+01
   0.1002430913184597E+01
   0.1006164437400847E+01
   0.1001464614410448E+01
   0.9698958939992570E+00
   0.1003792786222091E+01
   0.1003607716780554E+01
   0.1004753852807897E+01
   0.9983087347344560E+00
   0.1011840593530954E+01
   0.9942709435528168E+00
   0.1002571955529727E+01
   0.1002217033160231E+01
   0.1009774768811496E+01
   0.1022541559782445E+01
   0.9835228839084365E+00
   0.8149994550973954E+00
   0.9786850555314657E+00
   0.9831911347240857E+00
   0.9723548654494424E+00
   0.9228062917206317E+00
   0.1511181439680161E+01
   0.1007736863054306E+01
   0.1039424855040740E+01
   0.1005197247512987E+01
   0.1007005794819909E+01
   0.1003216636592657E+01
   0.1004907681274314E+01
   0.1004748208531670E+01
   0.1003500097804777E+01
   0.1002285686942424E+01
   0.1002804907865826E+01
   0.1005003067298824E+01
   0.1102710964141128E+01
   0.9960747771533047E+00
   0.1003035409229808E+01
   0.1006093050011077E+01
   0.9966585053105890E+00
   0.1003325684364971E+01
   0.1004857788604807E+01
   0.1012540942087199E+01
   0.1012860040785608E+01
   0.9960357069244460E+00
   0.1006528613832949E+01
   0.1060696359356535E+01
   0.9949730013080883E+00
   0.9749583953304521E+00
   0.9963144499050938E+00
   0.9984668117774302E+00
   0.9959840048277460E+00
   0.1004163343847047E+01
   0.1002646049925565E+01
   0.1002387821879829E+01
   0.1005999737110350E+01
   0.1001379890055306E+01
   0.9695864154101583E+00
   0.1003682672404164E+01
   0.1003510030010903E+01
   0.1004649186314440E+01
   0.9981002080802712E+00
   0.1011699067273060E+01
   0.9941772974217372E+00
   0.1002628961684104E+01
   0.1002310168355618E+01
   0.1009862666416092E+01
   0.1020737845355784E+01
   0.9775460852748534E+00
   0.8139497188750123E+00
   0.9783092244933359E+00
   0.9823268448133079E+00
   0.9727033993160926E+00
   0.9252134605445737E+00
   0.1509618539375222E+01
   0.1010829123192399E+01
   0.1039710825932654E+01
   0.1005512957341704E+01
   0.1007056062874359E+01
   0.1003254676039850E+01
   0.1004972853576557E+01
   0.1004836843494565E+01
   0.1003626664713200E+01
   0.1002418800638289E+01
   0.1002866193751899E+01
   0.1005072838777703E+01
   0.1102037392394245E+01
   0.9921652506791816E+00
   0.1003054164009287E+01
   0.1005857505284355E+01
   0.9966258184389357E+00
   0.1003473128011934E+01
   0.1004971133104557E+01
   0.1012770493294133E+01
   0.1011274927604730E+01
   0.9937235254273900E+00
   0.1006731639692301E+01
   0.1060497962830638E+01
   0.9929031908150087E+00
   0.9730446503635667E+00
   0.9968148172734994E+00
   0.9985142740760996E+00
   0.9966273417903206E+00
   0.1004189680733912E+01
   0.1002777826371781E+01
   0.1001758441156792E+01
   0.1005820272918902E+01
   0.1001490708228026E+01
   0.9688212933033055E+00
   0.1003908020544074E+01
   0.1003688742984091E+01
   0.1004723677873224E+01
   0.9993168522907685E+00
   0.1011795858442543E+01
   0.9945225714559509E+00
SCALARS u double 1
LOOKUP_TABLE default
   0.4977067949396087E+00
   0.4991934941681473E+00
   0.5148112522399130E+00
   0.5220107133789138E+00
   0.4738649545795494E+00
   0.0000000000000000E+00
   0.0000000000000000E+00
   0.0000000000000000E+00
   0.0000000000000000E+00
   0.0000000000000000E+00
   0.0000000000000000E+00
   0.4793493809679051E+00
   0.4667609270518622E+00
   0.4942425337146240E+00
   0.4935682006462300E+00
   0.4961728502080097E+00
   0.4940951687602864E+00
   0.4953895810717769E+00
   0.4976717311835154E+00
   0.4986347216953892E+00
   0.4952635503590099E+00
   0.4948234635143048E+00
   0.4518328335515513E+00
   0.3969453723474264E+00
   0.5074361759673540E+00
   0.5527323912927871E+00
   0.5406489015539084E+00
   0.4966099205669139E+00
   0.4948178202014725E+00
   0.4884913199341617E+00
   0.4237296188950594E+00
   0.3186778780607924E+00
   0.4921804577645843E+00
   0.5409678536765378E+00
   0.5516529576543293E+00
   0.4724903052250251E+00
   0.5415262435908351E+00
   0.5917011481851641E+00
   0.5333916494878749E+00
   0.4991914157100557E+00
   0.4963988157709937E+00
   0.5788347601282580E+00
   0.5773614285824507E+00
   0.5014319009051418E+00
   0.3900592968994770E+00
   0.4947067101752418E+00
   0.4951910275599372E+00
   0.5000044419560336E+00
   0.4930622027080847E+00
   0.4929367406657364E+00
   0.5301062554953717E+00
   0.4978928957645202E+00
   0.4988736220928599E+00
   0.5144013296037342E+00
   0.5235766206301553E+00
   0.4771961426600712E+00
   0.0000000000000000E+00
   0.0000000000000000E+00
   0.0000000000000000E+00
   0.0000000000000000E+00
   0.0000000000000000E+00
   0.0000000000000000E+00
   0.4807064719440671E+00
   0.4673124954673331E+00
   0.4946002853849639E+00
   0.4936233562764964E+00
   0.4962084560234513E+00
   0.4941840736569313E+00
   0.4955496938115381E+00
   0.4980456747225106E+00
   0.4991024959763415E+00
   0.4952035190042515E+00
   0.4949230269443650E+00
   0.4554294526435418E+00
   0.4048548591683333E+00
   0.5064265813852435E+00
   0.5528449405845870E+00
   0.5401030454780205E+00
   0.4968906025830222E+00
   0.4950110706383296E+00
   0.4887443654973413E+00
   0.4334572352396260E+00
   0.3253224109749270E+00
   0.4924481375575508E+00
   0.5463223000854266E+00
   0.5582302520319080E+00
   0.4829522084992361E+00
   0.5412604771714477E+00
   0.5970076583330045E+00
   0.5336622584560228E+00
   0.4985735715495723E+00
   0.4965093333096453E+00
   0.5826609945349860E+00
   0.5826525184864125E+00
   0.5008687839559207E+00
   0.3974787827885067E+00
   0.4949811615008998E+00
   0.4954570108581618E+00
   0.4999405792370107E+00
   0.4931254708967985E+00
   0.4928609572324327E+00
   0.5292133108476236E+00
   0.4978586450775290E+00
   0.4988885127287517E+00
   0.5144769830982688E+00
   0.5237719057018718E+00
   0.4773512686914810E+00
   0.0000000000000000E+00
   0.0000000000000000E+00
   0.0000000000000000E+00
   0.0000000000000000E+00
   0.0000000000000000E+00
   0.0000000000000000E+00
   0.4805165308514155E+00
   0.4671660473271416E+00
   0.4945284559177921E+00
   0.4935822570178218E+00
   0.4961866254346129E+00
   0.4941034492263040E+00
   0.4954139663839499E+00
   0.4978823843548713E+00
   0.4989587661901403E+00
   0.4951319321876577E+00
   0.4948473746884955E+00
   0.4554023274248657E+00
   0.4051519409222223E+00
   0.5064619970696240E+00
   0.5530158860874099E+00
   0.5401419221701551E+00
   0.4967415285287796E+00
   0.4948845837905624E+00
   0.4885385465341076E+00
   0.4336744681313507E+00
   0.3256621597953146E+00
   0.4923092277661390E+00
   0.5461324057689371E+00
   0.5585947740602200E+00
   0.4833014909181792E+00
   0.5410975093947077E+00
   0.5969517485111208E+00
   0.5334265225117822E+00
   0.4985215380429703E+00
   0.4963805223768746E+00
   0.5828547415460335E+00
   0.5827308082569767E+00
   0.5007552939029772E+00
   0.3974047682833819E+00
   0.4948180166195671E+00
   0.4953051313430176E+00
   0.4997847575100609E+00
   0.4927228304782247E+00
   0.4926569747373591E+00
   0.5291155371290206E+00
   0.4978622735017211E+00
   0.4988776830360336E+00
   0.5144232610695393E+00
   0.5235628234990329E+00
   0.4770638137756114E+00
   0.0000000000000000E+00
   0.0000000000000000E+00
   0.0000000000000000E+00
   0.0000000000000000E+00
   0.0000000000000000E+00
   0.0000000000000000E+00
   0.4806919991601092E+00
   0.4673161001921702E+00
   0.4946087988674421E+00
   0.4936222092050299E+00
   0.4962085699772177E+00
   0.4941720676388736E+00
   0.4955136389568971E+00
   0.4979806561947749E+00
   0.4990200603499768E+00
   0.4951291255950604E+00
   0.4949095725984563E+00
   0.4554066233697444E+00
   0.4047257522400308E+00
   0.5063783386075787E+00
   0.5527659677893194E+00
   0.5399599122158324E+00
   0.4968122966780016E+00
   0.4949699277615391E+00
   0.4886597026441433E+00
   0.4332779541376303E+00
   0.3253230111119166E+00
   0.4923991940612361E+00
   0.5460586513056033E+00
   0.5580160011152424E+00
   0.4828096317429510E+00
   0.5410406220146435E+00
   0.5967557302911826E+00
   0.5334232255443657E+00
   0.4984740951542069E+00
   0.4964161487235452E+00
   0.5824789812050631E+00
   0.5824212244537346E+00
   0.5007420881499286E+00
   0.3971710685165601E+00
   0.4949008578768830E+00
   0.4953863568833905E+00
   0.4998212969352501E+00
   0.4928315774769102E+00
   0.4927207267167853E+00
   0.5290308566100533E+00
   0.4978586489440522E+00
   0.4988885112283432E+00
   0.5144768773367527E+00
   0.5237719158469537E+00
   0.4773519191056405E+00
   0.0000000000000000E+00
   0.0000000000000000E+00
   0.0000000000000000E+00
   0.0000000000000000E+00
   0.0000000000000000E+00
   0.0000000000000000E+00
   0.4805162307967337E+00
   0.4671663211791241E+00
   0.4945284173011757E+00
   0.4935822878067210E+00
   0.4961866338143186E+00
   0.4941034731565976E+00
   0.4954139822906175E+00
   0.4978823825470691E+00
   0.4989587604015496E+00
   0.4951319458427682E+00
   0.4948473915820115E+00
   0.4554016375838281E+00
   0.4051525713722462E+00
   0.5064619916193946E+00
   0.5530158257891271E+00
   0.5401418802475155E+00
   0.4967415408269779E+00
   0.4948846031399311E+00
   0.4885385596206608E+00
   0.4336744444411473E+00
   0.3256623359553570E+00
   0.4923092582387092E+00
   0.5461321393020055E+00
   0.5585949535760579E+00
   0.4833017287930925E+00
   0.5410974600614290E+00
   0.5969513807561205E+00
   0.5334265094729408E+00
   0.4985215540389432E+00
   0.4963805354305789E+00
   0.5828546902814195E+00
   0.5827306752528211E+00
   0.5007553052974730E+00
   0.3974045841898272E+00
   0.4948180322909045E+00
   0.4953051567888979E+00
   0.4997847762696648E+00
   0.4927231225501340E+00
   0.4926570399293955E+00
   0.5291155141302685E+00
   0.4978929108141591E+00
   0.4988736241311041E+00
   0.5144011131620446E+00
   0.5235765210778949E+00
   0.4771975122888665E+00
   0.0000000000000000E+00
   0.0000000000000000E+00
   0.0000000000000000E+00
   0.0000000000000000E+00
   0.0000000000000000E+00
   0.0000000000000000E+00
   0.4807058229665880E+00
   0.4673130034987457E+00
   0.4946001962675710E+00
   0.4936234124641581E+00
   0.4962084709012764E+00
   0.4941841154600674E+00
   0.4955497282333836E+00
   0.4980456757839416E+00
   0.4991024959948292E+00
   0.4952035472816201E+00
   0.4949230558240201E+00
   0.4554280803778204E+00
   0.4048563475231918E+00
   0.5064265573318435E+00
   0.5528447433056156E+00
   0.5401029253429597E+00
   0.4968906257860088E+00
   0.4950111025051048E+00
   0.4887444140804527E+00
   0.4334571518226346E+00
   0.3253227354716620E+00
   0.4924481770837658E+00
   0.5463217096084612E+00
   0.5582304918222635E+00
   0.4829526155998374E+00
   0.5412603405269233E+00
   0.5970069152479984E+00
   0.5336622066840578E+00
   0.4985736043346664E+00
   0.4965093468593628E+00
   0.5826609081663302E+00
   0.5826521913109333E+00
   0.5008688301126704E+00
   0.3974783209865773E+00
   0.4949811766115932E+00
   0.4954570486222456E+00
   0.4999406216677768E+00
   0.4931259161956739E+00
   0.4928610922444482E+00
   0.5292132771366973E+00
   0.4977068192076774E+00
   0.4991935170328246E+00
   0.5148110645863079E+00
   0.5220105829823432E+00
   0.4738669069417829E+00
   0.0000000000000000E+00
   0.0000000000000000E+00
   0.0000000000000000E+00
   0.0000000000000000E+00
   0.0000000000000000E+00
   0.0000000000000000E+00
   0.4793484417707459E+00
   0.4667616576176687E+00
   0.4942423897219377E+00
   0.4935682730002466E+00
   0.4961728684099999E+00
   0.4940952254702651E+00
   0.4953896371198112E+00
   0.4976717245629766E+00
   0.4986347085697265E+00
   0.4952636117524138E+00
   0.4948235042339557E+00
   0.4518308872921606E+00
   0.3969474741735928E+00
   0.5074362515017312E+00
   0.5527322666530766E+00
   0.5406488894209763E+00
   0.4966099610978590E+00
   0.4948178737952493E+00
   0.4884914619492794E+00
   0.4237293448982051E+00
   0.3186781710533616E+00
   0.4921805009641360E+00
   0.5409669588885673E+00
   0.5516532460889323E+00
   0.4724907354171632E+00
   0.5415262349870391E+00
   0.5917001776343728E+00
   0.5333917038186028E+00
   0.4991915386279573E+00
   0.4963988329290430E+00
   0.5788347320067420E+00
   0.5773610077101851E+00
   0.5014320552763080E+00
   0.3900585237846024E+00
   0.4947067438903472E+00
   0.4951910895678753E+00
   0.5000045788032800E+00
   0.4930628350143054E+00
   0.4929370077957227E+00
   0.5301064202522476E+00
SCALARS v double 1
LOOKUP_TABLE default
   0.0000000000000000E+00
   0.0000000000000000E+00
   0.0000000000000000E+00
   0.0000000000000000E+00
   0.0000000000000000E+00
   0.0000000000000000E+00
   0.0000000000000000E+00
   0.0000000000000000E+00
   0.0000000000000000E+00
   0.0000000000000000E+00
   0.0000000000000000E+00
   0.0000000000000000E+00
   0.0000000000000000E+00
   0.0000000000000000E+00
   0.0000000000000000E+00
   0.0000000000000000E+00
   0.0000000000000000E+00
   0.0000000000000000E+00
   0.0000000000000000E+00
   0.0000000000000000E+00
   0.0000000000000000E+00
   0.0000000000000000E+00
   0.0000000000000000E+00
   0.0000000000000000E+00
   0.0000000000000000E+00
   0.0000000000000000E+00
   0.0000000000000000E+00
   0.0000000000000000E+00
   0.0000000000000000E+00
   0.0000000000000000E+00
   0.0000000000000000E+00
   0.0000000000000000E+00
   0.0000000000000000E+00
   0.0000000000000000E+00
   0.0000000000000000E+00
   0.0000000000000000E+00
   0.0000000000000000E+00
   0.0000000000000000E+00
   0.0000000000000000E+00
   0.0000000000000000E+00
   0.0000000000000000E+00
   0.0000000000000000E+00
   0.0000000000000000E+00
   0.0000000000000000E+00
   0.0000000000000000E+00
   0.0000000000000000E+00
   0.0000000000000000E+00
   0.0000000000000000E+00
   0.0000000000000000E+00