# vtk DataFile Version 2.0
FUN3D:global_image_vtk
ASCII
DATASET UNSTRUCTURED_GRID
POINTS 357 double
    0.5000000000000000E+01    0.0000000000000000E+00    0.2500000000000000E+01
    0.5000000000000000E+01    0.0000000000000000E+00    0.1500000000000000E+01
    0.5000000000000000E+01    0.0000000000000000E+00    0.5000000000000000E+00
    0.5000000000000000E+01    0.0000000000000000E+00   -0.5000000000000000E+00
    0.5000000000000000E+01    0.0000000000000000E+00   -0.1500000000000000E+01
    0.5000000000000000E+01    0.0000000000000000E+00   -0.2500000000000000E+01
    0.4000000000000000E+01    0.0000000000000000E+00   -0.2500000000000000E+01
    0.3000000000000000E+01    0.0000000000000000E+00   -0.2500000000000000E+01
    0.2000000000000000E+01    0.0000000000000000E+00   -0.2500000000000000E+01
    0.9999999999999998E+00    0.0000000000000000E+00   -0.2500000000000000E+01
    0.0000000000000000E+00    0.0000000000000000E+00   -0.2500000000000000E+01
    0.0000000000000000E+00    0.0000000000000000E+00   -0.1500000000000000E+01
    0.0000000000000000E+00    0.0000000000000000E+00   -0.5000000000000000E+00
    0.0000000000000000E+00    0.0000000000000000E+00    0.5000000000000000E+00
    0.0000000000000000E+00    0.0000000000000000E+00    0.1500000000000000E+01
    0.0000000000000000E+00    0.0000000000000000E+00    0.2500000000000000E+01
    0.1000000000000000E+01    0.0000000000000000E+00    0.2500000000000000E+01
    0.2000000000000000E+01    0.0000000000000000E+00    0.2500000000000000E+01
    0.3000000000000000E+01    0.0000000000000000E+00    0.2500000000000000E+01
    0.4000000000000000E+01    0.0000000000000000E+00    0.2500000000000000E+01
    0.4251722454414101E+01    0.0000000000000000E+00    0.1683881519811194E+01
    0.6137332127746504E+00    0.0000000000000000E+00    0.1857879939968904E+01
    0.5055778377301318E+00    0.0000000000000000E+00   -0.1984051145810370E+01
    0.4417350419147004E+01    0.0000000000000000E+00   -0.1798049780917599E+01
    0.4277413896341787E+01    0.0000000000000000E+00    0.7849806286986014E+00
    0.4308949446070184E+01    0.0000000000000000E+00   -0.1030628045339280E+00
    0.3520446556869569E+01    0.0000000000000000E+00    0.1794049766750259E+00
    0.2591686382569276E+01    0.0000000000000000E+00    0.1667295362171870E+01
    0.1306794966956192E+01    0.0000000000000000E+00    0.1758138528035871E+01
    0.7010346092308208E+00    0.0000000000000000E+00    0.3961722714940701E-01
    0.2308484603929350E+01    0.0000000000000000E+00   -0.1644203313594280E+01
    0.2985842179142563E+01    0.0000000000000000E+00   -0.1902408850608312E+01
    0.7941286090671454E+00    0.0000000000000000E+00    0.1001771779085911E+01
    0.1020081380390785E+01    0.0000000000000000E+00   -0.1456956300840256E+01
    0.4356436167904402E+01    0.0000000000000000E+00   -0.1022551130153989E+01
    0.3730315927830617E+01    0.0000000000000000E+00   -0.1467697774434008E+01
    0.2084566650673803E+01    0.0000000000000000E+00   -0.2237556063676878E+00
    0.1900542590153839E+01    0.0000000000000000E+00   -0.1088755785946356E+01
    0.1324761360056765E+01    0.0000000000000000E+00   -0.5267852841860601E+00
    0.3681169751640886E+01    0.0000000000000000E+00    0.1040160628527462E+01
    0.3418876656618056E+01    0.0000000000000000E+00    0.1726168461930342E+01
    0.3751175205920376E+01    0.0000000000000000E+00   -0.6691259304140329E+00
    0.2889801815813465E+01    0.0000000000000000E+00   -0.8562661438192326E+00
    0.3017983410224082E+01    0.0000000000000000E+00    0.9231712184526961E+00
    0.1645821714894795E+01    0.0000000000000000E+00   -0.1837983080076178E+01
    0.1513509181197389E+01    0.0000000000000000E+00    0.1108836692078749E+01
    0.1919398798697967E+01    0.0000000000000000E+00    0.1580342757081665E+01
    0.2193859429875553E+01    0.0000000000000000E+00    0.7740897355665203E+00
    0.6091754699356742E+00    0.0000000000000000E+00   -0.7888248715753817E+00
    0.1441359832811715E+01    0.0000000000000000E+00    0.3490936567660688E+00
    0.2716632372076206E+01    0.0000000000000000E+00    0.1359772398136161E+00
    0.5000000000000000E+01   -0.8333333333333334E+00    0.2500000000000000E+01
    0.5000000000000000E+01   -0.8333333333333334E+00    0.1500000000000000E+01
    0.5000000000000000E+01   -0.8333333333333334E+00    0.5000000000000000E+00
    0.5000000000000000E+01   -0.8333333333333334E+00   -0.5000000000000000E+00
    0.5000000000000000E+01   -0.8333333333333334E+00   -0.1500000000000000E+01
    0.5000000000000000E+01   -0.8333333333333334E+00   -0.2500000000000000E+01
    0.4000000000000000E+01   -0.8333333333333334E+00   -0.2500000000000000E+01
    0.3000000000000000E+01   -0.8333333333333334E+00   -0.2500000000000000E+01
    0.2000000000000000E+01   -0.8333333333333334E+00   -0.2500000000000000E+01
    0.9999999999999998E+00   -0.8333333333333334E+00   -0.2500000000000000E+01
    0.0000000000000000E+00   -0.8333333333333334E+00   -0.2500000000000000E+01
    0.0000000000000000E+00   -0.8333333333333334E+00   -0.1500000000000000E+01
    0.0000000000000000E+00   -0.8333333333333334E+00   -0.5000000000000000E+00
    0.0000000000000000E+00   -0.8333333333333334E+00    0.5000000000000000E+00
    0.0000000000000000E+00   -0.8333333333333334E+00    0.1500000000000000E+01
    0.0000000000000000E+00   -0.8333333333333334E+00    0.2500000000000000E+01
    0.1000000000000000E+01   -0.8333333333333334E+00    0.2500000000000000E+01
    0.2000000000000000E+01   -0.8333333333333334E+00    0.2500000000000000E+01
    0.3000000000000000E+01   -0.8333333333333334E+00    0.2500000000000000E+01
    0.4000000000000000E+01   -0.8333333333333334E+00    0.2500000000000000E+01
    0.4251722454414101E+01   -0.8333333333333334E+00    0.1683881519811194E+01
    0.6137332127746504E+00   -0.8333333333333334E+00    0.1857879939968904E+01
    0.5055778377301318E+00   -0.8333333333333334E+00   -0.1984051145810370E+01
    0.4417350419147004E+01   -0.8333333333333334E+00   -0.1798049780917599E+01
    0.4277413896341787E+01   -0.8333333333333334E+00    0.7849806286986014E+00
    0.4308949446070184E+01   -0.8333333333333334E+00   -0.1030628045339280E+00
    0.3520446556869569E+01   -0.8333333333333334E+00    0.1794049766750259E+00
    0.2591686382569276E+01   -0.8333333333333334E+00    0.1667295362171870E+01
    0.1306794966956192E+01   -0.8333333333333334E+00    0.1758138528035871E+01
    0.7010346092308208E+00   -0.8333333333333334E+00    0.3961722714940701E-01
    0.2308484603929350E+01   -0.8333333333333334E+00   -0.1644203313594280E+01
    0.2985842179142563E+01   -0.8333333333333334E+00   -0.1902408850608312E+01
    0.7941286090671454E+00   -0.8333333333333334E+00    0.1001771779085911E+01
    0.1020081380390785E+01   -0.8333333333333334E+00   -0.1456956300840256E+01
    0.4356436167904402E+01   -0.8333333333333334E+00   -0.1022551130153989E+01
    0.3730315927830617E+01   -0.8333333333333334E+00   -0.1467697774434008E+01
    0.2084566650673803E+01   -0.8333333333333334E+00   -0.2237556063676878E+00
    0.1900542590153839E+01   -0.8333333333333334E+00   -0.1088755785946356E+01
    0.1324761360056765E+01   -0.8333333333333334E+00   -0.5267852841860601E+00
    0.3681169751640886E+01   -0.8333333333333334E+00    0.1040160628527462E+01
    0.3418876656618056E+01   -0.8333333333333334E+00    0.1726168461930342E+01
    0.3751175205920376E+01   -0.8333333333333334E+00   -0.6691259304140329E+00
    0.2889801815813465E+01   -0.8333333333333334E+00   -0.8562661438192326E+00
    0.3017983410224082E+01   -0.8333333333333334E+00    0.9231712184526961E+00
    0.1645821714894795E+01   -0.8333333333333334E+00   -0.1837983080076178E+01
    0.1513509181197389E+01   -0.8333333333333334E+00    0.1108836692078749E+01
    0.1919398798697967E+01   -0.8333333333333334E+00    0.1580342757081665E+01
    0.2193859429875553E+01   -0.8333333333333334E+00    0.7740897355665203E+00
    0.6091754699356742E+00   -0.8333333333333334E+00   -0.7888248715753817E+00
    0.1441359832811715E+01   -0.8333333333333334E+00    0.3490936567660688E+00
    0.2716632372076206E+01   -0.8333333333333334E+00    0.1359772398136161E+00
    0.5000000000000000E+01   -0.1666666666666667E+01    0.2500000000000000E+01
    0.5000000000000000E+01   -0.1666666666666667E+01    0.1500000000000000E+01
    0.5000000000000000E+01   -0.1666666666666667E+01    0.5000000000000000E+00
    0.5000000000000000E+01   -0.1666666666666667E+01   -0.5000000000000000E+00
    0.5000000000000000E+01   -0.1666666666666667E+01   -0.1500000000000000E+01
    0.5000000000000000E+01   -0.1666666666666667E+01   -0.2500000000000000E+01
    0.4000000000000000E+01   -0.1666666666666667E+01   -0.2500000000000000E+01
    0.3000000000000000E+01   -0.1666666666666667E+01   -0.2500000000000000E+01
    0.2000000000000000E+01   -0.1666666666666667E+01   -0.2500000000000000E+01
    0.9999999999999998E+00   -0.1666666666666667E+01   -0.2500000000000000E+01
    0.0000000000000000E+00   -0.1666666666666667E+01   -0.2500000000000000E+01
    0.0000000000000000E+00   -0.1666666666666667E+01   -0.1500000000000000E+01
    0.0000000000000000E+00   -0.1666666666666667E+01   -0.5000000000000000E+00
    0.0000000000000000E+00   -0.1666666666666667E+01    0.5000000000000000E+00
    0.0000000000000000E+00   -0.1666666666666667E+01    0.1500000000000000E+01
    0.0000000000000000E+00   -0.1666666666666667E+01    0.2500000000000000E+01
    0.1000000000000000E+01   -0.1666666666666667E+01    0.2500000000000000E+01
    0.2000000000000000E+01   -0.1666666666666667E+01    0.2500000000000000E+01
    0.3000000000000000E+01   -0.1666666666666667E+01    0.2500000000000000E+01
    0.4000000000000000E+01   -0.1666666666666667E+01    0.2500000000000000E+01
    0.4251722454414101E+01   -0.1666666666666667E+01    0.1683881519811194E+01
    0.6137332127746504E+00   -0.1666666666666667E+01    0.1857879939968904E+01
    0.5055778377301318E+00   -0.1666666666666667E+01   -0.1984051145810370E+01
[...]
POINT_DATA 357
SCALARS rho double 1
LOOKUP_TABLE default
   0.1002616534365848E+01
   0.1002319771026662E+01
   0.1009860574095700E+01
   0.1020740062371344E+01
   0.9775329095024990E+00
   0.8139500555904213E+00
   0.9783098430257913E+00
   0.9823271207345486E+00
   0.9727028495256640E+00
   0.9252129347668727E+00
   0.1509630133604269E+01
   0.1010825917187729E+01
   0.1039709382332469E+01
   0.1005510735431054E+01
   0.1007055487928982E+01
   0.1003253700680098E+01
   0.1004968948514564E+01
   0.1004831738722017E+01
   0.1003620736743758E+01
   0.1002400064297359E+01
   0.1002867942766158E+01
   0.1005068842915404E+01
   0.1102038817805575E+01
   0.9921454994794251E+00
   0.1003055132966153E+01
   0.1005853953633714E+01
   0.9966202690646443E+00
   0.1003468925439382E+01
   0.1004968357845379E+01
   0.1012767581692935E+01
   0.1011275393276051E+01
   0.9937132314244413E+00
   0.1006727369229307E+01
   0.1060497783989669E+01
   0.9929064596836119E+00
   0.9730384927740482E+00
   0.9968107843179981E+00
   0.9985098066475646E+00
   0.9966247918794483E+00
   0.1004188914761485E+01
   0.1002777811146108E+01
   0.1001758457529274E+01
   0.1005821037355940E+01
   0.1001485809694500E+01
   0.9688192936099249E+00
   0.1003904249052909E+01
   0.1003683599261252E+01
   0.1004719586948045E+01
   0.9993127973117395E+00
   0.1011793674633321E+01
   0.9945187830574939E+00
   0.1002560226654856E+01
   0.1002223552511507E+01
   0.1009778068469110E+01
   0.1022529591071852E+01
   0.9835386959443859E+00
   0.8150073476777786E+00
   0.9786906239441915E+00
   0.9831910739887425E+00
   0.9723512629276188E+00
   0.9228032844521342E+00
   0.1511188051921849E+01
   0.1007732704058467E+01
   0.1039420603788124E+01
   0.1005194055154379E+01
   0.1007003964679219E+01
   0.1003215888942279E+01
   0.1004901100625977E+01
   0.1004744454654037E+01
   0.1003495656525079E+01
   0.1002281226354396E+01
   0.1002803435668898E+01
   0.1004999692955781E+01
   0.1102712277096295E+01
   0.9960952981394740E+00
   0.1003038668707247E+01
   0.1006091886307143E+01
   0.9966564403030419E+00
   0.1003321895032059E+01
   0.1004855729308807E+01
   0.1012538684943598E+01
   0.1012856974992040E+01
   0.9960396735039564E+00
   0.1006523636221033E+01
   0.1060693694965996E+01
   0.9949685224637976E+00
   0.9749597434241297E+00
   0.9963116681486118E+00
   0.9984636409208949E+00
   0.9959791313937785E+00
   0.1004160871322184E+01
   0.1002646728553810E+01
   0.1002385741771921E+01
   0.1005996143911681E+01
   0.1001376546907933E+01
   0.9695863890436415E+00
   0.1003677996189631E+01
   0.1003506439131220E+01
   0.1004644674492904E+01
   0.9980973986019375E+00
   0.1011697096134166E+01
   0.9941759356681510E+00
   0.1002594850702522E+01
   0.1002245627788528E+01
   0.1009792689614851E+01
   0.1022544581306568E+01
   0.9835013640279939E+00
   0.8152280762146046E+00
   0.9788351964774216E+00
   0.9835076885715912E+00
   0.9725623420891344E+00
   0.9225193417429409E+00
   0.1511696980524894E+01
   0.1007720887916816E+01
   0.1039561249280585E+01
   0.1005264798409278E+01
   0.1007043803472692E+01
   0.1003239423497894E+01
   0.1004953797435803E+01
   0.1004818651475364E+01
   0.1003578554007227E+01
   0.1002350752445423E+01
   0.1002851431512432E+01
   0.1005051720518780E+01
   0.1103252342715954E+01
   0.9960108438351826E+00
   0.1003064714031980E+01
   0.1006100754237754E+01
   0.9967059151559550E+00
   0.1003411441657610E+01
   0.1004930934850204E+01
   0.1012683043109223E+01
   0.1013087139090920E+01
   0.9961349878462867E+00
   0.1006622562593496E+01
   0.1061111757187388E+01
   0.9950806780772748E+00
   0.9750532407511515E+00
   0.9964534055284274E+00
   0.9986796393771424E+00
   0.9961376690257592E+00
   0.1004217155134086E+01
   0.1002727766643066E+01
   0.1002429364475842E+01
   0.1006162607900720E+01
   0.1001460149509933E+01
   0.9698944589683151E+00
   0.1003788467351962E+01
   0.1003603126973374E+01
   0.1004749192368952E+01
   0.9983058319326540E+00
   0.1011838374163286E+01
   0.9942681086929415E+00
   0.1002583132489041E+01
   0.1002228114285378E+01
   0.1009784785722821E+01
   0.1022589612642338E+01
   0.9837328900050677E+00
   0.8152198752507313E+00
   0.9789813060736612E+00
   0.9835630951038180E+00
   0.9726177883817949E+00
   0.9224868743316126E+00
   0.1511584795812960E+01
   0.1007534306329901E+01
   0.1039446574466224E+01
   0.1005191862347672E+01
   0.1007007584728720E+01
   0.1003217921038215E+01
   0.1004911237339787E+01
   0.1004764940175574E+01
   0.1003527886777546E+01
   0.1002318072780417E+01
   0.1002836120507693E+01
   0.1005006917439123E+01
   0.1102973739035391E+01
   0.9962168982728908E+00
   0.1003069733123165E+01
   0.1006169295184308E+01
   0.9967506524708187E+00
   0.1003360654857019E+01
   0.1004873478997658E+01
   0.1012573228158226E+01
   0.1013125726658840E+01
   0.9961503397265066E+00
   0.1006552185643184E+01
   0.1061014086660985E+01
   0.9951796618433946E+00
   0.9751184084133815E+00
   0.9964199402220545E+00
   0.9986548562055590E+00
   0.9960715566744817E+00
   0.1004210947704042E+01
   0.1002690947263827E+01
   0.1002543340865779E+01
   0.1006205194947819E+01
   0.1001433901482954E+01
   0.9697980263165460E+00
   0.1003719743444026E+01
   0.1003546139741121E+01
   0.1004701496159901E+01
   0.9981705381187896E+00
   0.1011764584003779E+01
   0.9942560232082130E+00
   0.1002594836546234E+01
   0.1002245619323237E+01
   0.1009792741376224E+01
   0.1022544446930694E+01
   0.9835007038806920E+00
   0.8152263069326008E+00
   0.9788341911849852E+00
   0.9835067441987616E+00
   0.9725611130647841E+00
   0.9225187278241583E+00
   0.1511691674467102E+01
   0.1007721630148516E+01
   0.1039560809412132E+01
   0.1005264844225957E+01
   0.1007043767624854E+01
   0.1003239416872519E+01
   0.1004953775916844E+01
   0.1004818628496831E+01
   0.1003578542343744E+01
   0.1002350747945479E+01
   0.1002851415045310E+01
   0.1005051704550520E+01
   0.1103250531177275E+01
   0.9960101478707820E+00
   0.1003064712366323E+01
   0.1006100763014425E+01
   0.9967059442688310E+00
   0.1003411430623787E+01
   0.1004930919445041E+01
   0.1012682964563138E+01
   0.1013086516628438E+01
   0.9961341266516917E+00
   0.1006622539662484E+01
   0.1061111019973929E+01
   0.9950802525993743E+00
   0.9750525870782608E+00
   0.9964534785756661E+00
   0.9986794680337393E+00
   0.9961378321962792E+00
   0.1004217130336507E+01
   0.1002727754681224E+01
   0.1002429245855127E+01
   0.1006162460793976E+01
   0.1001460127990943E+01
   0.9698939687536867E+00
   0.1003788468302104E+01
   0.1003603123825011E+01
   0.1004749140706076E+01
   0.9983060609484214E+00
   0.1011838264940943E+01
   0.9942681721272423E+00
   0.1002560206909084E+01
   0.1002223535089222E+01
   0.1009778165684006E+01
   0.1022529364989937E+01
   0.9835374149473723E+00
   0.8150031541091100E+00
   0.9786880715116002E+00
   0.9831884767491369E+00
   0.9723484867975050E+00
   0.9228018369306483E+00
   0.1511177899851392E+01
   0.1007734148133867E+01
   0.1039419816166453E+01
   0.1005194149581379E+01
   0.1007003903644882E+01
   0.1003215877294915E+01
   0.1004901063753343E+01
   0.1004744410560287E+01
   0.1003495636912426E+01
   0.1002281218629484E+01
   0.1002803409682905E+01
   0.1004999665780943E+01
   0.1102708735652704E+01
   0.9960938485384260E+00
   0.1003038664131657E+01
   0.1006091918088418E+01
   0.9966564940678664E+00
   0.1003321877563653E+01
   0.1004855704320614E+01
   0.1012538532070532E+01
   0.1012855775388542E+01
   0.9960379131732221E+00
   0.1006523603830634E+01
   0.1060692309986217E+01
   0.9949677195837165E+00
   0.9749584413206817E+00
   0.9963118019551532E+00
   0.9984633137600413E+00
   0.9959794511790654E+00
   0.1004160831067483E+01
   0.1002646710305895E+01
   0.1002385513127098E+01
   0.1005995861604379E+01
   0.1001376511682331E+01
   0.9695853810172564E+00
   0.1003678003775356E+01
   0.1003506438089067E+01
   0.1004644574184481E+01
   0.9980978670648748E+00
   0.1011696890295907E+01
   0.9941760423552064E+00
   0.1002616513161252E+01
   0.1002319760581410E+01
   0.1009860695613591E+01
   0.1020739802913017E+01
   0.9775310926017942E+00
   0.8139434152062832E+00
   0.9783047170147897E+00
   0.9823218396961582E+00
   0.9726984490722685E+00
   0.9252105466757683E+00
   0.1509616143999456E+01
   0.1010827902619527E+01
   0.1039708314006279E+01
   0.1005510862676667E+01
   0.1007055411128308E+01
   0.1003253689398482E+01
   0.1004968900705767E+01
   0.1004831677666856E+01
   0.1003620711751383E+01
   0.1002400061402769E+01
   0.1002867911298634E+01
   0.1005068808108174E+01
   0.1102033876001411E+01
   0.9921431843862336E+00
   0.1003055133140985E+01
   0.1005853959506806E+01
   0.9966203472966298E+00
   0.1003468904917922E+01
   0.1004968321244035E+01
   0.1012767362245221E+01
   0.1011273711080829E+01
   0.9937107313128140E+00
   0.1006727331444460E+01
   0.1060495869335110E+01
   0.9929054168367633E+00
   0.9730367526761465E+00
   0.9968109633549342E+00
   0.9985093087288932E+00
   0.9966252209509882E+00
   0.1004188864370565E+01
   0.1002777793933745E+01
   0.1001758121970784E+01
   0.1005820634860996E+01
   0.1001485774131322E+01
   0.9688178184519262E+00
   0.1003904254015169E+01
   0.1003683596985153E+01
   0.1004719441448442E+01
   0.9993134719450196E+00
   0.1011793392549741E+01
   0.9945189256167289E+00
SCALARS u double 1
LOOKUP_TABLE default
   0.4977054036784635E+00
   0.4991933854861207E+00
   0.5148124459481260E+00
   0.5220030989702087E+00
   0.4738750249599513E+00
   0.0000000000000000E+00
   0.0000000000000000E+00
   0.0000000000000000E+00
   0.0000000000000000E+00
   0.0000000000000000E+00
   0.0000000000000000E+00
   0.4793511559020759E+00
   0.4667631776449069E+00
   0.4942449360829839E+00
   0.4935702585338723E+00
   0.4961725908755458E+00
   0.4941029324357413E+00
   0.4954048191304897E+00
   0.4976841239480901E+00
   0.4986160760037266E+00
   0.4952808454774124E+00
   0.4948268303870416E+00
   0.4518346837050306E+00
   0.3969463507714823E+00
   0.5074390375833467E+00
   0.5527302150685919E+00
   0.5406450480232192E+00
   0.4966227384968994E+00
   0.4948222608026359E+00
   0.4884951058989098E+00
   0.4237242721451343E+00
   0.3186699434239967E+00
   0.4921834638796663E+00
   0.5409695328402607E+00
   0.5516497609187302E+00
   0.4724877015802899E+00
   0.5415331853634479E+00
   0.5917029848192052E+00
   0.5333947577286082E+00
   0.4992034154969670E+00
   0.4964221970644329E+00
   0.5788371266742300E+00
   0.5773668283685149E+00
   0.5014313689105625E+00
   0.3900577651459341E+00
   0.4947083587229064E+00
   0.4951977937667763E+00
   0.5000032709851755E+00
   0.4930644230818388E+00
   0.4929401326916066E+00
   0.5301088556247764E+00
   0.4978789356081593E+00
   0.4988778368457288E+00
   0.5143972605524378E+00
   0.5235831507872035E+00
   0.4771831319048873E+00
   0.0000000000000000E+00
   0.0000000000000000E+00
   0.0000000000000000E+00
   0.0000000000000000E+00
   0.0000000000000000E+00
   0.0000000000000000E+00
   0.4807094279916013E+00
   0.4673167392756781E+00
   0.4946032856505855E+00
   0.4936261549166029E+00
   0.4962095870235115E+00
   0.4941917669110588E+00
   0.4955587078759893E+00
   0.4980428739908185E+00
   0.4990547819893870E+00
   0.4952161328341220E+00
   0.4949281940298697E+00
   0.4554319254961163E+00
   0.4048545254157125E+00
   0.5064361907983297E+00
   0.5528313080739091E+00
   0.5400964904654428E+00
   0.4969015376265612E+00
   0.4950165058590066E+00
   0.4887486586916064E+00
   0.4334592633890891E+00
   0.3253244400198776E+00
   0.4924517732980533E+00
   0.5463256531604691E+00
   0.5582322724812276E+00
   0.4829581139418369E+00
   0.5412677130271542E+00
   0.5970119622095619E+00
   0.5336660059940616E+00
   0.4985852519154305E+00
   0.4965272645580413E+00
   0.5826596171641175E+00
   0.5826584085248836E+00
   0.5008677306026522E+00
   0.3974813198500272E+00
   0.4949836975720095E+00
   0.4954632562700177E+00
   0.4999405695576721E+00
   0.4931278552202492E+00
   0.4928657240908680E+00
   0.5292147822343006E+00
   0.4978491037821348E+00
   0.4988914639215403E+00
   0.5144753070289254E+00
   0.5237705053020622E+00
   0.4773523078125023E+00
   0.0000000000000000E+00
   0.0000000000000000E+00
   0.0000000000000000E+00
   0.0000000000000000E+00
   0.0000000000000000E+00
   0.0000000000000000E+00
   0.4805188972974805E+00
   0.4671692628906028E+00
   0.4945309543065387E+00
   0.4935846599298379E+00
   0.4961870422654991E+00
   0.4941111606183265E+00
   0.4954275812568795E+00
   0.4978879797360753E+00
   0.4989251179413464E+00
   0.4951469398706678E+00
   0.4948515512289610E+00
   0.4554043645487200E+00
   0.4051552879009218E+00
   0.5064684302030121E+00
   0.5530074624900337E+00
   0.5401378711047126E+00
   0.4967538242733902E+00
   0.4948896534570683E+00
   0.4885423449112876E+00
   0.4336731734415550E+00
   0.3256609236577275E+00
   0.4923125093779007E+00
   0.5461347266361062E+00
   0.5585956279421552E+00
   0.4833055918467452E+00
   0.5411048903042913E+00
   0.5969545944965156E+00
   0.5334296362899528E+00
   0.4985333885359893E+00
   0.4964017760490202E+00
   0.5828562719869171E+00
   0.5827371454267213E+00
   0.5007551770186357E+00
   0.3974052573485911E+00
   0.4948204566478460E+00
   0.4953121337772595E+00
   0.4997849041886989E+00
   0.4927249552688182E+00
   0.4926610626159650E+00
   0.5291188679220871E+00
   0.4978554390754950E+00
   0.4988797753975703E+00
   0.5144212325696662E+00
   0.5235646727388344E+00
   0.4770578880518052E+00
   0.0000000000000000E+00
   0.0000000000000000E+00
   0.0000000000000000E+00
   0.0000000000000000E+00
   0.0000000000000000E+00
   0.0000000000000000E+00
   0.4806945182751401E+00
   0.4673195629257835E+00
   0.4946115495276364E+00
   0.4936246963876000E+00
   0.4962094030274624E+00
   0.4941792407230531E+00
   0.4955236894890378E+00
   0.4979836779667536E+00
   0.4989860814490503E+00
   0.4951445880049145E+00
   0.4949145256115163E+00
   0.4554087869638833E+00
   0.4047219087174809E+00
   0.5063837269865493E+00
   0.5527583960866427E+00
   0.5399530378729934E+00
   0.4968229811333034E+00
   0.4949748158480680E+00
   0.4886639209451800E+00
   0.4332760276945692E+00
   0.3253181840504478E+00
   0.4924026824765120E+00
   0.5460615105114955E+00
   0.5580145835236193E+00
   0.4828086876142659E+00
   0.5410475383528404E+00
   0.5967589228930624E+00
   0.5334268976049746E+00
   0.4984851136233280E+00
   0.4964358418544618E+00
   0.5824794612749725E+00
   0.5824268841069478E+00
   0.5007403910888164E+00
   0.3971716458690364E+00
   0.4949030525350503E+00
   0.4953924045008415E+00
   0.4998206214148240E+00
   0.4928340335319220E+00
   0.4927250481013694E+00
   0.5290322143845640E+00
   0.4978491074754401E+00
   0.4988914624761477E+00
   0.5144752013742570E+00
   0.5237705152368169E+00
   0.4773529589110546E+00
   0.0000000000000000E+00
   0.0000000000000000E+00
   0.0000000000000000E+00
   0.0000000000000000E+00
   0.0000000000000000E+00
   0.0000000000000000E+00
   0.4805185970423849E+00
   0.4671695368162729E+00
   0.4945309155367267E+00
   0.4935846907213277E+00
   0.4961870503139844E+00
   0.4941111844503836E+00
   0.4954275984869131E+00
   0.4978879796788671E+00
   0.4989251133469820E+00
   0.4951469537121499E+00
   0.4948515677166148E+00
   0.4554036746739945E+00
   0.4051559181203294E+00
   0.5064684250742572E+00
   0.5530074027522860E+00
   0.5401378301708342E+00
   0.4967538379286585E+00
   0.4948896729948056E+00
   0.4885423578489574E+00
   0.4336731498538335E+00
   0.3256610996448885E+00
   0.4923125398396251E+00
   0.5461344602206359E+00
   0.5585958079245140E+00
   0.4833058294038351E+00
   0.5411048408463532E+00
   0.5969542267476620E+00
   0.5334296233413706E+00
   0.4985334052734638E+00
   0.4964017902348989E+00
   0.5828562209537046E+00
   0.5827370124763904E+00
   0.5007551895777517E+00
   0.3974050733922923E+00
   0.4948204724256737E+00
   0.4953121600368561E+00
   0.4997849233439888E+00
   0.4927252475045097E+00
   0.4926611275857820E+00
   0.5291188450611025E+00
   0.4978789515753877E+00
   0.4988778381321416E+00
   0.5143970439562787E+00
   0.5235830510908558E+00
   0.4771845019036533E+00
   0.0000000000000000E+00
   0.0000000000000000E+00
   0.0000000000000000E+00
   0.0000000000000000E+00
   0.0000000000000000E+00
   0.0000000000000000E+00
   0.4807087787069412E+00
   0.4673172474974280E+00
   0.4946031965704136E+00
   0.4936262110823200E+00
   0.4962096013272215E+00
   0.4941918093230961E+00
   0.4955587432400476E+00
   0.4980428765680344E+00
   0.4990547840200441E+00
   0.4952161607678301E+00
   0.4949282223810070E+00
   0.4554305532268368E+00
   0.4048560146940748E+00
   0.5064361661555485E+00
   0.5528311105372197E+00
   0.5400963699810102E+00
   0.4969015604194316E+00
   0.4950165379456976E+00
   0.4887487072310558E+00
   0.4334591807029913E+00
   0.3253247650923216E+00
   0.4924518129086443E+00
   0.5463250628426446E+00
   0.5582325126186737E+00
   0.4829585218607009E+00
   0.5412675762192488E+00
   0.5970112193481117E+00
   0.5336659543517434E+00
   0.4985852838049479E+00
   0.4965272781913659E+00
   0.5826595311209413E+00
   0.5826580815614164E+00
   0.5008677759761111E+00
   0.3974808584362728E+00
   0.4949837128123709E+00
   0.4954632941639128E+00
   0.4999406117326020E+00
   0.4931283008092529E+00
   0.4928658589450091E+00
   0.5292147484395954E+00
   0.4977054305785364E+00
   0.4991934075522756E+00
   0.5148122589993482E+00
   0.5220029660757759E+00
   0.4738769804620596E+00
   0.0000000000000000E+00
   0.0000000000000000E+00
   0.0000000000000000E+00
   0.0000000000000000E+00
   0.0000000000000000E+00
   0.0000000000000000E+00
   0.4793502158362485E+00
   0.4667639083456912E+00
   0.4942447918262627E+00
   0.4935703312313833E+00
   0.4961726075494936E+00
   0.4941029911313185E+00
   0.4954048815977139E+00
   0.4976841253396272E+00
   0.4986160720765890E+00
   0.4952809082553523E+00
   0.4948268696603019E+00
   0.4518327371115796E+00
   0.3969484515956012E+00
   0.5074391115688345E+00
   0.5527300922310764E+00
   0.5406450363571205E+00
   0.4966227807708061E+00
   0.4948223145838269E+00
   0.4884952478576640E+00
   0.4237239957449496E+00
   0.3186702332524015E+00
   0.4921835068958629E+00
   0.5409686373842192E+00
   0.5516500480558162E+00
   0.4724881293200972E+00
   0.5415331778667348E+00
   0.5917020139603808E+00
   0.5333948127704887E+00
   0.4992035377566384E+00
   0.4964222178773448E+00
   0.5788370997759468E+00
   0.5773664079204237E+00
   0.5014315222140798E+00
   0.3900569902909482E+00
   0.4947083920560083E+00
   0.4951978566107112E+00
   0.5000034069963246E+00
   0.4930650558766804E+00
   0.4929403994863123E+00
   0.5301090215626199E+00
SCALARS v double 1
LOOKUP_TABLE default
   0.0000000000000000E+00
   0.0000000000000000E+00
   0.0000000000000000E+00
   0.0000000000000000E+00
   0.0000000000000000E+00
   0.0000000000000000E+00
   0.0000000000000000E+00
   0.0000000000000000E+00
   0.0000000000000000E+00
   0.0000000000000000E+00
   0.0000000000000000E+00
   0.0000000000000000E+00
   0.0000000000000000E+00
   0.0000000000000000E+00
   0.0000000000000000E+00
   0.0000000000000000E+00
   0.0000000000000000E+00
   0.0000000000000000E+00
   0.0000000000000000E+00
   0.0000000000000000E+00
   0.0000000000000000E+00
   0.0000000000000000E+00
   0.0000000000000000E+00
   0.0000000000000000E+00
   0.0000000000000000E+00
   0.0000000000000000E+00
   0.0000000000000000E+00
   0.0000000000000000E+00
   0.0000000000000000E+00
   0.0000000000000000E+00
   0.0000000000000000E+00
   0.0000000000000000E+00
   0.0000000000000000E+00
   0.0000000000000000E+00
   0.0000000000000000E+00
   0.0000000000000000E+00
   0.0000000000000000E+00
   0.0000000000000000E+00
   0.0000000000000000E+00
   0.0000000000000000E+00
   0.0000000000000000E+00
   0.0000000000000000E+00
   0.0000000000000000E+00
   0.0000000000000000E+00
   0.0000000000000000E+00
   0.0000000000000000E+00
   0.0000000000000000E+00
   0.0000000000000000E+00
   0.0000000000000000E+00