TITLE="fun3d_case_title"
VARIABLES="Iteration" "R_1" "R_2" "R_3" "R_4" "R_5" "R_6" "C_L" "C_D" "C_M_x" "C_M_y" "C_M_z" "Wall Time" "C_x" "C_y" "C_z" "C_Lp" "C_Dp" "C_Lv" "C_Dv" "C_M_xp" "C_M_yp" "C_M_zp" "C_M_xv" "C_M_yv" "C_M_zv" "C_xp" "C_yp" "C_zp" "C_xv" "C_yv" "C_zv"
ZONE  I=100 F=POINT
1  0.8315242565E-02  0.1317571450E-01  0.7459914551E-21  0.3216367278E-02  0.3028137432E-01  0.8334301906E-01 -0.5019823423E+01  0.5871235539E-02  0.1254955818E+02  0.2982634697E+01  0.1467813118E-01  0.4929000000E+00  0.5871235539E-02  0.9354898547E-11 -0.5019823423E+01 -0.5020156909E+01  0.0000000000E+00  0.3334851372E-03  0.5871235539E-02  0.1255039273E+02  0.2997544718E+01  0.0000000000E+00 -0.8345475828E-03 -0.1491002008E-01  0.1467813118E-01  0.0000000000E+00  0.0000000000E+00 -0.5020156909E+01  0.5871235539E-02  0.9354898547E-11  0.3334851372E-03
2  0.5861556018E-02  0.9677160925E-02  0.1559585952E-04  0.2946766758E-02  0.1121943478E-01  0.7246325020E-01 -0.4772009498E+01  0.5493104794E-02  0.1193001833E+02 -0.3463018846E+01  0.1373278655E-01  0.6192000000E+00  0.5493104794E-02 -0.4048582722E-10 -0.4772009498E+01 -0.4772462146E+01  0.0000000000E+00  0.4526479511E-03  0.5493104794E-02  0.1193115120E+02 -0.3449116529E+01  0.0000000000E+00 -0.1132878605E-02 -0.1390231681E-01  0.1373278655E-01  0.0000000000E+00  0.0000000000E+00 -0.4772462146E+01  0.5493104794E-02 -0.4048582722E-10  0.4526479511E-03
3  0.3768327985E-02  0.6230481751E-02  0.2739124173E-04  0.3145183151E-02  0.4567904159E-02  0.6135554128E-01 -0.3596325189E+01  0.5271482309E-02  0.8990787130E+01 -0.8087673656E+01  0.1317866311E-01  0.7231000000E+00  0.5271482309E-02 -0.2821615946E-09 -0.3596325189E+01 -0.3596846647E+01  0.0000000000E+00  0.5214583630E-03  0.5271482309E-02  0.8992092276E+01 -0.8074452621E+01  0.0000000000E+00 -0.1305145917E-02 -0.1322103492E-01  0.1317866311E-01  0.0000000000E+00  0.0000000000E+00 -0.3596846647E+01  0.5271482309E-02 -0.2821615946E-09  0.5214583630E-03
4  0.2170973168E-02  0.4888924263E-02  0.3044043928E-04  0.2931963762E-02  0.3584346603E-02  0.4999830584E-01 -0.2613863202E+01  0.5111439817E-02  0.6534597434E+01 -0.1033926906E+02  0.1277849383E-01  0.8271000000E+00  0.5111439817E-02 -0.5444316680E-09 -0.2613863202E+01 -0.2614415586E+01  0.0000000000E+00  0.5523840282E-03  0.5111439817E-02  0.6535980048E+01 -0.1032655175E+02  0.0000000000E+00 -0.1382614256E-02 -0.1271730941E-01  0.1277849383E-01  0.0000000000E+00  0.0000000000E+00 -0.2614415586E+01  0.5111439817E-02 -0.5444316680E-09  0.5523840282E-03
5  0.1517733696E-02  0.3835334789E-02  0.2842286036E-04  0.2133191430E-02  0.3039410843E-02  0.3824274292E-01 -0.1853381310E+01  0.4986960421E-02  0.4633380016E+01 -0.1156903612E+02  0.1246725858E-01  0.9309000000E+00  0.4986960421E-02 -0.5652457850E-09 -0.1853381310E+01 -0.1853939273E+01  0.0000000000E+00  0.5579631505E-03  0.4986960421E-02  0.4634776686E+01 -0.1155669244E+02  0.0000000000E+00 -0.1396670424E-02 -0.1234367891E-01  0.1246725858E-01  0.0000000000E+00  0.0000000000E+00 -0.1853939273E+01  0.4986960421E-02 -0.5652457850E-09  0.5579631505E-03
6  0.1105271381E-02  0.2949937126E-02  0.2479214039E-04  0.1426345305E-02  0.2448158826E-02  0.2804292127E-01 -0.1366505398E+01  0.4890240789E-02  0.3416197293E+01 -0.1243791205E+02  0.1222544889E-01  0.1034900000E+01  0.4890240789E-02 -0.3923432055E-09 -0.1366505398E+01 -0.1367057225E+01  0.0000000000E+00  0.5518267377E-03  0.4890240789E-02  0.3417578705E+01 -0.1242584265E+02  0.0000000000E+00 -0.1381412485E-02 -0.1206939589E-01  0.1222544889E-01  0.0000000000E+00  0.0000000000E+00 -0.1367057225E+01  0.4890240789E-02 -0.3923432055E-09  0.5518267377E-03
7  0.7148612621E-03  0.2274595343E-02  0.2126686409E-04  0.1013135437E-02  0.1868820640E-02  0.2014214094E-01 -0.1111929826E+01  0.4816700118E-02  0.2779766806E+01 -0.1317763258E+02  0.1204160130E-01  0.1112400000E+01  0.4816700118E-02 -0.1801596289E-09 -0.1111929826E+01 -0.1112474287E+01  0.0000000000E+00  0.5444608889E-03  0.4816700118E-02  0.2781129869E+01 -0.1316576444E+02  0.0000000000E+00 -0.1363062290E-02 -0.1186814408E-01  0.1204160130E-01  0.0000000000E+00  0.0000000000E+00 -0.1112474287E+01  0.4816700118E-02 -0.1801596289E-09  0.5444608889E-03
8  0.4583719873E-03  0.1762863006E-02  0.1832570276E-04  0.8271761460E-03  0.1423918170E-02  0.1458002786E-01 -0.9467571390E+00  0.4763176990E-02  0.2366840252E+01 -0.1395037036E+02  0.1190780195E-01  0.1216300000E+01  0.4763176990E-02  0.8174386138E-11 -0.9467571390E+00 -0.9472977222E+00  0.0000000000E+00  0.5405832489E-03  0.4763176990E-02  0.2368193672E+01 -0.1393864730E+02  0.0000000000E+00 -0.1353420399E-02 -0.1172305465E-01  0.1190780195E-01  0.0000000000E+00  0.0000000000E+00 -0.9472977222E+00  0.4763176990E-02  0.8174386138E-11  0.5405832489E-03
9  0.3342707165E-03  0.1372190893E-02  0.1591209937E-04  0.5571855522E-03  0.1124264840E-02  0.9886750359E-02 -0.8959869750E+00  0.4721347247E-02  0.2239916832E+01 -0.1442256600E+02  0.1180323445E-01  0.1293800000E+01  0.4721347247E-02  0.1541520523E-09 -0.8959869750E+00 -0.8965256873E+00  0.0000000000E+00  0.5387123787E-03  0.4721347247E-02  0.2241265617E+01 -0.1441096131E+02  0.0000000000E+00 -0.1348785260E-02 -0.1160469476E-01  0.1180323445E-01  0.0000000000E+00  0.0000000000E+00 -0.8965256873E+00  0.4721347247E-02  0.1541520523E-09  0.5387123787E-03
10  0.2430841511E-03  0.1067303419E-02  0.1385985278E-04  0.3965618358E-03  0.8573944033E-03  0.5792622282E-02 -0.7981771436E+00  0.4692291959E-02  0.1995392946E+01 -0.1492957481E+02  0.1173060021E-01  0.1397600000E+01  0.4692291959E-02  0.2703219114E-09 -0.7981771436E+00 -0.7987159892E+00  0.0000000000E+00  0.5388455933E-03  0.4692291959E-02  0.1996742101E+01 -0.1491805447E+02  0.0000000000E+00 -0.1349154360E-02 -0.1152034214E-01  0.1173060021E-01  0.0000000000E+00  0.0000000000E+00 -0.7987159892E+00  0.4692291959E-02  0.2703219114E-09  0.5388455933E-03
11  0.1753700838E-03  0.8392595163E-03  0.1212876870E-04  0.2994309684E-03  0.6816884902E-03  0.2242048252E-02 -0.7230700918E+00  0.4670636515E-02  0.1807625771E+01 -0.1525448231E+02  0.1167646328E-01  0.1652170000E+02  0.4670636515E-02  0.3623762937E-09 -0.7230700918E+00 -0.7236089568E+00  0.0000000000E+00  0.5388649090E-03  0.4670636515E-02  0.1808975004E+01 -0.1524302769E+02  0.0000000000E+00 -0.1349233557E-02 -0.1145461626E-01  0.1167646328E-01  0.0000000000E+00  0.0000000000E+00 -0.7236089568E+00  0.4670636515E-02  0.3623762937E-09  0.5388649090E-03
12  0.1277367105E-03  0.6610006757E-03  0.1066011772E-04  0.2328525161E-03  0.5374395880E-03  0.8264083141E-03 -0.6555664639E+00  0.4654638516E-02  0.1638867319E+01 -0.1548869663E+02  0.1163646887E-01  0.1662600000E+02  0.4654638516E-02  0.4363418717E-09 -0.6555664639E+00 -0.6561050531E+00  0.0000000000E+00  0.5385892089E-03  0.4654638516E-02  0.1640215890E+01 -0.1547729121E+02  0.0000000000E+00 -0.1348570954E-02 -0.1140541761E-01  0.1163646887E-01  0.0000000000E+00  0.0000000000E+00 -0.6561050531E+00  0.4654638516E-02  0.4363418717E-09  0.5385892089E-03
13  0.9823939248E-04  0.5208960726E-03  0.9392915685E-05  0.1826062367E-03  0.4341853955E-03  0.4421133465E-03 -0.6092908722E+00  0.4642412962E-02  0.1523178939E+01 -0.1563704773E+02  0.1160590559E-01  0.1669940000E+02  0.4642412962E-02  0.4929391058E-09 -0.6092908722E+00 -0.6098288425E+00  0.0000000000E+00  0.5379703106E-03  0.4642412962E-02  0.1524525986E+01 -0.1562567969E+02  0.0000000000E+00 -0.1347046284E-02 -0.1136804053E-01  0.1160590559E-01  0.0000000000E+00  0.0000000000E+00 -0.6098288425E+00  0.4642412962E-02  0.4929391058E-09  0.5379703106E-03
14  0.7658246677E-04  0.4084696759E-03  0.8284266754E-05  0.1436176512E-03  0.3491821752E-03  0.2665850078E-03 -0.5822431292E+00  0.4633030061E-02  0.1455559997E+01 -0.1573073288E+02  0.1158244924E-01  0.1677270000E+02  0.4633030061E-02  0.5342936802E-09 -0.5822431292E+00 -0.5827804655E+00  0.0000000000E+00  0.5373362148E-03  0.4633030061E-02  0.1456905477E+01 -0.1571939284E+02  0.0000000000E+00 -0.1345479904E-02 -0.1134003829E-01  0.1158244924E-01  0.0000000000E+00  0.0000000000E+00 -0.5827804655E+00  0.4633030061E-02  0.5342936802E-09  0.5373362148E-03
15  0.5940483590E-04  0.3183373577E-03  0.7289944000E-05  0.1139408468E-03  0.2772676340E-03  0.1712646449E-03 -0.5686181957E+00  0.4625880470E-02  0.1421497864E+01 -0.1579278497E+02  0.1156457635E-01  0.1684580000E+02  0.4625880470E-02  0.5642638734E-09 -0.5686181957E+00 -0.5691550610E+00  0.0000000000E+00  0.5368653102E-03  0.4625880470E-02  0.1422842182E+01 -0.1578146567E+02  0.0000000000E+00 -0.1344318171E-02 -0.1131929982E-01  0.1156457635E-01  0.0000000000E+00  0.0000000000E+00 -0.5691550610E+00  0.4625880470E-02  0.5642638734E-09  0.5368653102E-03
16  0.4620362515E-04  0.2466826706E-03  0.6384904944E-05  0.9084702336E-04  0.2172411804E-03  0.1173057348E-03 -0.5633180725E+00  0.4620446141E-02  0.1408247600E+01 -0.1583487481E+02  0.1155099149E-01  0.1694980000E+02  0.4620446141E-02  0.5866914171E-09 -0.5633180725E+00 -0.5638546410E+00  0.0000000000E+00  0.5365684814E-03  0.4620446141E-02  0.1409591189E+01 -0.1582357094E+02  0.0000000000E+00 -0.1343588727E-02 -0.1130386711E-01  0.1155099149E-01  0.0000000000E+00  0.0000000000E+00 -0.5638546410E+00  0.4620446141E-02  0.5866914171E-09  0.5365684814E-03
17  0.3610525607E-04  0.1901841246E-03  0.5553708594E-05  0.7224857841E-04  0.1682437365E-03  0.8488893179E-04 -0.5618410335E+00  0.4616351094E-02  0.1404554979E+01 -0.1586491287E+02  0.1154075462E-01  0.1702310000E+02  0.4616351094E-02  0.6045087756E-09 -0.5618410335E+00 -0.5623774326E+00  0.0000000000E+00  0.5363990636E-03  0.4616351094E-02  0.1405898154E+01 -0.1585362051E+02  0.0000000000E+00 -0.1343175331E-02 -0.1129235933E-01  0.1154075462E-01  0.0000000000E+00  0.0000000000E+00 -0.5623774326E+00  0.4616351094E-02  0.6045087756E-09  0.5363990636E-03
18  0.2819811987E-04  0.1460586090E-03  0.4800678369E-05  0.5738737369E-04  0.1291310343E-03  0.6430567262E-04 -0.5624717567E+00  0.4613245137E-02  0.1406131745E+01 -0.1588517823E+02  0.1153299017E-01  0.1710070000E+02  0.4613245137E-02  0.6192401407E-09 -0.5624717567E+00 -0.5630080362E+00  0.0000000000E+00  0.5362794508E-03  0.4613245137E-02  0.1407474630E+01 -0.1587389463E+02  0.0000000000E+00 -0.1342884409E-02 -0.1128359778E-01  0.1153299017E-01  0.0000000000E+00  0.0000000000E+00 -0.5630080362E+00  0.4613245137E-02  0.6192401407E-09  0.5362794508E-03
19  0.2195008684E-04  0.1118115237E-03  0.4126651121E-05  0.4559625194E-04  0.9851003193E-04  0.5018180399E-04 -0.5644388771E+00  0.4610868544E-02  0.1411049504E+01 -0.1589739253E+02  0.1152704880E-01  0.1717400000E+02  0.4610868544E-02  0.6313965620E-09 -0.5644388771E+00 -0.5649750462E+00  0.0000000000E+00  0.5361690304E-03  0.4610868544E-02  0.1412392119E+01 -0.1588611572E+02  0.0000000000E+00 -0.1342614846E-02 -0.1127681068E-01  0.1152704880E-01  0.0000000000E+00  0.0000000000E+00 -0.5649750462E+00  0.4610868544E-02  0.6313965620E-09  0.5361690304E-03
20  0.1710714677E-04  0.8541733973E-04  0.3530536504E-05  0.3633117188E-04  0.7496673690E-04  0.3935830009E-04 -0.5673552806E+00  0.4609036895E-02  0.1418340466E+01 -0.1590326332E+02  0.1152246948E-01  0.1727390000E+02  0.4609036895E-02  0.6410630957E-09 -0.5673552806E+00 -0.5678913391E+00  0.0000000000E+00  0.5360584974E-03  0.4609036895E-02  0.1419682810E+01 -0.1589199182E+02  0.0000000000E+00 -0.1342343749E-02 -0.1127150710E-01  0.1152246948E-01  0.0000000000E+00  0.0000000000E+00 -0.5678913391E+00  0.4609036895E-02  0.6410630957E-09  0.5360584974E-03
21  0.1341956982E-04  0.6521832800E-04  0.3007778017E-05  0.2907125299E-04  0.5707544060E-04  0.3099552358E-04 -0.5706383429E+00  0.4607626775E-02  0.1426546292E+01 -0.1590524679E+02  0.1151894417E-01  0.3233720000E+02  0.4607626775E-02  0.6260442693E-09 -0.5706383429E+00 -0.5711743011E+00  0.0000000000E+00  0.5359581232E-03  0.4607626775E-02  0.1427888390E+01 -0.1589397940E+02  0.0000000000E+00 -0.1342097205E-02 -0.1126738884E-01  0.1151894417E-01  0.0000000000E+00  0.0000000000E+00 -0.5711743011E+00  0.4607626775E-02  0.6260442693E-09  0.5359581232E-03
22  0.1060941006E-04  0.4987847050E-04  0.2554217139E-05  0.2337331327E-04  0.4352982519E-04  0.2421497262E-04 -0.5738516306E+00  0.4606558511E-02  0.1434576004E+01 -0.1590507745E+02  0.1151627284E-01  0.3241070000E+02  0.4606558511E-02  0.6088547177E-09 -0.5738516306E+00 -0.5743875066E+00  0.0000000000E+00  0.5358759582E-03  0.4606558511E-02  0.1435917899E+01 -0.1589381320E+02  0.0000000000E+00 -0.1341895323E-02 -0.1126425169E-01  0.1151627284E-01  0.0000000000E+00  0.0000000000E+00 -0.5743875066E+00  0.4606558511E-02  0.6088547177E-09  0.5358759582E-03
23  0.8426740676E-05  0.3828699955E-04  0.2163357666E-05  0.1887185401E-04  0.3328757186E-04  0.1902093046E-04 -0.5767263456E+00  0.4605751727E-02  0.1441762662E+01 -0.1590393972E+02  0.1151425513E-01  0.3248400000E+02  0.4605751727E-02  0.6152761912E-09 -0.5767263456E+00 -0.5772621573E+00  0.0000000000E+00  0.5358116752E-03  0.4605751727E-02  0.1443104400E+01 -0.1589267784E+02  0.0000000000E+00 -0.1341737601E-02 -0.1126187636E-01  0.1151425513E-01  0.0000000000E+00  0.0000000000E+00 -0.5772621573E+00  0.4605751727E-02  0.6152761912E-09  0.5358116752E-03
24  0.6694668176E-05  0.2957050726E-04  0.1827911341E-05  0.1531202430E-04  0.2554980004E-04  0.1492877378E-04 -0.5791808583E+00  0.4605145555E-02  0.1447899654E+01 -0.1590243658E+02  0.1151273892E-01  0.3258840000E+02  0.4605145555E-02  0.6320038971E-09 -0.5791808583E+00 -0.5797166218E+00  0.0000000000E+00  0.5357635579E-03  0.4605145555E-02  0.1449241274E+01 -0.1589117649E+02  0.0000000000E+00 -0.1341619940E-02 -0.1126009162E-01  0.1151273892E-01  0.0000000000E+00  0.0000000000E+00 -0.5797166218E+00  0.4605145555E-02  0.6320038971E-09  0.5357635579E-03
25  0.5310569672E-05  0.2305469703E-04  0.1540894384E-05  0.1250879851E-04  0.1975490485E-04  0.1171750221E-04 -0.5811155583E+00  0.4604695768E-02  0.1452736971E+01 -0.1590114289E+02  0.1151161369E-01  0.3266180000E+02  0.4604695768E-02  0.6480610542E-09 -0.5811155583E+00 -0.5816512880E+00  0.0000000000E+00  0.5357297227E-03  0.4604695768E-02  0.1454078509E+01 -0.1588988412E+02  0.0000000000E+00 -0.1341537717E-02 -0.1125877142E-01  0.1151161369E-01  0.0000000000E+00  0.0000000000E+00 -0.5816512880E+00  0.4604695768E-02  0.6480610542E-09  0.5357297227E-03
26  0.4210720186E-05  0.1821220727E-04  0.1296608113E-05  0.1029004440E-04  0.1546006559E-04  0.9285684452E-05 -0.5825680517E+00  0.4604365780E-02  0.1456368471E+01 -0.1590020564E+02  0.1151078798E-01  0.3273500000E+02  0.4604365780E-02  0.6607507636E-09 -0.5825680517E+00 -0.5831037583E+00  0.0000000000E+00  0.5357066525E-03  0.4604365780E-02  0.1457709953E+01 -0.1588894783E+02  0.0000000000E+00 -0.1341482160E-02 -0.1125780743E-01  0.1151078798E-01  0.0000000000E+00  0.0000000000E+00 -0.5831037583E+00  0.4604365780E-02  0.6607507636E-09  0.5357066525E-03
27  0.3343703704E-05  0.1462602075E-04  0.1090139437E-05  0.8515353430E-05  0.1231145524E-04  0.7481172214E-05 -0.5836092607E+00  0.4604127101E-02  0.1458971569E+01 -0.1589964137E+02  0.1151019057E-01  0.3280830000E+02  0.4604127101E-02  0.6707698324E-09 -0.5836092607E+00 -0.5841449522E+00  0.0000000000E+00  0.5356914037E-03  0.4604127101E-02  0.1460313015E+01 -0.1588838425E+02  0.0000000000E+00 -0.1341445913E-02 -0.1125711476E-01  0.1151019057E-01  0.0000000000E+00  0.0000000000E+00 -0.5841449522E+00  0.4604127101E-02  0.6707698324E-09  0.5356914037E-03
28  0.2667286189E-05  0.1196340231E-04  0.9171555471E-06  0.7070484275E-05  0.1000970628E-04  0.6224721895E-05 -0.5843180084E+00  0.4603957828E-02  0.1460743451E+01 -0.1589940339E+02  0.1150976673E-01  0.3288130000E+02  0.4603957828E-02  0.6789858014E-09 -0.5843180084E+00 -0.5848536902E+00  0.0000000000E+00  0.5356817167E-03  0.4603957828E-02  0.1462084875E+01 -0.1588814676E+02  0.0000000000E+00 -0.1341423338E-02 -0.1125662769E-01  0.1150976673E-01  0.0000000000E+00  0.0000000000E+00 -0.5848536902E+00  0.4603957828E-02  0.6789858014E-09  0.5356817167E-03
29  0.2145269290E-05  0.9961105999E-05  0.7736887141E-06  0.5871028078E-05  0.8308260599E-05  0.5943817471E-05 -0.5847702028E+00  0.4603840966E-02  0.1461873952E+01 -0.1589941360E+02  0.1150947397E-01  0.3295470000E+02  0.4603840966E-02  0.6857409616E-09 -0.5847702028E+00 -0.5853058787E+00  0.0000000000E+00  0.5356759199E-03  0.4603840966E-02  0.1463215363E+01 -0.1588815730E+02  0.0000000000E+00 -0.1341410269E-02 -0.1125629505E-01  0.1150947397E-01  0.0000000000E+00  0.0000000000E+00 -0.5853058787E+00  0.4603840966E-02  0.6857409616E-09  0.5356759199E-03
30  0.1746552972E-05  0.8418950063E-05  0.6558729890E-06  0.4859931474E-05  0.7017136298E-05  0.4390736851E-05 -0.5850395906E+00  0.4603762915E-02  0.1462547452E+01 -0.1589956932E+02  0.1150927829E-01  0.3305850000E+02  0.4603762915E-02  0.6911302230E-09 -0.5850395906E+00 -0.5855752633E+00  0.0000000000E+00  0.5356727020E-03  0.4603762915E-02  0.1463888855E+01 -0.1588831324E+02  0.0000000000E+00 -0.1341403446E-02 -0.1125607583E-01  0.1150927829E-01  0.0000000000E+00  0.0000000000E+00 -0.5855752633E+00  0.4603762915E-02  0.6911302230E-09  0.5356727020E-03
31  0.1445194521E-05  0.7194655354E-05  0.5597569663E-06  0.4002821598E-05  0.6006215293E-05  0.3694758511E-05 -0.5851699637E+00  0.4603713541E-02  0.1462873418E+01 -0.1589982735E+02  0.1150915435E-01  0.4818450000E+02  0.4603713541E-02  0.6952844838E-09 -0.5851699637E+00 -0.5857056350E+00  0.0000000000E+00  0.5356713410E-03  0.4603713541E-02  0.1464214819E+01 -0.1588857141E+02  0.0000000000E+00 -0.1341401088E-02 -0.1125593991E-01  0.1150915435E-01  0.0000000000E+00  0.0000000000E+00 -0.5857056350E+00  0.4603713541E-02  0.6952844838E-09  0.5356713410E-03
32  0.1216396767E-05  0.6187779536E-05  0.4812786308E-06  0.3273454338E-05  0.5175170507E-05  0.3176151247E-05 -0.5852085670E+00  0.4603684408E-02  0.1462969951E+01 -0.1590012022E+02  0.1150908107E-01  0.4825790000E+02  0.4603684408E-02  0.6984365003E-09 -0.5852085670E+00 -0.5857442381E+00  0.0000000000E+00  0.5356711090E-03  0.4603684408E-02  0.1464311352E+01 -0.1588886436E+02  0.0000000000E+00 -0.1341401396E-02 -0.1125586211E-01  0.1150908107E-01  0.0000000000E+00  0.0000000000E+00 -0.5857442381E+00  0.4603684408E-02  0.6984365003E-09  0.5356711090E-03
33  0.1040920145E-05  0.5336115941E-05  0.4165792850E-06  0.2658484137E-05  0.4472760576E-05  0.2742322921E-05 -0.5851897975E+00  0.4603669028E-02  0.1462923040E+01 -0.1590040699E+02  0.1150904221E-01  0.4833120000E+02  0.4603669028E-02  0.7008595921E-09 -0.5851897975E+00 -0.5857254690E+00  0.0000000000E+00  0.5356715327E-03  0.4603669028E-02  0.1464264444E+01 -0.1588915117E+02  0.0000000000E+00 -0.1341403210E-02 -0.1125582335E-01  0.1150904221E-01  0.0000000000E+00  0.0000000000E+00 -0.5857254690E+00  0.4603669028E-02  0.7008595921E-09  0.5356715327E-03
34  0.9025839864E-06  0.4600288966E-05  0.3622546491E-06  0.2147247346E-05  0.3865534485E-05  0.2363997137E-05 -0.5851374077E+00  0.4603662581E-02  0.1462792070E+01 -0.1590066774E+02  0.1150902572E-01  0.4840450000E+02  0.4603662581E-02  0.7027856429E-09 -0.5851374077E+00 -0.5856730800E+00  0.0000000000E+00  0.5356723116E-03  0.4603662581E-02  0.1464133476E+01 -0.1588941193E+02  0.0000000000E+00 -0.1341405802E-02 -0.1125580964E-01  0.1150902572E-01  0.0000000000E+00  0.0000000000E+00 -0.5856730800E+00  0.4603662581E-02  0.7027856429E-09  0.5356723116E-03
35  0.7889587729E-06  0.3955805748E-05  0.3156270842E-06  0.1729328822E-05  0.3332721772E-05  0.2604052819E-05 -0.5850672988E+00  0.4603661589E-02  0.1462616797E+01 -0.1590089555E+02  0.1150902291E-01  0.4847780000E+02  0.4603661589E-02  0.7043628801E-09 -0.5850672988E+00 -0.5856029720E+00  0.0000000000E+00  0.5356732548E-03  0.4603661589E-02  0.1463958206E+01 -0.1588963974E+02  0.0000000000E+00 -0.1341408713E-02 -0.1125581092E-01  0.1150902291E-01  0.0000000000E+00  0.0000000000E+00 -0.5856029720E+00  0.4603661589E-02  0.7043628801E-09  0.5356732548E-03
36  0.6915348756E-06  0.3387432111E-05  0.2748416140E-06  0.1393478497E-05  0.2861613164E-05  0.1871965771E-05 -0.5849897274E+00  0.4603663620E-02  0.1462422867E+01 -0.1590109062E+02  0.1150902769E-01  0.4855090000E+02  0.4603663620E-02  0.7056617006E-09 -0.5849897274E+00 -0.5855254016E+00  0.0000000000E+00  0.5356742360E-03  0.4603663620E-02  0.1463764279E+01 -0.1588983480E+02  0.0000000000E+00 -0.1341411645E-02 -0.1125582019E-01  0.1150902769E-01  0.0000000000E+00  0.0000000000E+00 -0.5855254016E+00  0.4603663620E-02  0.7056617006E-09  0.5356742360E-03
37  0.6051355659E-06  0.2885395920E-05  0.2387756740E-06  0.1127478907E-05  0.2444225901E-05  0.1486496998E-05 -0.5849110179E+00  0.4603667036E-02  0.1462226091E+01 -0.1590125651E+02  0.1150903597E-01  0.4862410000E+02  0.4603667036E-02  0.7067072727E-09 -0.5849110179E+00 -0.5854466930E+00  0.0000000000E+00  0.5356751696E-03  0.4603667036E-02  0.1463567506E+01 -0.1589000068E+02  0.0000000000E+00 -0.1341414398E-02 -0.1125583271E-01  0.1150903597E-01  0.0000000000E+00  0.0000000000E+00 -0.5854466930E+00  0.4603667036E-02  0.7067072727E-09  0.5356751696E-03
38  0.5269952042E-06  0.2442966730E-05  0.2068332990E-06  0.9186860792E-06  0.2075204132E-05  0.1218431052E-05 -0.5848348435E+00  0.4603670787E-02  0.1462035653E+01 -0.1590139805E+02  0.1150904512E-01  0.4869750000E+02  0.4603670787E-02  0.7075135828E-09 -0.5848348435E+00 -0.5853705195E+00  0.0000000000E+00  0.5356760004E-03  0.4603670787E-02  0.1463377070E+01 -0.1589014220E+02  0.0000000000E+00 -0.1341416845E-02 -0.1125584550E-01  0.1150904512E-01  0.0000000000E+00  0.0000000000E+00 -0.5853705195E+00  0.4603670787E-02  0.7075135828E-09  0.5356760004E-03
39  0.4558656755E-06  0.2054986853E-05  0.1787114914E-06  0.7549493264E-06  0.1750543105E-05  0.9979749323E-06 -0.5847631466E+00  0.4603674248E-02  0.1461856408E+01 -0.1590152023E+02  0.1150905358E-01  0.4877070000E+02  0.4603674248E-02  0.7081038017E-09 -0.5847631466E+00 -0.5852988233E+00  0.0000000000E+00  0.5356766985E-03  0.4603674248E-02  0.1463197827E+01 -0.1589026437E+02  0.0000000000E+00 -0.1341418916E-02 -0.1125585681E-01  0.1150905358E-01  0.0000000000E+00  0.0000000000E+00 -0.5852988233E+00  0.4603674248E-02  0.7081038017E-09  0.5356766985E-03
40  0.3913215707E-06  0.1717030291E-05  0.1542032737E-06  0.6255450104E-06  0.1466848516E-05  0.8112478722E-06 -0.5846969404E+00  0.4603677085E-02  0.1461690890E+01 -0.1590162726E+02  0.1150906051E-01  0.4887480000E+02  0.4603677085E-02  0.7085146635E-09 -0.5846969404E+00 -0.5852326176E+00  0.0000000000E+00  0.5356772532E-03  0.4603677085E-02  0.1463032310E+01 -0.1589037140E+02  0.0000000000E+00 -0.1341420591E-02 -0.1125586576E-01  0.1150906051E-01  0.0000000000E+00  0.0000000000E+00 -0.5852326176E+00  0.4603677085E-02  0.7085146635E-09  0.5356772532E-03
41  0.3333562336E-06  0.1424995468E-05  0.1330786562E-06  0.5218695625E-06  0.1221126896E-05  0.6524145884E-06 -0.5846361836E+00  0.4603679187E-02  0.1461538995E+01 -0.1590172380E+02  0.1150906564E-01  0.6397710000E+02  0.4603679187E-02  0.7087907321E-09 -0.5846361836E+00 -0.5851718613E+00  0.0000000000E+00  0.5356776748E-03  0.4603679187E-02  0.1462880417E+01 -0.1589046793E+02  0.0000000000E+00 -0.1341421899E-02 -0.1125587215E-01  0.1150906564E-01  0.0000000000E+00  0.0000000000E+00 -0.5851718613E+00  0.4603679187E-02  0.7087907321E-09  0.5356776748E-03
42  0.2818165723E-06  0.1174755783E-05  0.1149992367E-06  0.4372251748E-06  0.1009858842E-05  0.5186705653E-06 -0.5845809158E+00  0.4603680557E-02  0.1461400823E+01 -0.1590181245E+02  0.1150906896E-01  0.6405060000E+02  0.4603680557E-02  0.7089754381E-09 -0.5845809158E+00 -0.5851165938E+00  0.0000000000E+00  0.5356779768E-03  0.4603680557E-02  0.1462742245E+01 -0.1589055658E+02  0.0000000000E+00 -0.1341422875E-02 -0.1125587609E-01  0.1150906896E-01  0.0000000000E+00  0.0000000000E+00 -0.5851165938E+00  0.4603680557E-02  0.7089754381E-09  0.5356779768E-03
43  0.2366534943E-06  0.9622843011E-06  0.9957151487E-07  0.3670662937E-06  0.8300131009E-06  0.4097020975E-06 -0.5845310114E+00  0.4603681279E-02  0.1461276059E+01 -0.1590189498E+02  0.1150907068E-01  0.6412390000E+02  0.4603681279E-02  0.7091044038E-09 -0.5845310114E+00 -0.5850666895E+00  0.0000000000E+00  0.5356781784E-03  0.4603681279E-02  0.1462617483E+01 -0.1589063910E+02  0.0000000000E+00 -0.1341423569E-02 -0.1125587792E-01  0.1150907068E-01  0.0000000000E+00  0.0000000000E+00 -0.5850666895E+00  0.4603681279E-02  0.7091044038E-09  0.5356781784E-03
44  0.1976029304E-06  0.7835438527E-06  0.8637271556E-07  0.3082404544E-06  0.6783680450E-06  0.3218081253E-06 -0.5844863156E+00  0.4603681477E-02  0.1461164318E+01 -0.1590197224E+02  0.1150907112E-01  0.6419710000E+02  0.4603681477E-02  0.7092027466E-09 -0.5844863156E+00 -0.5850219939E+00  0.0000000000E+00  0.5356782995E-03  0.4603681477E-02  0.1462505742E+01 -0.1589071636E+02  0.0000000000E+00 -0.1341424034E-02 -0.1125587810E-01  0.1150907112E-01  0.0000000000E+00  0.0000000000E+00 -0.5850219939E+00  0.4603681477E-02  0.7092027466E-09  0.5356782995E-03
45  0.1642453936E-06  0.6345587340E-06  0.7500367599E-07  0.2585764834E-06  0.5517037819E-06  0.2505585385E-06 -0.5844466887E+00  0.4603681284E-02  0.1461065249E+01 -0.1590204432E+02  0.1150907060E-01  0.6427050000E+02  0.4603681284E-02  0.7092857026E-09 -0.5844466887E+00 -0.5849823670E+00  0.0000000000E+00  0.5356783587E-03  0.4603681284E-02  0.1462406673E+01 -0.1589078845E+02  0.0000000000E+00 -0.1341424317E-02 -0.1125587707E-01  0.1150907060E-01  0.0000000000E+00  0.0000000000E+00 -0.5849823670E+00  0.4603681284E-02  0.7092857026E-09  0.5356783587E-03
46  0.1360518888E-06  0.5114833143E-06  0.6512763216E-07  0.2165467846E-06  0.4468790079E-06  0.1934928893E-06 -0.5844119906E+00  0.4603680830E-02  0.1460978503E+01 -0.1590211084E+02  0.1150906943E-01  0.6434380000E+02  0.4603680830E-02  0.7093610050E-09 -0.5844119906E+00 -0.5849476690E+00  0.0000000000E+00  0.5356783720E-03  0.4603680830E-02  0.1462319928E+01 -0.1589085497E+02  0.0000000000E+00 -0.1341424461E-02 -0.1125587525E-01  0.1150906943E-01  0.0000000000E+00  0.0000000000E+00 -0.5849476690E+00  0.4603680830E-02  0.7093610050E-09  0.5356783720E-03
47  0.1124350575E-06  0.4106754552E-06  0.5648500690E-07  0.1810280276E-06  0.3608936025E-06  0.1486686453E-06 -0.5843820467E+00  0.4603680222E-02  0.1460903643E+01 -0.1590217123E+02  0.1150906789E-01  0.6441690000E+02  0.4603680222E-02  0.7094315893E-09 -0.5843820467E+00 -0.5849177251E+00  0.0000000000E+00  0.5356783527E-03  0.4603680222E-02  0.1462245067E+01 -0.1589091536E+02  0.0000000000E+00 -0.1341424502E-02 -0.1125587300E-01  0.1150906789E-01  0.0000000000E+00  0.0000000000E+00 -0.5849177251E+00  0.4603680222E-02  0.7094315893E-09  0.5356783527E-03
48  0.9279781358E-07  0.3287650773E-06  0.4888724522E-07  0.1511433492E-06  0.2909457670E-06  0.1139991879E-06 -0.5843566176E+00  0.4603679547E-02  0.1460840070E+01 -0.1590222500E+02  0.1150906619E-01  0.6449020000E+02  0.4603679547E-02  0.7094977967E-09 -0.5843566176E+00 -0.5848922960E+00  0.0000000000E+00  0.5356783116E-03  0.4603679547E-02  0.1462181494E+01 -0.1589096913E+02  0.0000000000E+00 -0.1341424470E-02 -0.1125587059E-01  0.1150906619E-01  0.0000000000E+00  0.0000000000E+00 -0.5848922960E+00  0.4603679547E-02  0.7094977967E-09  0.5356783116E-03
49  0.7657022281E-07  0.2627069410E-06  0.4219922554E-07  0.1261595549E-06  0.2344752535E-06  0.8752406800E-07 -0.5843353864E+00  0.4603678869E-02  0.1460786992E+01 -0.1590227188E+02  0.1150906448E-01  0.6456360000E+02  0.4603678869E-02  0.7095588523E-09 -0.5843353864E+00 -0.5848710646E+00  0.0000000000E+00  0.5356782572E-03  0.4603678869E-02  0.1462128416E+01 -0.1589101602E+02  0.0000000000E+00 -0.1341424389E-02 -0.1125586821E-01  0.1150906448E-01  0.0000000000E+00  0.0000000000E+00 -0.5848710646E+00  0.4603678869E-02  0.7095588523E-09  0.5356782572E-03
50  0.6323143341E-07  0.2098102217E-06  0.3631967198E-07  0.1054206428E-06  0.1891886685E-06  0.6756488171E-07 -0.5843179652E+00  0.4603678227E-02  0.1460743439E+01 -0.1590231192E+02  0.1150906287E-01  0.6466780000E+02  0.4603678227E-02  0.7096137112E-09 -0.5843179652E+00 -0.5848536434E+00  0.0000000000E+00  0.5356781963E-03  0.4603678227E-02  0.1462084863E+01 -0.1589105606E+02  0.0000000000E+00 -0.1341424279E-02 -0.1125586599E-01  0.1150906287E-01  0.0000000000E+00  0.0000000000E+00 -0.5848536434E+00  0.4603678227E-02  0.7096137112E-09  0.5356781963E-03
51  0.5231889702E-07  0.1677424781E-06  0.3116557935E-07  0.8830998295E-07  0.1530693011E-06  0.5272420275E-07 -0.5843039112E+00  0.4603677647E-02  0.1460708304E+01 -0.1590234545E+02  0.1150906142E-01  0.7976730000E+02  0.4603677647E-02  0.7096614934E-09 -0.5843039112E+00 -0.5848395893E+00  0.0000000000E+00  0.5356781340E-03  0.4603677647E-02  0.1462049728E+01 -0.1589108958E+02  0.0000000000E+00 -0.1341424156E-02 -0.1125586400E-01  0.1150906142E-01  0.0000000000E+00  0.0000000000E+00 -0.5848395893E+00  0.4603677647E-02  0.7096614934E-09  0.5356781340E-03
52  0.4342798549E-07  0.1345104925E-06  0.2666208679E-07  0.7423779856E-07  0.1243737415E-06  0.4183947867E-07 -0.5842927608E+00  0.4603677139E-02  0.1460680428E+01 -0.1590237299E+02  0.1150906014E-01  0.7984090000E+02  0.4603677139E-02  0.7097017007E-09 -0.5842927608E+00 -0.5848284389E+00  0.0000000000E+00  0.5356780738E-03  0.4603677139E-02  0.1462021852E+01 -0.1589111713E+02  0.0000000000E+00 -0.1341424029E-02 -0.1125586227E-01  0.1150906014E-01  0.0000000000E+00  0.0000000000E+00 -0.5848284389E+00  0.4603677139E-02  0.7097017007E-09  0.5356780738E-03