# vtk DataFile Version 2.0
FUN3D:global_image_vtk
ASCII
DATASET UNSTRUCTURED_GRID
POINTS 357 double
    0.5000000000000000E+01    0.0000000000000000E+00    0.2500000000000000E+01
    0.5000000000000000E+01    0.0000000000000000E+00    0.1500000000000000E+01
    0.5000000000000000E+01    0.0000000000000000E+00    0.5000000000000000E+00
    0.5000000000000000E+01    0.0000000000000000E+00   -0.5000000000000000E+00
    0.5000000000000000E+01    0.0000000000000000E+00   -0.1500000000000000E+01
    0.5000000000000000E+01    0.0000000000000000E+00   -0.2500000000000000E+01
    0.4000000000000000E+01    0.0000000000000000E+00   -0.2500000000000000E+01
    0.3000000000000000E+01    0.0000000000000000E+00   -0.2500000000000000E+01
    0.2000000000000000E+01    0.0000000000000000E+00   -0.2500000000000000E+01
    0.9999999999999998E+00    0.0000000000000000E+00   -0.2500000000000000E+01
    0.0000000000000000E+00    0.0000000000000000E+00   -0.2500000000000000E+01
    0.0000000000000000E+00    0.0000000000000000E+00   -0.1500000000000000E+01
    0.0000000000000000E+00    0.0000000000000000E+00   -0.5000000000000000E+00
    0.0000000000000000E+00    0.0000000000000000E+00    0.5000000000000000E+00
    0.0000000000000000E+00    0.0000000000000000E+00    0.1500000000000000E+01
    0.0000000000000000E+00    0.0000000000000000E+00    0.2500000000000000E+01
    0.1000000000000000E+01    0.0000000000000000E+00    0.2500000000000000E+01
    0.2000000000000000E+01    0.0000000000000000E+00    0.2500000000000000E+01
    0.3000000000000000E+01    0.0000000000000000E+00    0.2500000000000000E+01
    0.4000000000000000E+01    0.0000000000000000E+00    0.2500000000000000E+01
    0.4251722454414101E+01    0.0000000000000000E+00    0.1683881519811194E+01
    0.6137332127746504E+00    0.0000000000000000E+00    0.1857879939968904E+01
    0.5055778377301318E+00    0.0000000000000000E+00   -0.1984051145810370E+01
    0.4417350419147004E+01    0.0000000000000000E+00   -0.1798049780917599E+01
    0.4277413896341787E+01    0.0000000000000000E+00    0.7849806286986014E+00
    0.4308949446070184E+01    0.0000000000000000E+00   -0.1030628045339280E+00
    0.3520446556869569E+01    0.0000000000000000E+00    0.1794049766750259E+00
    0.2591686382569276E+01    0.0000000000000000E+00    0.1667295362171870E+01
    0.1306794966956192E+01    0.0000000000000000E+00    0.1758138528035871E+01
    0.7010346092308208E+00    0.0000000000000000E+00    0.3961722714940701E-01
    0.2308484603929350E+01    0.0000000000000000E+00   -0.1644203313594280E+01
    0.2985842179142563E+01    0.0000000000000000E+00   -0.1902408850608312E+01
    0.7941286090671454E+00    0.0000000000000000E+00    0.1001771779085911E+01
    0.1020081380390785E+01    0.0000000000000000E+00   -0.1456956300840256E+01
    0.4356436167904402E+01    0.0000000000000000E+00   -0.1022551130153989E+01
    0.3730315927830617E+01    0.0000000000000000E+00   -0.1467697774434008E+01
    0.2084566650673803E+01    0.0000000000000000E+00   -0.2237556063676878E+00
    0.1900542590153839E+01    0.0000000000000000E+00   -0.1088755785946356E+01
    0.1324761360056765E+01    0.0000000000000000E+00   -0.5267852841860601E+00
    0.3681169751640886E+01    0.0000000000000000E+00    0.1040160628527462E+01
    0.3418876656618056E+01    0.0000000000000000E+00    0.1726168461930342E+01
    0.3751175205920376E+01    0.0000000000000000E+00   -0.6691259304140329E+00
    0.2889801815813465E+01    0.0000000000000000E+00   -0.8562661438192326E+00
    0.3017983410224082E+01    0.0000000000000000E+00    0.9231712184526961E+00
    0.1645821714894795E+01    0.0000000000000000E+00   -0.1837983080076178E+01
    0.1513509181197389E+01    0.0000000000000000E+00    0.1108836692078749E+01
    0.1919398798697967E+01    0.0000000000000000E+00    0.1580342757081665E+01
    0.2193859429875553E+01    0.0000000000000000E+00    0.7740897355665203E+00
    0.6091754699356742E+00    0.0000000000000000E+00   -0.7888248715753817E+00
    0.1441359832811715E+01    0.0000000000000000E+00    0.3490936567660688E+00
    0.2716632372076206E+01    0.0000000000000000E+00    0.1359772398136161E+00
    0.5000000000000000E+01   -0.8333333333333334E+00    0.2500000000000000E+01
    0.5000000000000000E+01   -0.8333333333333334E+00    0.1500000000000000E+01
    0.5000000000000000E+01   -0.8333333333333334E+00    0.5000000000000000E+00
    0.5000000000000000E+01   -0.8333333333333334E+00   -0.5000000000000000E+00
    0.5000000000000000E+01   -0.8333333333333334E+00   -0.1500000000000000E+01
    0.5000000000000000E+01   -0.8333333333333334E+00   -0.2500000000000000E+01
    0.4000000000000000E+01   -0.8333333333333334E+00   -0.2500000000000000E+01
    0.3000000000000000E+01   -0.8333333333333334E+00   -0.2500000000000000E+01
    0.2000000000000000E+01   -0.8333333333333334E+00   -0.2500000000000000E+01
    0.9999999999999998E+00   -0.8333333333333334E+00   -0.2500000000000000E+01
    0.0000000000000000E+00   -0.8333333333333334E+00   -0.2500000000000000E+01
    0.0000000000000000E+00   -0.8333333333333334E+00   -0.1500000000000000E+01
    0.0000000000000000E+00   -0.8333333333333334E+00   -0.5000000000000000E+00
    0.0000000000000000E+00   -0.8333333333333334E+00    0.5000000000000000E+00
    0.0000000000000000E+00   -0.8333333333333334E+00    0.1500000000000000E+01
    0.0000000000000000E+00   -0.8333333333333334E+00    0.2500000000000000E+01
    0.1000000000000000E+01   -0.8333333333333334E+00    0.2500000000000000E+01
    0.2000000000000000E+01   -0.8333333333333334E+00    0.2500000000000000E+01
    0.3000000000000000E+01   -0.8333333333333334E+00    0.2500000000000000E+01
    0.4000000000000000E+01   -0.8333333333333334E+00    0.2500000000000000E+01
    0.4251722454414101E+01   -0.8333333333333334E+00    0.1683881519811194E+01
    0.6137332127746504E+00   -0.8333333333333334E+00    0.1857879939968904E+01
    0.5055778377301318E+00   -0.8333333333333334E+00   -0.1984051145810370E+01
    0.4417350419147004E+01   -0.8333333333333334E+00   -0.1798049780917599E+01
    0.4277413896341787E+01   -0.8333333333333334E+00    0.7849806286986014E+00
    0.4308949446070184E+01   -0.8333333333333334E+00   -0.1030628045339280E+00
    0.3520446556869569E+01   -0.8333333333333334E+00    0.1794049766750259E+00
    0.2591686382569276E+01   -0.8333333333333334E+00    0.1667295362171870E+01
    0.1306794966956192E+01   -0.8333333333333334E+00    0.1758138528035871E+01
    0.7010346092308208E+00   -0.8333333333333334E+00    0.3961722714940701E-01
    0.2308484603929350E+01   -0.8333333333333334E+00   -0.1644203313594280E+01
    0.2985842179142563E+01   -0.8333333333333334E+00   -0.1902408850608312E+01
    0.7941286090671454E+00   -0.8333333333333334E+00    0.1001771779085911E+01
    0.1020081380390785E+01   -0.8333333333333334E+00   -0.1456956300840256E+01
    0.4356436167904402E+01   -0.8333333333333334E+00   -0.1022551130153989E+01
    0.3730315927830617E+01   -0.8333333333333334E+00   -0.1467697774434008E+01
    0.2084566650673803E+01   -0.8333333333333334E+00   -0.2237556063676878E+00
    0.1900542590153839E+01   -0.8333333333333334E+00   -0.1088755785946356E+01
    0.1324761360056765E+01   -0.8333333333333334E+00   -0.5267852841860601E+00
    0.3681169751640886E+01   -0.8333333333333334E+00    0.1040160628527462E+01
    0.3418876656618056E+01   -0.8333333333333334E+00    0.1726168461930342E+01
    0.3751175205920376E+01   -0.8333333333333334E+00   -0.6691259304140329E+00
    0.2889801815813465E+01   -0.8333333333333334E+00   -0.8562661438192326E+00
    0.3017983410224082E+01   -0.8333333333333334E+00    0.9231712184526961E+00
    0.1645821714894795E+01   -0.8333333333333334E+00   -0.1837983080076178E+01
    0.1513509181197389E+01   -0.8333333333333334E+00    0.1108836692078749E+01
    0.1919398798697967E+01   -0.8333333333333334E+00    0.1580342757081665E+01
    0.2193859429875553E+01   -0.8333333333333334E+00    0.7740897355665203E+00
    0.6091754699356742E+00   -0.8333333333333334E+00   -0.7888248715753817E+00
    0.1441359832811715E+01   -0.8333333333333334E+00    0.3490936567660688E+00
    0.2716632372076206E+01   -0.8333333333333334E+00    0.1359772398136161E+00
    0.5000000000000000E+01   -0.1666666666666667E+01    0.2500000000000000E+01
    0.5000000000000000E+01   -0.1666666666666667E+01    0.1500000000000000E+01
    0.5000000000000000E+01   -0.1666666666666667E+01    0.5000000000000000E+00
    0.5000000000000000E+01   -0.1666666666666667E+01   -0.5000000000000000E+00
    0.5000000000000000E+01   -0.1666666666666667E+01   -0.1500000000000000E+01
    0.5000000000000000E+01   -0.1666666666666667E+01   -0.2500000000000000E+01
    0.4000000000000000E+01   -0.1666666666666667E+01   -0.2500000000000000E+01
    0.3000000000000000E+01   -0.1666666666666667E+01   -0.2500000000000000E+01
    0.2000000000000000E+01   -0.1666666666666667E+01   -0.2500000000000000E+01
    0.9999999999999998E+00   -0.1666666666666667E+01   -0.2500000000000000E+01
    0.0000000000000000E+00   -0.1666666666666667E+01   -0.2500000000000000E+01
    0.0000000000000000E+00   -0.1666666666666667E+01   -0.1500000000000000E+01
    0.0000000000000000E+00   -0.1666666666666667E+01   -0.5000000000000000E+00
    0.0000000000000000E+00   -0.1666666666666667E+01    0.5000000000000000E+00
    0.0000000000000000E+00   -0.1666666666666667E+01    0.1500000000000000E+01
    0.0000000000000000E+00   -0.1666666666666667E+01    0.2500000000000000E+01
    0.1000000000000000E+01   -0.1666666666666667E+01    0.2500000000000000E+01
    0.2000000000000000E+01   -0.1666666666666667E+01    0.2500000000000000E+01
    0.3000000000000000E+01   -0.1666666666666667E+01    0.2500000000000000E+01
    0.4000000000000000E+01   -0.1666666666666667E+01    0.2500000000000000E+01
    0.4251722454414101E+01   -0.1666666666666667E+01    0.1683881519811194E+01
    0.6137332127746504E+00   -0.1666666666666667E+01    0.1857879939968904E+01
    0.5055778377301318E+00   -0.1666666666666667E+01   -0.1984051145810370E+01
[...]
POINT_DATA 357
SCALARS rho double 1
LOOKUP_TABLE default
   0.1001844303228986E+01
   0.1002462153511713E+01
   0.1010254859775169E+01
   0.1017040002458245E+01
   0.9775749895052929E+00
   0.8195922919683585E+00
   0.9815621821617191E+00
   0.9860019471972352E+00
   0.9730020094807400E+00
   0.9256617895926978E+00
   0.1504231801303742E+01
   0.1012996599554401E+01
   0.1036982942077256E+01
   0.1006895183919998E+01
   0.1005311298666423E+01
   0.1003638843064138E+01
   0.1003980657330678E+01
   0.1003359050838508E+01
   0.1003615341986067E+01
   0.1003628762205980E+01
   0.1002636593986133E+01
   0.1004248972561253E+01
   0.1097894196748239E+01
   0.9934522394867976E+00
   0.1003231882920818E+01
   0.1004900598281305E+01
   0.9974800164449478E+00
   0.1003970067255441E+01
   0.1004128972551534E+01
   0.1010971996954475E+01
   0.1010591311196864E+01
   0.9951212175806572E+00
   0.1006863141039602E+01
   0.1057843267637889E+01
   0.9928138493022773E+00
   0.9747063944052574E+00
   0.9972648851254744E+00
   0.9984016499606472E+00
   0.9970628830564668E+00
   0.1003103717420623E+01
   0.1003649810874098E+01
   0.1002580322319047E+01
   0.1005653449520554E+01
   0.1000894246468333E+01
   0.9683429824132080E+00
   0.1005176280749528E+01
   0.1004108227478191E+01
   0.1003852487943500E+01
   0.9995918683209629E+00
   0.1009709291519610E+01
   0.9950333947853032E+00
   0.1001794543938042E+01
   0.1002432178799760E+01
   0.1010524422521707E+01
   0.1018598479369568E+01
   0.9816397656772853E+00
   0.8197302534903306E+00
   0.9814354753623341E+00
   0.9868388345094703E+00
   0.9728903579476174E+00
   0.9236106399699840E+00
   0.1505805236514269E+01
   0.1010231683688524E+01
   0.1036580818604800E+01
   0.1006677142216659E+01
   0.1005245625306064E+01
   0.1003618140119606E+01
   0.1003920878783930E+01
   0.1003283255531192E+01
   0.1003547109281495E+01
   0.1003583243015299E+01
   0.1002619724174778E+01
   0.1004175623854306E+01
   0.1098400746011885E+01
   0.9957152476670963E+00
   0.1003290051771747E+01
   0.1005353897200715E+01
   0.9975988142292520E+00
   0.1003892798497699E+01
   0.1004030628804401E+01
   0.1010692710082823E+01
   0.1011877578176778E+01
   0.9964254754517302E+00
   0.1006720932034865E+01
   0.1058124900491558E+01
   0.9941734845699318E+00
   0.9757317896856922E+00
   0.9969337610267014E+00
   0.9985741174768840E+00
   0.9965896710116492E+00
   0.1003083724626428E+01
   0.1003595974095842E+01
   0.1003289362967157E+01
   0.1005981785961151E+01
   0.1000777328733316E+01
   0.9689622201180046E+00
   0.1005033127207640E+01
   0.1004016742865623E+01
   0.1003740877575704E+01
   0.9985686593369631E+00
   0.1009523819932276E+01
   0.9947812169932186E+00
   0.1001786540357896E+01
   0.1002381151130232E+01
   0.1010491913356734E+01
   0.1018811401069682E+01
   0.9821062767091339E+00
   0.8202488446650222E+00
   0.9816729867205626E+00
   0.9871390251067703E+00
   0.9730317787843707E+00
   0.9232127128104664E+00
   0.1506205852404468E+01
   0.1010117175161485E+01
   0.1036693391709122E+01
   0.1006731048374319E+01
   0.1005281466993150E+01
   0.1003631960995726E+01
   0.1003956603518082E+01
   0.1003327954080630E+01
   0.1003590321430090E+01
   0.1003604404852246E+01
   0.1002616984253451E+01
   0.1004218991659553E+01
   0.1098887184190557E+01
   0.9960039444149164E+00
   0.1003271482792234E+01
   0.1005398736587050E+01
   0.9976229557756480E+00
   0.1003936588258965E+01
   0.1004082591121430E+01
   0.1010804063706276E+01
   0.1012126628179366E+01
   0.9967193250398058E+00
   0.1006790323141939E+01
   0.1058478502703343E+01
   0.9944930848558373E+00
   0.9760108806483604E+00
   0.9970050626789538E+00
   0.9987202943269643E+00
   0.9966969237972146E+00
   0.1003101000480789E+01
   0.1003620461342243E+01
   0.1003409051024735E+01
   0.1006138048235545E+01
   0.1000819480310121E+01
   0.9692351895383664E+00
   0.1005103550055638E+01
   0.1004073239312993E+01
   0.1003820020698764E+01
   0.9987157985981973E+00
   0.1009632298238697E+01
   0.9948283106305685E+00
   0.1001814043272108E+01
   0.1002396443626612E+01
   0.1010505061537342E+01
   0.1018892330248973E+01
   0.9823290269889186E+00
   0.8203844761548230E+00
   0.9818074435130969E+00
   0.9871916508633758E+00
   0.9730680727543652E+00
   0.9231863377838325E+00
   0.1506150305077790E+01
   0.1009946246035400E+01
   0.1036628114853149E+01
   0.1006678763153916E+01
   0.1005256302912162E+01
   0.1003623776866184E+01
   0.1003929223736332E+01
   0.1003304657785696E+01
   0.1003586667704346E+01
   0.1003623039127980E+01
   0.1002637431985630E+01
   0.1004189340219794E+01
   0.1098670868446910E+01
   0.9961275911457181E+00
   0.1003298132109794E+01
   0.1005444222787878E+01
   0.9976507248135530E+00
   0.1003930948114020E+01
   0.1004051779702218E+01
   0.1010737111993089E+01
   0.1012171051751334E+01
   0.9967286768518747E+00
   0.1006751910853445E+01
   0.1058403880933307E+01
   0.9945966988993814E+00
   0.9760723050907731E+00
   0.9969811858632466E+00
   0.9986902557514959E+00
   0.9966439627550648E+00
   0.1003121355618327E+01
   0.1003628611099312E+01
   0.1003464289067612E+01
   0.1006140280963771E+01
   0.1000823027407358E+01
   0.9691851005360017E+00
   0.1005078159368834E+01
   0.1004054929624598E+01
   0.1003806305205287E+01
   0.9986090671586199E+00
   0.1009600643085522E+01
   0.9948164845586142E+00
   0.1001786482342810E+01
   0.1002381160720440E+01
   0.1010491969498874E+01
   0.1018811271232895E+01
   0.9821057501372532E+00
   0.8202471973399577E+00
   0.9816720779855335E+00
   0.9871381416697150E+00
   0.9730306617136267E+00
   0.9232121131162102E+00
   0.1506201002108344E+01
   0.1010117776487413E+01
   0.1036693032031762E+01
   0.1006731030569342E+01
   0.1005281463356571E+01
   0.1003631952803631E+01
   0.1003956609153787E+01
   0.1003327944367145E+01
   0.1003590279550748E+01
   0.1003604338643016E+01
   0.1002616961915223E+01
   0.1004218986327593E+01
   0.1098885597472458E+01
   0.9960033786062547E+00
   0.1003271511011106E+01
   0.1005398727999952E+01
   0.9976229968250178E+00
   0.1003936553410055E+01
   0.1004082578668206E+01
   0.1010804030338612E+01
   0.1012126078656209E+01
   0.9967185929768017E+00
   0.1006790288129857E+01
   0.1058477844397384E+01
   0.9944927186999890E+00
   0.9760103310347065E+00
   0.9970051353546746E+00
   0.9987201446437990E+00
   0.9966970523112291E+00
   0.1003100998399942E+01
   0.1003620429566187E+01
   0.1003408916683387E+01
   0.1006137903091978E+01
   0.1000819483785004E+01
   0.9692347467483871E+00
   0.1005103508089108E+01
   0.1004073207523593E+01
   0.1003819989872057E+01
   0.9987159823199608E+00
   0.1009632248132221E+01
   0.9948283764468581E+00
   0.1001794444640552E+01
   0.1002432201889825E+01
   0.1010524540413514E+01
   0.1018598268950960E+01
   0.9816387018865700E+00
   0.8197262344316548E+00
   0.9814330773875642E+00
   0.9868363616845675E+00
   0.9728878157838166E+00
   0.9236092304860147E+00
   0.1505795955536860E+01
   0.1010232851345777E+01
   0.1036580170972002E+01
   0.1006677112038316E+01
   0.1005245621937435E+01
   0.1003618126085989E+01
   0.1003920887465725E+01
   0.1003283236580154E+01
   0.1003547033443040E+01
   0.1003583127046639E+01
   0.1002619688331461E+01
   0.1004175616239562E+01
   0.1098397655407245E+01
   0.9957140340757342E+00
   0.1003290111133200E+01
   0.1005353901068400E+01
   0.9975988926608124E+00
   0.1003892736312902E+01
   0.1004030606431344E+01
   0.1010692653607396E+01
   0.1011876499340312E+01
   0.9964239690376652E+00
   0.1006720872093458E+01
   0.1058123640918747E+01
   0.9941727785858372E+00
   0.9757306955043172E+00
   0.9969338923824465E+00
   0.9985738157357278E+00
   0.9965899155831728E+00
   0.1003083725833189E+01
   0.1003595919016059E+01
   0.1003289105576742E+01
   0.1005981499881122E+01
   0.1000777338217292E+01
   0.9689613066834030E+00
   0.1005033053222116E+01
   0.1004016688076363E+01
   0.1003740821757600E+01
   0.9985690293027936E+00
   0.1009523733911461E+01
   0.9947813281131640E+00
   0.1001844188900795E+01
   0.1002462178650357E+01
   0.1010254995453776E+01
   0.1017039748230223E+01
   0.9775734334919032E+00
   0.8195858236575712E+00
   0.9815572974610695E+00
   0.9859968888816110E+00
   0.9729979563458220E+00
   0.9256594711171777E+00
   0.1504218972453028E+01
   0.1012998117197659E+01
   0.1036982103902237E+01
   0.1006895132552363E+01
   0.1005311292771092E+01
   0.1003638828888070E+01
   0.1003980666190945E+01
   0.1003359024165110E+01
   0.1003615250901944E+01
   0.1003628627265320E+01
   0.1002636551207496E+01
   0.1004248964707200E+01
   0.1097889920965716E+01
   0.9934502459476849E+00
   0.1003231947442012E+01
   0.1004900593002568E+01
   0.9974801104819698E+00
   0.1003969994693895E+01
   0.1004128940624569E+01
   0.1010971927074692E+01
   0.1010589871665589E+01
   0.9951191210162883E+00
   0.1006863066119041E+01
   0.1057841543880188E+01
   0.9928129204679911E+00
   0.9747049330678822E+00
   0.9972650268418838E+00
   0.9984011842933633E+00
   0.9970631746291685E+00
   0.1003103718812597E+01
   0.1003649747125517E+01
   0.1002579997756643E+01
   0.1005653081258048E+01
   0.1000894263867663E+01
   0.9683416822737707E+00
   0.1005176186672988E+01
   0.1004108159578216E+01
   0.1003852419778089E+01
   0.9995923567565397E+00
   0.1009709191039359E+01
   0.9950335179051811E+00
SCALARS u double 1
LOOKUP_TABLE default
   0.4934895067978586E+00
   0.5001920388928434E+00
   0.5154174974711628E+00
   0.5207257478672753E+00
   0.4786177605834773E+00
   0.0000000000000000E+00
   0.0000000000000000E+00
   0.0000000000000000E+00
   0.0000000000000000E+00
   0.0000000000000000E+00
   0.0000000000000000E+00
   0.4770487322617908E+00
   0.4690002402316865E+00
   0.4933267014148221E+00
   0.4954371249989105E+00
   0.4964103435904117E+00
   0.4963567007649662E+00
   0.4962712929891828E+00
   0.4925077279177251E+00
   0.4899357877077853E+00
   0.4933137245438036E+00
   0.4961856248039271E+00
   0.4532618635738269E+00
   0.4091587718851650E+00
   0.5127202108246876E+00
   0.5481177483736315E+00
   0.5420899208842918E+00
   0.4941073812329396E+00
   0.4963361476541078E+00
   0.4881155804005150E+00
   0.4281853139312155E+00
   0.3290450084361934E+00
   0.4926114901842811E+00
   0.5412425624392502E+00
   0.5473441368120375E+00
   0.4798271834992369E+00
   0.5437932695204822E+00
   0.5886449304109443E+00
   0.5349877568468362E+00
   0.5016627360897731E+00
   0.4929556059877613E+00
   0.5683293675998734E+00
   0.5703893644437944E+00
   0.5028977472228909E+00
   0.3942260867480785E+00
   0.4932425770162667E+00
   0.4946916345790569E+00
   0.4993873842833900E+00
   0.4962731985880853E+00
   0.4933648993653403E+00
   0.5327706395065509E+00
   0.4933766945407343E+00
   0.5000161142406553E+00
   0.5153703673049658E+00
   0.5216936318480595E+00
   0.4820142636119560E+00
   0.0000000000000000E+00
   0.0000000000000000E+00
   0.0000000000000000E+00
   0.0000000000000000E+00
   0.0000000000000000E+00
   0.0000000000000000E+00
   0.4779844853590752E+00
   0.4695953021655178E+00
   0.4936135804793109E+00
   0.4955289084456131E+00
   0.4964376793668906E+00
   0.4965048124720173E+00
   0.4964631676904354E+00
   0.4926016214444951E+00
   0.4898798141463087E+00
   0.4930716683218839E+00
   0.4962910267844929E+00
   0.4570071744263158E+00
   0.4164023363342279E+00
   0.5124293561592917E+00
   0.5487795431304920E+00
   0.5423125397719143E+00
   0.4941020361262175E+00
   0.4965061978869378E+00
   0.4882101066203992E+00
   0.4361091415716495E+00
   0.3345382034710969E+00
   0.4927977282685308E+00
   0.5460856130107817E+00
   0.5517728889891408E+00
   0.4880967067087864E+00
   0.5440763167761034E+00
   0.5933409580341982E+00
   0.5354159710627044E+00
   0.5012884920761117E+00
   0.4928096350283753E+00
   0.5713194505436718E+00
   0.5746356751003440E+00
   0.5024899466454674E+00
   0.4011341859755641E+00
   0.4932846947184198E+00
   0.4947874582154741E+00
   0.4991283630484979E+00
   0.4964603243334711E+00
   0.4931574231664316E+00
   0.5326356255651974E+00
   0.4933695866745400E+00
   0.4999792035752256E+00
   0.5153846126974552E+00
   0.5219287365400137E+00
   0.4822275996874710E+00
   0.0000000000000000E+00
   0.0000000000000000E+00
   0.0000000000000000E+00
   0.0000000000000000E+00
   0.0000000000000000E+00
   0.0000000000000000E+00
   0.4778530926220619E+00
   0.4694808183161809E+00
   0.4935599044742522E+00
   0.4954916187601373E+00
   0.4964129519964369E+00
   0.4964202549172600E+00
   0.4963995663827602E+00
   0.4925728238177663E+00
   0.4898650201231938E+00
   0.4929886117664711E+00
   0.4962426910863197E+00
   0.4569900673309613E+00
   0.4169720124932472E+00
   0.5123065467199809E+00
   0.5489526100088199E+00
   0.5422516811220419E+00
   0.4940312437120220E+00
   0.4964311791161277E+00
   0.4880652168462096E+00
   0.4368166813461596E+00
   0.3352482112072436E+00
   0.4927033000017704E+00
   0.5460796113356680E+00
   0.5525074884459152E+00
   0.4890170201083739E+00
   0.5439128995629064E+00
   0.5935976706977952E+00
   0.5352050914015207E+00
   0.5011298360813506E+00
   0.4927219157017534E+00
   0.5718272228996678E+00
   0.5750962368943641E+00
   0.5023170283889917E+00
   0.4014182159839999E+00
   0.4932114919254451E+00
   0.4947155520459143E+00
   0.4989954070291558E+00
   0.4961031815213698E+00
   0.4929973411561652E+00
   0.5324521915409253E+00
   0.4933679522522730E+00
   0.4999565999584120E+00
   0.5153490576944338E+00
   0.5218836845617828E+00
   0.4821254508861454E+00
   0.0000000000000000E+00
   0.0000000000000000E+00
   0.0000000000000000E+00
   0.0000000000000000E+00
   0.0000000000000000E+00
   0.0000000000000000E+00
   0.4780058222685265E+00
   0.4695891809736321E+00
   0.4936227930743832E+00
   0.4955200620583983E+00
   0.4964253411729113E+00
   0.4964715958664819E+00
   0.4964567627565280E+00
   0.4926298030415379E+00
   0.4899022669745925E+00
   0.4929837643219863E+00
   0.4962637308406841E+00
   0.4569921679450639E+00
   0.4168483385016048E+00
   0.5122323126169728E+00
   0.5488390064084728E+00
   0.5421043354765495E+00
   0.4940581762170310E+00
   0.4964693665447870E+00
   0.4880947736066248E+00
   0.4366607916754253E+00
   0.3351971630232742E+00
   0.4927532623036460E+00
   0.5459528336242272E+00
   0.5523895996737646E+00
   0.4888973454370362E+00
   0.5437596929145342E+00
   0.5933910137043078E+00
   0.5351035231465070E+00
   0.5010741094883184E+00
   0.4927442829899126E+00
   0.5716707677051289E+00
   0.5749144777513466E+00
   0.5022542530279909E+00
   0.4012398367494627E+00
   0.4932164865009718E+00
   0.4947502655653191E+00
   0.4989481280566416E+00
   0.4961170469216364E+00
   0.4929625894486662E+00
   0.5323154890021865E+00
   0.4933696433892356E+00
   0.4999791784497292E+00
   0.5153844772067424E+00
   0.5219287470175135E+00
   0.4822281498920425E+00
   0.0000000000000000E+00
   0.0000000000000000E+00
   0.0000000000000000E+00
   0.0000000000000000E+00
   0.0000000000000000E+00
   0.0000000000000000E+00
   0.4778529002955326E+00
   0.4694810362899831E+00
   0.4935599163735081E+00
   0.4954916183971079E+00
   0.4964129547347705E+00
   0.4964202626452637E+00
   0.4963995976837144E+00
   0.4925728790829787E+00
   0.4898650861946359E+00
   0.4929886444720171E+00
   0.4962426935650031E+00
   0.4569894138333633E+00
   0.4169725889543993E+00
   0.5123065001397754E+00
   0.5489525148814069E+00
   0.5422515970995283E+00
   0.4940313004185650E+00
   0.4964311984172574E+00
   0.4880652585938303E+00
   0.4368166685253683E+00
   0.3352484078452241E+00
   0.4927033245229288E+00
   0.5460793641452748E+00
   0.5525076714102859E+00
   0.4890172577624682E+00
   0.5439127864852690E+00
   0.5935973167533091E+00
   0.5352050227493468E+00
   0.5011298462768798E+00
   0.4927219657017513E+00
   0.5718271839362512E+00
   0.5750960972595061E+00
   0.5023170485634587E+00
   0.4014180566920692E+00
   0.4932115422244805E+00
   0.4947155965738694E+00
   0.4989954528440674E+00
   0.4961033806355160E+00
   0.4929974085208347E+00
   0.5324521224937511E+00
   0.4933767961947047E+00
   0.5000160643737364E+00
   0.5153701068335635E+00
   0.5216936112168266E+00
   0.4820154712430156E+00
   0.0000000000000000E+00
   0.0000000000000000E+00
   0.0000000000000000E+00
   0.0000000000000000E+00
   0.0000000000000000E+00
   0.0000000000000000E+00
   0.4779840633624662E+00
   0.4695956964614926E+00
   0.4936135972967212E+00
   0.4955289076703779E+00
   0.4964376846652670E+00
   0.4965048274184079E+00
   0.4964632344708099E+00
   0.4926017339514581E+00
   0.4898799421372943E+00
   0.4930717266904331E+00
   0.4962910287794797E+00
   0.4570058670149758E+00
   0.4164036529061975E+00
   0.5124292570012848E+00
   0.5487793461801240E+00
   0.5423123697502173E+00
   0.4941021452344407E+00
   0.4965062380475982E+00
   0.4882101845644954E+00
   0.4361091089058778E+00
   0.3345385711256931E+00
   0.4927977701585567E+00
   0.5460851207496427E+00
   0.5517732184828227E+00
   0.4880971428646418E+00
   0.5440761105881515E+00
   0.5933403144656617E+00
   0.5354158466288796E+00
   0.5012885070908318E+00
   0.4928097292538449E+00
   0.5713194159803415E+00
   0.5746354182163143E+00
   0.5024899892921119E+00
   0.4011338391147795E+00
   0.4932847868352022E+00
   0.4947875427236193E+00
   0.4991284485315529E+00
   0.4964606415906261E+00
   0.4931575534641639E+00
   0.5326355196128498E+00
   0.4934896312527388E+00
   0.5001919756989617E+00
   0.5154171882942926E+00
   0.5207257298636863E+00
   0.4786195395316052E+00
   0.0000000000000000E+00
   0.0000000000000000E+00
   0.0000000000000000E+00
   0.0000000000000000E+00
   0.0000000000000000E+00
   0.0000000000000000E+00
   0.4770481856273647E+00
   0.4690007807534546E+00
   0.4933267286491395E+00
   0.4954371249379988E+00
   0.4964103486262723E+00
   0.4963567198271411E+00
   0.4962713876918948E+00
   0.4925078792252137E+00
   0.4899359564223910E+00
   0.4933138084689545E+00
   0.4961856247505469E+00
   0.4532600190557524E+00
   0.4091607013009985E+00
   0.5127200999559501E+00
   0.5481175336598523E+00
   0.5420897243787072E+00
   0.4941075322124195E+00
   0.4963362106405096E+00
   0.4881157366436356E+00
   0.4281852274596140E+00
   0.3290454446679705E+00
   0.4926115556039805E+00
   0.5412418740720205E+00
   0.5473445885738277E+00
   0.4798277338913138E+00
   0.5437930662191176E+00
   0.5886441323422118E+00
   0.5349876574985575E+00
   0.5016627731652747E+00
   0.4929557339817441E+00
   0.5683293608115259E+00
   0.5703890398835628E+00
   0.5028978250066090E+00
   0.3942255823768865E+00
   0.4932427182297638E+00
   0.4946917570102910E+00
   0.4993875323119925E+00
   0.4962736439415946E+00
   0.4933651138120816E+00
   0.5327705631531320E+00
SCALARS v double 1
LOOKUP_TABLE default
   0.0000000000000000E+00
   0.0000000000000000E+00
   0.0000000000000000E+00
   0.0000000000000000E+00
   0.0000000000000000E+00
   0.0000000000000000E+00
   0.0000000000000000E+00
   0.0000000000000000E+00
   0.0000000000000000E+00
   0.0000000000000000E+00
   0.0000000000000000E+00
   0.0000000000000000E+00
   0.0000000000000000E+00
   0.0000000000000000E+00
   0.0000000000000000E+00
   0.0000000000000000E+00
   0.0000000000000000E+00
   0.0000000000000000E+00
   0.0000000000000000E+00
   0.0000000000000000E+00
   0.0000000000000000E+00
   0.0000000000000000E+00
   0.0000000000000000E+00
   0.0000000000000000E+00
   0.0000000000000000E+00
   0.0000000000000000E+00
   0.0000000000000000E+00
   0.0000000000000000E+00
   0.0000000000000000E+00
   0.0000000000000000E+00
   0.0000000000000000E+00
   0.0000000000000000E+00
   0.0000000000000000E+00
   0.0000000000000000E+00
   0.0000000000000000E+00
   0.0000000000000000E+00
   0.0000000000000000E+00
   0.0000000000000000E+00
   0.0000000000000000E+00
   0.0000000000000000E+00
   0.0000000000000000E+00
   0.0000000000000000E+00
   0.0000000000000000E+00
   0.0000000000000000E+00
   0.0000000000000000E+00
   0.0000000000000000E+00
   0.0000000000000000E+00
   0.0000000000000000E+00
   0.0000000000000000E+00