title="tecplot geometry and solution file"
variables = x y z rho u v w p mach temperature
zone t="boundary 1 bc-1", solutiontime= 0.4000000E+02, strandid=1001, i=42, j=30, f=feblock
  0.000000000000E+00  0.000000000000E+00  0.000000000000E+00  0.000000000000E+00  0.000000000000E+00  0.000000000000E+00  0.000000000000E+00
  0.000000000000E+00  0.000000000000E+00  0.000000000000E+00  0.000000000000E+00  0.000000000000E+00  0.000000000000E+00  0.000000000000E+00
  0.000000000000E+00  0.000000000000E+00  0.000000000000E+00  0.000000000000E+00  0.000000000000E+00  0.000000000000E+00  0.000000000000E+00
  0.000000000000E+00  0.000000000000E+00  0.000000000000E+00  0.000000000000E+00  0.000000000000E+00  0.000000000000E+00  0.000000000000E+00
  0.000000000000E+00  0.000000000000E+00  0.000000000000E+00  0.000000000000E+00  0.000000000000E+00  0.000000000000E+00  0.000000000000E+00
  0.000000000000E+00  0.000000000000E+00  0.000000000000E+00  0.000000000000E+00  0.000000000000E+00  0.000000000000E+00  0.000000000000E+00
  0.000000000000E+00  0.000000000000E+00 -0.833333333333E+00  0.000000000000E+00  0.000000000000E+00 -0.833333333333E+00 -0.166666666667E+01
  0.000000000000E+00 -0.833333333333E+00 -0.833333333333E+00  0.000000000000E+00 -0.166666666667E+01 -0.250000000000E+01 -0.833333333333E+00
 -0.166666666667E+01 -0.166666666667E+01 -0.833333333333E+00 -0.250000000000E+01 -0.333333333333E+01 -0.166666666667E+01 -0.250000000000E+01
 -0.250000000000E+01 -0.166666666667E+01 -0.333333333333E+01 -0.416666666667E+01 -0.250000000000E+01 -0.333333333333E+01 -0.333333333333E+01
 -0.250000000000E+01 -0.416666666667E+01 -0.500000000000E+01 -0.333333333333E+01 -0.416666666667E+01 -0.416666666667E+01 -0.333333333333E+01
 -0.500000000000E+01 -0.416666666667E+01 -0.500000000000E+01 -0.500000000000E+01 -0.416666666667E+01 -0.500000000000E+01 -0.500000000000E+01
  0.250000000000E+01  0.150000000000E+01  0.250000000000E+01  0.500000000000E+00 -0.150000000000E+01  0.150000000000E+01  0.250000000000E+01
 -0.500000000000E+00  0.500000000000E+00 -0.150000000000E+01 -0.250000000000E+01  0.150000000000E+01  0.250000000000E+01 -0.500000000000E+00
  0.500000000000E+00 -0.150000000000E+01 -0.250000000000E+01  0.150000000000E+01  0.250000000000E+01 -0.500000000000E+00  0.500000000000E+00
 -0.150000000000E+01 -0.250000000000E+01  0.150000000000E+01  0.250000000000E+01 -0.500000000000E+00  0.500000000000E+00 -0.150000000000E+01
 -0.250000000000E+01  0.150000000000E+01  0.250000000000E+01 -0.500000000000E+00  0.500000000000E+00 -0.150000000000E+01 -0.250000000000E+01
  0.150000000000E+01 -0.500000000000E+00  0.500000000000E+00 -0.150000000000E+01 -0.250000000000E+01 -0.500000000000E+00 -0.250000000000E+01
  0.100325468710E+01  0.100705613989E+01  0.100321664818E+01  0.100551283037E+01  0.101082713876E+01  0.100700585596E+01  0.100324041296E+01
  0.103971189423E+01  0.100519715308E+01  0.100773541937E+01  0.150963252872E+01  0.100704499053E+01  0.100321862952E+01  0.103942564246E+01
  0.100526722184E+01  0.100772282230E+01  0.151119159118E+01  0.100700899459E+01  0.100324040645E+01  0.103956494884E+01  0.100519465899E+01
  0.100753645266E+01  0.151169997243E+01  0.100704495466E+01  0.100321663659E+01  0.103945071465E+01  0.100526726744E+01  0.100772356433E+01
  0.151158799066E+01  0.100700579482E+01  0.100325467604E+01  0.103956450897E+01  0.100519724751E+01  0.100773686305E+01  0.151169466655E+01
  0.100705606287E+01  0.103942485504E+01  0.100551295734E+01  0.101082912319E+01  0.151118143968E+01  0.103971082593E+01  0.150961853938E+01
  0.496172850208E+00  0.493568200646E+00  0.496208456023E+00  0.494242533715E+00  0.479349380968E+00  0.493623356276E+00  0.496186625435E+00
  0.466760927052E+00  0.494600285385E+00  0.480706471944E+00  0.000000000000E+00  0.493582257018E+00  0.496208569977E+00  0.467312495467E+00
  0.494528455918E+00  0.480516530851E+00  0.000000000000E+00  0.493622209205E+00  0.496186633814E+00  0.467166047327E+00  0.494608798867E+00
  0.480691999160E+00  0.000000000000E+00  0.493582287807E+00  0.496208470901E+00  0.467316100192E+00  0.494528417301E+00  0.480516230797E+00
  0.000000000000E+00  0.493623412464E+00  0.496172868410E+00  0.467166321179E+00  0.494600196268E+00  0.480705822967E+00  0.000000000000E+00
  0.493568273000E+00  0.467313003499E+00  0.494242389722E+00  0.479348441771E+00  0.000000000000E+00  0.466761657618E+00  0.000000000000E+00
  0.000000000000E+00  0.000000000000E+00  0.723263384105E-06  0.000000000000E+00  0.000000000000E+00  0.733009385955E-05  0.439715747267E-07
  0.000000000000E+00 -0.525732091607E-04 -0.110005110272E-02  0.000000000000E+00  0.312393783138E-05  0.445100617451E-08  0.953821782597E-04
 -0.960452298754E-05 -0.156840470943E-03  0.000000000000E+00 -0.665585926448E-08 -0.355371886479E-07  0.861409469313E-04  0.326876746239E-07
  0.319512246084E-06  0.000000000000E+00 -0.313296468959E-05 -0.718713605102E-06 -0.174764219840E-06  0.966351133450E-05  0.157454566915E-03
  0.000000000000E+00 -0.733925743869E-05  0.000000000000E+00 -0.864570098738E-04  0.526096047211E-04  0.110052586683E-02  0.000000000000E+00
  0.000000000000E+00 -0.956138341217E-04  0.000000000000E+00  0.000000000000E+00  0.000000000000E+00  0.000000000000E+00  0.000000000000E+00
  0.241572797294E-02  0.285786660887E-03  0.240482600432E-02  0.435923966373E-02  0.431989181193E-01  0.299471076087E-03  0.241691025064E-02
 -0.476064445537E-02  0.448041193402E-02  0.419903318071E-01  0.000000000000E+00  0.290710997063E-03  0.240451679173E-02 -0.494861699388E-02
  0.446024133164E-02  0.421091751955E-01  0.000000000000E+00  0.295500050880E-03  0.241689997171E-02 -0.497629445708E-02  0.446321472046E-02
  0.420803545574E-01  0.000000000000E+00  0.290714647531E-03  0.240480910651E-02 -0.500147482079E-02  0.446018675257E-02  0.421089103416E-01
  0.000000000000E+00  0.299477597902E-03  0.241570767148E-02 -0.497621437370E-02  0.448031781240E-02  0.419898360719E-01  0.000000000000E+00
  0.285800802945E-03 -0.494847937006E-02  0.435910901240E-02  0.431983101978E-01  0.000000000000E+00 -0.476045100490E-02  0.000000000000E+00
  0.717659732925E+00  0.721036599522E+00  0.717626131036E+00  0.721854043832E+00  0.749905596977E+00  0.720971898195E+00  0.717649885752E+00
  0.745371565815E+00  0.721601644258E+00  0.747615386630E+00  0.107828385697E+01  0.721011509752E+00  0.717628141884E+00  0.744861248645E+00
  0.721675102343E+00  0.747655974986E+00  0.107939863030E+01  0.720975289283E+00  0.717649876854E+00  0.744984215144E+00  0.721601166628E+00
  0.747442894796E+00  0.107976277983E+01  0.721011479627E+00  0.717626114964E+00  0.744875426945E+00  0.721675109438E+00  0.747656282464E+00
  0.107968379685E+01  0.720971848557E+00  0.717659715135E+00  0.744983935163E+00  0.721601660672E+00  0.747615966027E+00  0.107976054634E+01
  0.721036538761E+00  0.744860772945E+00  0.721854061137E+00  0.749906366799E+00  0.107939435854E+01  0.745370933934E+00  0.107827813123E+01
  0.495815883441E+00  0.492982397154E+00  0.495853617998E+00  0.493017236299E+00  0.472258476147E+00  0.493047308220E+00  0.495829528588E+00
  0.465932665743E+00  0.493383967861E+00  0.473480201946E+00  0.000000000000E+00  0.493002288199E+00  0.495853525311E+00  0.466580685686E+00
  0.493304221365E+00  0.473287688564E+00  0.000000000000E+00  0.493045768886E+00  0.495829538377E+00  0.466427531481E+00  0.493391853024E+00
  0.473480400580E+00  0.000000000000E+00  0.493002320471E+00  0.495853635471E+00  0.466586023013E+00  0.493304191119E+00  0.473287449715E+00
  0.000000000000E+00  0.493047366352E+00  0.495815904944E+00  0.466427793041E+00  0.493383895689E+00  0.473479681984E+00  0.000000000000E+00
  0.492982471351E+00  0.466581163716E+00  0.493017116742E+00  0.472257725918E+00  0.000000000000E+00  0.465933351090E+00  0.000000000000E+00
  0.100146417357E+01  0.100237831769E+01  0.100145525423E+01  0.100505496383E+01  0.103862252556E+01  0.100233841889E+01  0.100146468092E+01
  0.100366283961E+01  0.100501906404E+01  0.103862732337E+01  0.999976730124E+00  0.100235453544E+01  0.100145608252E+01  0.100325189750E+01
  0.100505131504E+01  0.103869669498E+01  0.999977826273E+00  0.100234000930E+01  0.100146467500E+01  0.100328305832E+01  0.100502089247E+01
  0.103859274764E+01  0.999978778411E+00  0.100235452927E+01  0.100145524337E+01  0.100324679470E+01  0.100505127934E+01  0.103869635731E+01
  0.999979706720E+00  0.100233841073E+01  0.100146415978E+01  0.100328310579E+01  0.100501899248E+01  0.103862664036E+01  0.999980219764E+00
  0.100237830989E+01  0.100325201679E+01  0.100505486102E+01  0.103862155277E+01  0.999980586236E+00  0.100366302002E+01  0.999980686745E+00
         3         6         2         1
         6         9         4         2
         9        14         8         4
        14        10         5         8
        10        17        11         5
         7        12         6         3
        12        15         9         6
        15        20        14         9
        20        16        10        14
        16        23        17        10
        13        18        12         7
        18        21        15        12
        21        26        20        15
        26        22        16        20
        22        29        23        16
        19        24        18        13
        24        27        21        18
        27        32        26        21
        32        28        22        26
        28        35        29        22
        25        30        24        19
        30        33        27        24
        33        37        32        27
        37        34        28        32
        34        40        35        28
        31        36        30        25
        36        38        33        30
        38        41        37        33
        41        39        34        37
        39        42        40        34
zone t="boundary 2 bc-2", solutiontime= 0.4000000E+02, strandid=1002, i=51, j=80, f=feblock
  0.500000000000E+01  0.500000000000E+01  0.400000000000E+01  0.425172245441E+01  0.500000000000E+01  0.427741389634E+01  0.300000000000E+01
  0.341887665662E+01  0.368116975164E+01  0.500000000000E+01  0.430894944607E+01  0.352044655687E+01  0.200000000000E+01  0.259168638257E+01
  0.301798341022E+01  0.500000000000E+01  0.435643616790E+01  0.375117520592E+01  0.271663237208E+01  0.288980181581E+01  0.100000000000E+01
  0.191939879870E+01  0.130679496696E+01  0.219385942988E+01  0.500000000000E+01  0.441735041915E+01  0.373031592783E+01  0.208456665067E+01
  0.230848460393E+01  0.190054259015E+01  0.298584217914E+01  0.000000000000E+00  0.613733212775E+00  0.151350918120E+01  0.794128609067E+00
  0.144135983281E+01  0.400000000000E+01  0.132476136006E+01  0.200000000000E+01  0.164582171489E+01  0.102008138039E+01  0.300000000000E+01
  0.000000000000E+00  0.000000000000E+00  0.701034609231E+00  0.609175469936E+00  0.100000000000E+01  0.505577837730E+00  0.000000000000E+00
  0.000000000000E+00  0.000000000000E+00
 -0.500000000000E+01 -0.500000000000E+01 -0.500000000000E+01 -0.500000000000E+01 -0.500000000000E+01 -0.500000000000E+01 -0.500000000000E+01
 -0.500000000000E+01 -0.500000000000E+01 -0.500000000000E+01 -0.500000000000E+01 -0.500000000000E+01 -0.500000000000E+01 -0.500000000000E+01
 -0.500000000000E+01 -0.500000000000E+01 -0.500000000000E+01 -0.500000000000E+01 -0.500000000000E+01 -0.500000000000E+01 -0.500000000000E+01
 -0.500000000000E+01 -0.500000000000E+01 -0.500000000000E+01 -0.500000000000E+01 -0.500000000000E+01 -0.500000000000E+01 -0.500000000000E+01
 -0.500000000000E+01 -0.500000000000E+01 -0.500000000000E+01 -0.500000000000E+01 -0.500000000000E+01 -0.500000000000E+01 -0.500000000000E+01
 -0.500000000000E+01 -0.500000000000E+01 -0.500000000000E+01 -0.500000000000E+01 -0.500000000000E+01 -0.500000000000E+01 -0.500000000000E+01
 -0.500000000000E+01 -0.500000000000E+01 -0.500000000000E+01 -0.500000000000E+01 -0.500000000000E+01 -0.500000000000E+01 -0.500000000000E+01
 -0.500000000000E+01 -0.500000000000E+01
  0.250000000000E+01  0.150000000000E+01  0.250000000000E+01  0.168388151981E+01  0.500000000000E+00  0.784980628699E+00  0.250000000000E+01
  0.172616846193E+01  0.104016062853E+01 -0.500000000000E+00 -0.103062804534E+00  0.179404976675E+00  0.250000000000E+01  0.166729536217E+01
  0.923171218453E+00 -0.150000000000E+01 -0.102255113015E+01 -0.669125930414E+00  0.135977239814E+00 -0.856266143819E+00  0.250000000000E+01
  0.158034275708E+01  0.175813852804E+01  0.774089735567E+00 -0.250000000000E+01 -0.179804978092E+01 -0.146769777443E+01 -0.223755606368E+00
 -0.164420331359E+01 -0.108875578595E+01 -0.190240885061E+01  0.250000000000E+01  0.185787993997E+01  0.110883669208E+01  0.100177177909E+01
  0.349093656766E+00 -0.250000000000E+01 -0.526785284186E+00 -0.250000000000E+01 -0.183798308008E+01 -0.145695630084E+01 -0.250000000000E+01
  0.150000000000E+01  0.500000000000E+00  0.396172271494E-01 -0.788824871575E+00 -0.250000000000E+01 -0.198405114581E+01 -0.150000000000E+01
 -0.500000000000E+00 -0.250000000000E+01
  0.100262896168E+01  0.100231016836E+01  0.100241880064E+01  0.100286619375E+01  0.100986266642E+01  0.100305416401E+01  0.100362666471E+01
  0.100277782637E+01  0.100418968073E+01  0.102073784536E+01  0.100585750528E+01  0.996625818439E+00  0.100483684349E+01  0.100347312801E+01
  0.100149070823E+01  0.977546085275E+00  0.992903190815E+00  0.100175844116E+01  0.994522571456E+00  0.100582027292E+01  0.100497285358E+01
  0.100368874298E+01  0.100497113310E+01  0.100472367787E+01  0.813949718875E+00  0.992165250679E+00  0.973044650364E+00  0.996814817273E+00
  0.101127492760E+01  0.998514274076E+00  0.993723525427E+00  0.100325467604E+01  0.100507283878E+01  0.100390802054E+01  0.100673163969E+01
  0.101179585844E+01  0.978309224493E+00  0.996627341790E+00  0.972703399316E+00  0.968821293303E+00  0.106049796283E+01  0.982326844813E+00
  0.100705606287E+01  0.100551295734E+01  0.101277049329E+01  0.999316852291E+00  0.925213460545E+00  0.110203739239E+01  0.101082912319E+01
  0.103971082593E+01  0.150961853938E+01
  0.497706819208E+00  0.499193517033E+00  0.498634708570E+00  0.495263611752E+00  0.514811064586E+00  0.507436251502E+00  0.497671724563E+00
  0.496398832929E+00  0.499191538628E+00  0.522010582982E+00  0.552732266653E+00  0.540648889421E+00  0.495389637120E+00  0.496609961098E+00
  0.501432055276E+00  0.473866906942E+00  0.551653246089E+00  0.578834732007E+00  0.530106420252E+00  0.577361007710E+00  0.494095225470E+00
  0.495191089568E+00  0.494817873795E+00  0.500004578803E+00  0.000000000000E+00  0.396947474174E+00  0.472490735417E+00  0.541526234987E+00
  0.423729344898E+00  0.591700177634E+00  0.318678171053E+00  0.496172868410E+00  0.494823504234E+00  0.494706743890E+00  0.492180500964E+00
  0.492937007796E+00  0.000000000000E+00  0.533391703819E+00  0.000000000000E+00  0.390058523785E+00  0.540966958889E+00  0.000000000000E+00
  0.493568273000E+00  0.494242389722E+00  0.488491461949E+00  0.493062835014E+00  0.000000000000E+00  0.451830887292E+00  0.479348441771E+00
  0.466761657618E+00  0.000000000000E+00
  0.000000000000E+00  0.000000000000E+00  0.000000000000E+00  0.000000000000E+00  0.000000000000E+00  0.000000000000E+00  0.000000000000E+00
  0.000000000000E+00  0.000000000000E+00  0.000000000000E+00  0.000000000000E+00  0.000000000000E+00  0.000000000000E+00  0.000000000000E+00
  0.000000000000E+00  0.000000000000E+00  0.000000000000E+00  0.000000000000E+00  0.000000000000E+00  0.000000000000E+00  0.000000000000E+00
  0.000000000000E+00  0.000000000000E+00  0.000000000000E+00  0.000000000000E+00  0.000000000000E+00  0.000000000000E+00  0.000000000000E+00
  0.000000000000E+00  0.000000000000E+00  0.000000000000E+00  0.000000000000E+00  0.000000000000E+00  0.000000000000E+00  0.000000000000E+00
  0.000000000000E+00  0.000000000000E+00  0.000000000000E+00  0.000000000000E+00  0.000000000000E+00  0.000000000000E+00  0.000000000000E+00
  0.000000000000E+00  0.000000000000E+00  0.000000000000E+00  0.000000000000E+00  0.000000000000E+00  0.000000000000E+00  0.000000000000E+00
  0.000000000000E+00  0.000000000000E+00
  0.183190316294E-02  0.807290519805E-02  0.294795103464E-02  0.296542902150E-02  0.992251876979E-02  0.454850303350E-02  0.298644047077E-02
  0.284589345131E-02  0.144449085211E-02 -0.328492802935E-01 -0.577809772723E-03  0.770836432070E-02  0.423162208039E-02  0.428921016341E-02
  0.315805370799E-02 -0.940335910914E-01 -0.231516940873E-01 -0.139314005115E-02  0.121307527976E-01  0.193788895572E-01  0.422525761253E-02
  0.534817481135E-02  0.533401494489E-02  0.840833376095E-02  0.000000000000E+00 -0.489657591440E-01  0.817199083395E-02  0.238108798371E-01
  0.452557350929E-02  0.403427799485E-01  0.368488159292E-02  0.241570767148E-02  0.408164338125E-02  0.620942238652E-02  0.367614684702E-02
  0.944005229071E-02  0.000000000000E+00  0.434131637129E-01  0.000000000000E+00 -0.584945199391E-02  0.776893021494E-01  0.000000000000E+00
  0.285800802945E-03  0.435910901240E-02  0.542192908245E-02  0.228490037000E-01  0.000000000000E+00  0.178851404437E+00  0.431983101978E-01
 -0.476045100490E-02  0.000000000000E+00
  0.716624896973E+00  0.716943451663E+00  0.716848250600E+00  0.716747062837E+00  0.725096476934E+00  0.718974718409E+00  0.717667935179E+00
  0.717080098466E+00  0.718294884484E+00  0.731804576670E+00  0.719016284374E+00  0.713107302776E+00  0.718858732780E+00  0.717845788717E+00
  0.715747115162E+00  0.684056552526E+00  0.700363819450E+00  0.708889848870E+00  0.713356249359E+00  0.710764534763E+00  0.719179192452E+00
  0.719048304306E+00  0.719178360870E+00  0.717235254317E+00  0.581382141611E+00  0.692806793994E+00  0.682768094909E+00  0.716394167350E+00
  0.712119859657E+00  0.698550271144E+00  0.703733070661E+00  0.717659715135E+00  0.719097281928E+00  0.719004372432E+00  0.722072354938E+00
  0.723230280685E+00  0.698779695787E+00  0.719978780623E+00  0.694775332221E+00  0.677240511926E+00  0.745932941052E+00  0.701649275509E+00
  0.721036538761E+00  0.721854061137E+00  0.721990909388E+00  0.733893592583E+00  0.660854303972E+00  0.730099910676E+00  0.749906366799E+00
  0.745370933934E+00  0.107827813123E+01
  0.497549955365E+00  0.498907828712E+00  0.498352984976E+00  0.495129408543E+00  0.513567779425E+00  0.506570974379E+00  0.497406083468E+00
  0.496126468522E+00  0.498840270544E+00  0.522075170206E+00  0.552522419091E+00  0.540236669549E+00  0.495022275552E+00  0.496255007070E+00
  0.501303051403E+00  0.488092048043E+00  0.555617462888E+00  0.581545834060E+00  0.529135396737E+00  0.580798179782E+00  0.493652256925E+00
  0.494486710901E+00  0.494384766680E+00  0.500223243058E+00  0.000000000000E+00  0.404514717233E+00  0.476786556649E+00  0.540388530978E+00
  0.426783247231E+00  0.599270767911E+00  0.320070858764E+00  0.495815904944E+00  0.494431374962E+00  0.494082210240E+00  0.491178105672E+00
  0.492850473546E+00  0.000000000000E+00  0.532135862029E+00  0.000000000000E+00  0.394334665278E+00  0.550737587867E+00  0.000000000000E+00
  0.492982471351E+00  0.493017116742E+00  0.489000569127E+00  0.486787176027E+00  0.000000000000E+00  0.504576287647E+00  0.472257725918E+00
  0.465933351090E+00  0.000000000000E+00
  0.100064420050E+01  0.100140741261E+01  0.100116593005E+01  0.100057803745E+01  0.100522090921E+01  0.100349975294E+01  0.100110443911E+01
  0.100113116929E+01  0.100141721984E+01  0.100371159157E+01  0.100076083624E+01  0.100173024360E+01  0.100155784733E+01  0.100150574654E+01
  0.100055442651E+01  0.979676751779E+00  0.987517570999E+00  0.990703694268E+00  0.100419917835E+01  0.989312281189E+00  0.100186872297E+01
  0.100296793509E+01  0.100186927967E+01  0.999408472357E+00  0.999981914584E+00  0.977588673789E+00  0.982355056899E+00  0.100615662700E+01
  0.985852389202E+00  0.979425537513E+00  0.991449104017E+00  0.100146415978E+01  0.100165496057E+01  0.100268759767E+01  0.100414177627E+01
  0.100071806433E+01  0.999981958270E+00  0.101138133644E+01  0.999981562513E+00  0.978649750217E+00  0.984731846807E+00  0.999981819595E+00
  0.100237830989E+01  0.100505486102E+01  0.998041787193E+00  0.102815341026E+01  0.999981155718E+00  0.927500175585E+00  0.103862155277E+01
  0.100366302002E+01  0.999980686745E+00
        28        24        19        19
        19        24        15        15
        19        15        12        12
        22        13        14        14
        13        22        23        23
        31        27        37        37
        31        29        20        20
        35        34        36        36
        34        23        22        22
         8         9        15        15
         9         6        12        12
        20        18        27        27
        27        18        17        17
        38        45        36        36
        38        30        41        41
        28        19        20        20
        30        40        41        41
        40        39        47        47
        11        10        17        17
        10        11         5         5
         8        14         7         7
        14        24        22        22
        45        46        50        50
        46        41        49        49
        41        46        38        38
        29        39        40        40
        36        24        28        28
        36        45        35        35
        20        29        30        30
        11        18        12        12
        15        24        14        14
        12        20        19        19
        12        18        20        20
        31        20        27        27
         9        12        15        15
         9         4         6         6
        24        36        34        34
        35        23        34        34
        38        36        28        28
        41        47        48        48
        29        40        30        30
        49        50        46        46
        46        45        38        38
        25        26        16        16
        26        37        27        27
        32        33        43        43
        33        21        23        23
        51        48        47        47
         1         4         3         3
         4         2         6         6
         6         5        11        11
        35        43        33        33
        43        35        44        44
         8         3         4         4
         3         8         7         7
        31        37        42        42
        17        16        26        26
        16        17        10        10
        34        22        24        24
        47        41        40        40
        15        14         8         8
        20        30        28        28
        11        17        18        18
        39        31        42        42
         4         9         8         8
        33        23        35        35
        28        30        38        38
        17        26        27        27
        41        48        49        49
        35        45        44        44
        39        29        31        31
        45        50        44        44
        21        13        23        23
        13         7        14        14
         2         5         6         6
         6        11        12        12
        25        37        26        26
        51        49        48        48
        32        21        33        33
         1         2         4         4
zone t="boundary 3 bc-3", solutiontime= 0.4000000E+02, strandid=1003, i=51, j=80, f=feblock
  0.500000000000E+01  0.500000000000E+01  0.400000000000E+01  0.425172245441E+01  0.500000000000E+01  0.427741389634E+01  0.300000000000E+01
  0.341887665662E+01  0.368116975164E+01  0.500000000000E+01  0.430894944607E+01  0.352044655687E+01  0.200000000000E+01  0.259168638257E+01
  0.301798341022E+01  0.500000000000E+01  0.435643616790E+01  0.375117520592E+01  0.271663237208E+01  0.288980181581E+01  0.100000000000E+01
  0.191939879870E+01  0.130679496696E+01  0.219385942988E+01  0.500000000000E+01  0.441735041915E+01  0.373031592783E+01  0.208456665067E+01
  0.230848460393E+01  0.190054259015E+01  0.298584217914E+01  0.000000000000E+00  0.613733212775E+00  0.151350918120E+01  0.794128609067E+00
  0.144135983281E+01  0.400000000000E+01  0.132476136006E+01  0.200000000000E+01  0.164582171489E+01  0.102008138039E+01  0.300000000000E+01
  0.000000000000E+00  0.000000000000E+00  0.701034609231E+00  0.609175469936E+00  0.100000000000E+01  0.505577837730E+00  0.000000000000E+00
  0.000000000000E+00  0.000000000000E+00
  0.000000000000E+00  0.000000000000E+00  0.000000000000E+00  0.000000000000E+00  0.000000000000E+00  0.000000000000E+00  0.000000000000E+00
  0.000000000000E+00  0.000000000000E+00  0.000000000000E+00  0.000000000000E+00  0.000000000000E+00  0.000000000000E+00  0.000000000000E+00
  0.000000000000E+00  0.000000000000E+00  0.000000000000E+00  0.000000000000E+00  0.000000000000E+00  0.000000000000E+00  0.000000000000E+00
  0.000000000000E+00  0.000000000000E+00  0.000000000000E+00  0.000000000000E+00  0.000000000000E+00  0.000000000000E+00  0.000000000000E+00
  0.000000000000E+00  0.000000000000E+00  0.000000000000E+00  0.000000000000E+00  0.000000000000E+00  0.000000000000E+00  0.000000000000E+00
  0.000000000000E+00  0.000000000000E+00  0.000000000000E+00  0.000000000000E+00  0.000000000000E+00  0.000000000000E+00  0.000000000000E+00
  0.000000000000E+00  0.000000000000E+00  0.000000000000E+00  0.000000000000E+00  0.000000000000E+00  0.000000000000E+00  0.000000000000E+00
  0.000000000000E+00  0.000000000000E+00
  0.250000000000E+01  0.150000000000E+01  0.250000000000E+01  0.168388151981E+01  0.500000000000E+00  0.784980628699E+00  0.250000000000E+01
  0.172616846193E+01  0.104016062853E+01 -0.500000000000E+00 -0.103062804534E+00  0.179404976675E+00  0.250000000000E+01  0.166729536217E+01
  0.923171218453E+00 -0.150000000000E+01 -0.102255113015E+01 -0.669125930414E+00  0.135977239814E+00 -0.856266143819E+00  0.250000000000E+01
  0.158034275708E+01  0.175813852804E+01  0.774089735567E+00 -0.250000000000E+01 -0.179804978092E+01 -0.146769777443E+01 -0.223755606368E+00
 -0.164420331359E+01 -0.108875578595E+01 -0.190240885061E+01  0.250000000000E+01  0.185787993997E+01  0.110883669208E+01  0.100177177909E+01
  0.349093656766E+00 -0.250000000000E+01 -0.526785284186E+00 -0.250000000000E+01 -0.183798308008E+01 -0.145695630084E+01 -0.250000000000E+01
  0.150000000000E+01  0.500000000000E+00  0.396172271494E-01 -0.788824871575E+00 -0.250000000000E+01 -0.198405114581E+01 -0.150000000000E+01
 -0.500000000000E+00 -0.250000000000E+01
  0.100262898272E+01  0.100231017990E+01  0.100241879864E+01  0.100286622643E+01  0.100986254447E+01  0.100305416331E+01  0.100362668791E+01
  0.100277784334E+01  0.100418973130E+01  0.102073810711E+01  0.100585749971E+01  0.996625739253E+00  0.100483690316E+01  0.100347314840E+01
  0.100149074315E+01  0.977547896897E+00  0.992904233820E+00  0.100175877747E+01  0.994522427746E+00  0.100582067664E+01  0.100497290298E+01
  0.100368874473E+01  0.100497116853E+01  0.100472382306E+01  0.813956357724E+00  0.992167559240E+00  0.973046388083E+00  0.996814637888E+00
  0.101127660954E+01  0.998514772092E+00  0.993726022377E+00  0.100325468710E+01  0.100507287319E+01  0.100390801643E+01  0.100673167803E+01
  0.101179613945E+01  0.978314348678E+00  0.996626913440E+00  0.972707799664E+00  0.968822767506E+00  0.106049987746E+01  0.982332125051E+00
  0.100705613989E+01  0.100551283037E+01  0.101277071229E+01  0.999316177862E+00  0.925215849154E+00  0.110204233322E+01  0.101082713876E+01
  0.103971189423E+01  0.150963252872E+01
  0.497706794940E+00  0.499193494168E+00  0.498634721695E+00  0.495263550359E+00  0.514811252240E+00  0.507436175967E+00  0.497671731184E+00
  0.496398815771E+00  0.499191415710E+00  0.522010713379E+00  0.552732391293E+00  0.540648901554E+00  0.495389581072E+00  0.496609920567E+00
  0.501431900905E+00  0.473864954580E+00  0.551652957654E+00  0.578834760128E+00  0.530106255495E+00  0.577361428582E+00  0.494095168760E+00
  0.495191027560E+00  0.494817820201E+00  0.500004441956E+00  0.000000000000E+00  0.396945372347E+00  0.472490305225E+00  0.541526243591E+00
  0.423729618895E+00  0.591701148185E+00  0.318677878061E+00  0.496172850208E+00  0.494823463514E+00  0.494706710175E+00  0.492180457765E+00
  0.492936740666E+00  0.000000000000E+00  0.533391649488E+00  0.000000000000E+00  0.390059296899E+00  0.540967853677E+00  0.000000000000E+00
  0.493568200646E+00  0.494242533715E+00  0.488491319934E+00  0.493062202708E+00  0.000000000000E+00  0.451832833552E+00  0.479349380968E+00
  0.466760927052E+00  0.000000000000E+00
  0.000000000000E+00  0.000000000000E+00  0.000000000000E+00  0.000000000000E+00  0.000000000000E+00  0.000000000000E+00  0.000000000000E+00
  0.000000000000E+00  0.000000000000E+00  0.000000000000E+00  0.000000000000E+00  0.000000000000E+00  0.000000000000E+00  0.000000000000E+00
  0.000000000000E+00  0.000000000000E+00  0.000000000000E+00  0.000000000000E+00  0.000000000000E+00  0.000000000000E+00  0.000000000000E+00
  0.000000000000E+00  0.000000000000E+00  0.000000000000E+00  0.000000000000E+00  0.000000000000E+00  0.000000000000E+00  0.000000000000E+00
  0.000000000000E+00  0.000000000000E+00  0.000000000000E+00  0.000000000000E+00  0.000000000000E+00  0.000000000000E+00  0.000000000000E+00
  0.000000000000E+00  0.000000000000E+00  0.000000000000E+00  0.000000000000E+00  0.000000000000E+00  0.000000000000E+00  0.000000000000E+00
  0.000000000000E+00  0.000000000000E+00  0.000000000000E+00  0.000000000000E+00  0.000000000000E+00  0.000000000000E+00  0.000000000000E+00
  0.000000000000E+00  0.000000000000E+00
  0.183192613204E-02  0.807303090676E-02  0.294799020478E-02  0.296553381597E-02  0.992307164388E-02  0.454874856150E-02  0.298644104392E-02