# vtk DataFile Version 2.0
FUN3D:global_image_vtk
ASCII
DATASET UNSTRUCTURED_GRID
POINTS 213 double
    0.0000000000000000E+00    0.2500000000000000E+01    0.0000000000000000E+00
    0.1250000000000000E+01    0.2500000000000000E+01    0.0000000000000000E+00
    0.2500000000000000E+01    0.2500000000000000E+01    0.0000000000000000E+00
    0.3750000000000000E+01    0.2500000000000000E+01    0.0000000000000000E+00
    0.5000000000000000E+01    0.2500000000000000E+01    0.0000000000000000E+00
    0.5000000000000000E+01    0.1250000000000000E+01    0.0000000000000000E+00
    0.5000000000000000E+01    0.0000000000000000E+00    0.0000000000000000E+00
    0.5000000000000000E+01   -0.1250000000000000E+01    0.0000000000000000E+00
    0.5000000000000000E+01   -0.2500000000000000E+01    0.0000000000000000E+00
    0.3750000000000000E+01   -0.2500000000000000E+01    0.0000000000000000E+00
    0.2500000000000000E+01   -0.2500000000000000E+01    0.0000000000000000E+00
    0.1250000000000000E+01   -0.2500000000000000E+01    0.0000000000000000E+00
    0.0000000000000000E+00   -0.2500000000000000E+01    0.0000000000000000E+00
    0.0000000000000000E+00   -0.1250000000000000E+01    0.0000000000000000E+00
    0.0000000000000000E+00    0.0000000000000000E+00    0.0000000000000000E+00
    0.0000000000000000E+00    0.1250000000000000E+01    0.0000000000000000E+00
    0.9058375365086910E+00    0.1578994732800803E+01    0.0000000000000000E+00
    0.3982050490726493E+01   -0.1583989954232354E+01    0.0000000000000000E+00
    0.4033849428301197E+01    0.1453322699199022E+01    0.0000000000000000E+00
    0.1040505887381675E+01   -0.1479596339503735E+01    0.0000000000000000E+00
    0.1099454400140349E+01   -0.3227322616384110E+00    0.0000000000000000E+00
    0.7354504170366591E+00    0.6593508822075582E+00    0.0000000000000000E+00
    0.1622302608453282E+01    0.8256214013940779E+00    0.0000000000000000E+00
    0.2145871574390382E+01   -0.1650070333782557E+01    0.0000000000000000E+00
    0.4086422318222992E+01   -0.4612828702537229E+00    0.0000000000000000E+00
    0.2979540174134984E+01   -0.8579242121530853E+00    0.0000000000000000E+00
    0.3045064261640043E+01   -0.1836846154397680E+01    0.0000000000000000E+00
    0.3428197553792836E+01    0.3508002863614053E+00    0.0000000000000000E+00
    0.4309693860063405E+01    0.5185680230613409E+00    0.0000000000000000E+00
    0.1827272193562204E+01    0.1738996113203182E+01    0.0000000000000000E+00
    0.2808563282768077E+01    0.1325493893339706E+01    0.0000000000000000E+00
    0.1895995683864404E+01   -0.8731419609589618E+00    0.0000000000000000E+00
    0.2273179336307740E+01    0.4906150219227333E-01    0.0000000000000000E+00
    0.5000000000000000E+01    0.2500000000000000E+01    0.1250000000000000E+01
    0.5000000000000000E+01    0.2500000000000000E+01    0.2500000000000000E+01
    0.5000000000000000E+01    0.2500000000000000E+01    0.3750000000000000E+01
    0.5000000000000000E+01    0.2500000000000000E+01    0.5000000000000000E+01
    0.3750000000000000E+01    0.2500000000000000E+01    0.5000000000000000E+01
    0.2500000000000000E+01    0.2500000000000000E+01    0.5000000000000000E+01
    0.1250000000000000E+01    0.2500000000000000E+01    0.5000000000000000E+01
    0.0000000000000000E+00    0.2500000000000000E+01    0.5000000000000000E+01
    0.0000000000000000E+00    0.2500000000000000E+01    0.3750000000000000E+01
    0.0000000000000000E+00    0.2500000000000000E+01    0.2500000000000000E+01
    0.0000000000000000E+00    0.2500000000000000E+01    0.1250000000000000E+01
    0.9631080833812172E+00    0.2500000000000000E+01    0.9613285771248219E+00
    0.3981732467264904E+01    0.2500000000000000E+01    0.4069753913607991E+01
    0.4035525118777670E+01    0.2500000000000000E+01    0.1012015867579395E+01
    0.9641717640894248E+00    0.2500000000000000E+01    0.3972455192261839E+01
    0.1547743040396780E+01    0.2500000000000000E+01    0.2928177746738678E+01
    0.6985170616192014E+00    0.2500000000000000E+01    0.3068281976055466E+01
    0.8931277594515110E+00    0.2500000000000000E+01    0.2052465503257726E+01
    0.2183293750162785E+01    0.2500000000000000E+01    0.3959073795658649E+01
    0.3855333506014705E+01    0.2500000000000000E+01    0.2931218481500625E+01
    0.3152495579421047E+01    0.2500000000000000E+01    0.3635850502723324E+01
    0.3103247580566054E+01    0.2500000000000000E+01    0.4331682712472464E+01
    0.3266837581688852E+01    0.2500000000000000E+01    0.1886092433583972E+01
    0.4231539241296245E+01    0.2500000000000000E+01    0.1915865356532799E+01
    0.1909741006522088E+01    0.2500000000000000E+01    0.7170024419130505E+00
    0.2880784107213163E+01    0.2500000000000000E+01    0.9046598906449592E+00
    0.2014316024535771E+01    0.2500000000000000E+01    0.1762464314805728E+01
    0.2670003247036656E+01    0.2500000000000000E+01    0.2850479545835163E+01
    0.5000000000000000E+01    0.1250000000000000E+01    0.5000000000000000E+01
    0.5000000000000000E+01    0.0000000000000000E+00    0.5000000000000000E+01
    0.5000000000000000E+01   -0.1250000000000000E+01    0.5000000000000000E+01
    0.5000000000000000E+01   -0.2500000000000000E+01    0.5000000000000000E+01
    0.5000000000000000E+01   -0.2500000000000000E+01    0.3750000000000000E+01
    0.5000000000000000E+01   -0.2500000000000000E+01    0.2500000000000000E+01
    0.5000000000000000E+01   -0.2500000000000000E+01    0.1250000000000000E+01
    0.5000000000000000E+01    0.1578994732800803E+01    0.9058375365086910E+00
    0.5000000000000000E+01   -0.1583989954232354E+01    0.3982050490726493E+01
    0.5000000000000000E+01    0.1453322699199022E+01    0.4033849428301197E+01
    0.5000000000000000E+01   -0.1479596339503735E+01    0.1040505887381675E+01
    0.5000000000000000E+01   -0.3227322616384110E+00    0.1099454400140349E+01
    0.5000000000000000E+01    0.6593508822075582E+00    0.7354504170366591E+00
    0.5000000000000000E+01    0.8256214013940779E+00    0.1622302608453282E+01
    0.5000000000000000E+01   -0.1650070333782557E+01    0.2145871574390382E+01
    0.5000000000000000E+01   -0.4612828702537229E+00    0.4086422318222992E+01
    0.5000000000000000E+01   -0.8579242121530853E+00    0.2979540174134984E+01
    0.5000000000000000E+01   -0.1836846154397680E+01    0.3045064261640043E+01
    0.5000000000000000E+01    0.3508002863614053E+00    0.3428197553792836E+01
    0.5000000000000000E+01    0.5185680230613409E+00    0.4309693860063405E+01
    0.5000000000000000E+01    0.1738996113203182E+01    0.1827272193562204E+01
    0.5000000000000000E+01    0.1325493893339706E+01    0.2808563282768077E+01
    0.5000000000000000E+01   -0.8731419609589618E+00    0.1895995683864404E+01
    0.5000000000000000E+01    0.4906150219227333E-01    0.2273179336307740E+01
    0.0000000000000000E+00    0.1250000000000000E+01    0.5000000000000000E+01
    0.0000000000000000E+00    0.0000000000000000E+00    0.5000000000000000E+01
    0.0000000000000000E+00   -0.1250000000000000E+01    0.5000000000000000E+01
    0.0000000000000000E+00   -0.2500000000000000E+01    0.5000000000000000E+01
    0.1250000000000000E+01   -0.2500000000000000E+01    0.5000000000000000E+01
    0.2500000000000000E+01   -0.2500000000000000E+01    0.5000000000000000E+01
    0.3750000000000000E+01   -0.2500000000000000E+01    0.5000000000000000E+01
    0.4042003247744892E+01    0.1558308132739014E+01    0.5000000000000000E+01
    0.9304122287900499E+00   -0.1548001304379777E+01    0.5000000000000000E+01
    0.1037243024609388E+01    0.1462892710085612E+01    0.5000000000000000E+01
    0.3946240828834967E+01   -0.1445243809615570E+01    0.5000000000000000E+01
    0.4092527262848217E+01   -0.3455338993778935E+00    0.5000000000000000E+01
    0.4293103109154542E+01    0.6277660831404320E+00    0.5000000000000000E+01
    0.3241512314643519E+01    0.7429886854239611E+00    0.5000000000000000E+01
    0.2844289952419609E+01   -0.1588117879734118E+01    0.5000000000000000E+01
    0.7159905765450471E+00   -0.6002320124191652E+00    0.5000000000000000E+01
    0.1754341919796891E+01   -0.7398147869923652E+00    0.5000000000000000E+01
    0.1870296826774691E+01   -0.1788622905643739E+01    0.5000000000000000E+01
    0.9220614901912976E+00    0.3083720183248586E+00    0.5000000000000000E+01
    0.3101523624086016E+01    0.1777901774806180E+01    0.5000000000000000E+01
    0.2192512063922564E+01    0.1576861561598471E+01    0.5000000000000000E+01
    0.2024793420196460E+01    0.4773861992750707E+00    0.5000000000000000E+01
    0.2990627757741975E+01   -0.4878110785814084E+00    0.5000000000000000E+01
    0.0000000000000000E+00   -0.2500000000000000E+01    0.1250000000000000E+01
    0.0000000000000000E+00   -0.2500000000000000E+01    0.2500000000000000E+01
    0.0000000000000000E+00   -0.2500000000000000E+01    0.3750000000000000E+01
    0.0000000000000000E+00    0.1558308132739014E+01    0.4042003247744892E+01
    0.0000000000000000E+00   -0.1548001304379777E+01    0.9304122287900499E+00
    0.0000000000000000E+00    0.1462892710085612E+01    0.1037243024609388E+01
    0.0000000000000000E+00   -0.1445243809615570E+01    0.3946240828834967E+01
    0.0000000000000000E+00   -0.3455338993778935E+00    0.4092527262848217E+01
    0.0000000000000000E+00    0.6277660831404320E+00    0.4293103109154542E+01
    0.0000000000000000E+00    0.7429886854239611E+00    0.3241512314643519E+01
    0.0000000000000000E+00   -0.1588117879734118E+01    0.2844289952419609E+01
    0.0000000000000000E+00   -0.6002320124191652E+00    0.7159905765450471E+00
    0.0000000000000000E+00   -0.7398147869923652E+00    0.1754341919796891E+01
    0.0000000000000000E+00   -0.1788622905643739E+01    0.1870296826774691E+01
    0.0000000000000000E+00    0.3083720183248586E+00    0.9220614901912976E+00
    0.0000000000000000E+00    0.1777901774806180E+01    0.3101523624086016E+01
    0.0000000000000000E+00    0.1576861561598471E+01    0.2192512063922564E+01
[...]
POINT_DATA 213
SCALARS rho double 1
LOOKUP_TABLE default
   0.1344271440912368E+01
   0.9569758897861926E+00
   0.9462964176933040E+00
   0.9418612713597510E+00
   0.8437304867578358E+00
   0.7738004278119300E+00
   0.7629818919316790E+00
   0.7664577913667764E+00
   0.8307874018031745E+00
   0.9352972536771154E+00
   0.9342219803710546E+00
   0.9617195277695066E+00
   0.1449457449827793E+01
   0.1494090635426998E+01
   0.1644667270740976E+01
   0.1425832040073601E+01
   0.1009014432309122E+01
   0.9508810856367723E+00
   0.9436508478219831E+00
   0.9581561028614120E+00
   0.9415852438275828E+00
   0.1036377239810851E+01
   0.9256161104898039E+00
   0.9322349854538351E+00
   0.9537479562311214E+00
   0.9518769536703258E+00
   0.9348583121760661E+00
   0.9564028410548463E+00
   0.9376098395233877E+00
   0.9300661525545332E+00
   0.9445157467488084E+00
   0.8863506494601135E+00
   0.9423579961280965E+00
   0.9635003070074379E+00
   0.1008299039447336E+01
   0.1006735291870562E+01
   0.1001964617528323E+01
   0.1003219581403601E+01
   0.1004132053826820E+01
   0.1005228602818521E+01
   0.1004260408155926E+01
   0.1008308189822183E+01
   0.1023893137586752E+01
   0.1063553955860129E+01
   0.1019182512252616E+01
   0.1001780766355878E+01
   0.9643309927772686E+00
   0.1005283708839672E+01
   0.1000721163190066E+01
   0.1008742083608553E+01
   0.1008078083553807E+01
   0.1002349806980541E+01
   0.9979986847935726E+00
   0.1000583560869997E+01
   0.1001620123529738E+01
   0.9826893070005580E+00
   0.9842439638592018E+00
   0.9833314025057361E+00
   0.9788207398580195E+00
   0.9902638158439698E+00
   0.9934561552459158E+00
   0.1002011751592336E+01
   0.1002134465608346E+01
   0.1002276326481631E+01
   0.1001794758295053E+01
   0.1009778638880098E+01
   0.1006429109070966E+01
   0.9558786957624517E+00
   0.9249398397250659E+00
   0.1007036755524799E+01
   0.1004504925175352E+01
   0.9143642070314729E+00
   0.9089667851849949E+00
   0.8751688890628377E+00
   0.9767271881671169E+00
   0.1000452621127835E+01
   0.1005831087493104E+01
   0.1012882803335506E+01
   0.1011618951332875E+01
   0.1010438648735369E+01
   0.1005468280912414E+01
   0.9907612676230177E+00
   0.1005140325746958E+01
   0.9860567244034172E+00
   0.1005609737717301E+01
   0.1004248005616899E+01
   0.1002888437615090E+01
   0.1003345420379748E+01
   0.1003992731797492E+01
   0.1005101716069615E+01
   0.1003211645052420E+01
   0.1002663159890536E+01
   0.1002586231314201E+01
   0.1004060870857175E+01
   0.1004320345944039E+01
   0.1001641920291984E+01
   0.1002273115891270E+01
   0.1002543475495989E+01
   0.1003469520692622E+01
   0.1003372640174949E+01
   0.1003232229966680E+01
   0.1004423863352389E+01
   0.1004313070742213E+01
   0.1003659849327408E+01
   0.1003723103829405E+01
   0.1004329726319692E+01
   0.1004465021745788E+01
   0.1003623375225793E+01
   0.1064422800669684E+01
   0.1028473621175564E+01
   0.1009586657194029E+01
   0.1006638837345005E+01
   0.1163935521134947E+01
   0.1086087969729367E+01
   0.1007893419144457E+01
   0.1007245533184474E+01
   0.1006798074032001E+01
   0.1013018286645967E+01
   0.1019384609313215E+01
   0.1235203668333790E+01
   0.1032529466752369E+01
   0.1046681191240522E+01
   0.1200953641401298E+01
   0.1014718915817481E+01
   0.1032291152833745E+01
   0.1028095236190142E+01
   0.1014628639551382E+01
   0.1029216892995522E+01
   0.1001994816306402E+01
   0.9606929191303983E+00
   0.1006852582683823E+01
   0.1001327193201756E+01
   0.1010821905222776E+01
   0.1012246098712162E+01
   0.1000946006818576E+01
   0.9979121233843613E+00
   0.9980632372000626E+00
   0.1001184143284338E+01
   0.9841362011037059E+00
   0.9814879614621687E+00
   0.9648483320341047E+00
   0.9680877123922648E+00
   0.9914124471418908E+00
   0.9910858387980213E+00
   0.9925545096119627E+00
   0.1001727533805711E+01
   0.9993409402196303E+00
   0.9941410835713435E+00
   0.1007038753690752E+01
   0.1022539494087329E+01
   0.1001088098265827E+01
   0.1008798496095789E+01
   0.1004773845948822E+01
   0.1009050237273867E+01
   0.9966470331156164E+00
   0.1004988556460019E+01
   0.1003325535066078E+01
   0.9949431084991935E+00
   0.9832680780991124E+00
   0.9943957454796858E+00
   0.9973420656211014E+00
   0.9932190085753451E+00
   0.1001306487035160E+01
   0.1003001636832575E+01
   0.1002183579535226E+01
   0.9947078545575658E+00
   0.9937965521342007E+00
   0.1004867865375076E+01
   0.1020077607383527E+01
   0.1005364552294074E+01
   0.9816998151125578E+00
   0.1004973031119385E+01
   0.1012382323260910E+01
   0.9871424289006051E+00
   0.9551513525284195E+00
   0.9865075698604051E+00
   0.9864532948383050E+00
   0.9918946935688611E+00
   0.9933508196538822E+00
   0.9954406179931407E+00
   0.1037336789473199E+01
   0.1033536797154356E+01
   0.1001443320748893E+01
   0.1001930499658397E+01
   0.9912478515771449E+00
   0.9910920508909005E+00
   0.9648489987620597E+00
   0.9933282604569624E+00
   0.1006058638635460E+01
   0.1001954027116697E+01
   0.9908735803941112E+00
   0.9740945207593583E+00
   0.9418802129342575E+00
   0.9819379685856067E+00
   0.9794803559463564E+00
   0.9704172051432151E+00
   0.9720478941672154E+00
   0.9557351698736437E+00
   0.9496731205816953E+00
   0.9528673559205237E+00
   0.1002659533906997E+01
   0.1002471631817328E+01
   0.1000509329216043E+01
   0.1001677321765314E+01
   0.9607931423210717E+00
   0.9491625495411958E+00
   0.9584503061731170E+00
   0.1001121207650591E+01
   0.1000496140483724E+01
   0.1001156644150217E+01
   0.9807376182809595E+00
   0.9806000805224860E+00
   0.9628476099407349E+00
SCALARS u double 1
LOOKUP_TABLE default
   0.0000000000000000E+00
   0.0000000000000000E+00
   0.0000000000000000E+00
   0.0000000000000000E+00
   0.0000000000000000E+00
   0.0000000000000000E+00
   0.0000000000000000E+00
   0.0000000000000000E+00
   0.0000000000000000E+00
   0.0000000000000000E+00
   0.0000000000000000E+00
   0.0000000000000000E+00
   0.0000000000000000E+00
   0.0000000000000000E+00
   0.0000000000000000E+00
   0.0000000000000000E+00
   0.0000000000000000E+00
   0.0000000000000000E+00
   0.0000000000000000E+00
   0.0000000000000000E+00
   0.0000000000000000E+00
   0.0000000000000000E+00
   0.0000000000000000E+00
   0.0000000000000000E+00
   0.0000000000000000E+00
   0.0000000000000000E+00
   0.0000000000000000E+00
   0.0000000000000000E+00
   0.0000000000000000E+00
   0.0000000000000000E+00
   0.0000000000000000E+00
   0.0000000000000000E+00
   0.0000000000000000E+00
   0.4950176843821805E+00
   0.5338221298729263E+00
   0.5183269245571570E+00
   0.4930649880230330E+00
   0.4847578721110319E+00
   0.4867666425944190E+00
   0.4890763585395654E+00
   0.4957848881621249E+00
   0.4898301885751430E+00
   0.4717388497419949E+00
   0.4454814157124570E+00
   0.4833907043450702E+00
   0.5098397462686596E+00
   0.4390712706839267E+00
   0.4949403966340647E+00
   0.5225330362994725E+00
   0.4962454547397779E+00
   0.5226154964485397E+00
   0.5038881744297763E+00
   0.5646883607874714E+00
   0.5247509156942736E+00
   0.4991466120757087E+00
   0.5730561900955283E+00
   0.5696051097851393E+00
   0.3737941446249038E+00
   0.3998658125921826E+00
   0.5599326585098887E+00
   0.5564587629988244E+00
   0.4942627332875354E+00
   0.4948659465963772E+00
   0.4925735873990439E+00
   0.4914269544139964E+00
   0.5162356849946473E+00
   0.5361798304001884E+00
   0.4947413359187045E+00
   0.4524112215010080E+00
   0.5128777324759071E+00
   0.5117942039475563E+00
   0.4783517510166681E+00
   0.4931696663574702E+00
   0.4603173603311308E+00
   0.5244892723398245E+00
   0.5297434247236402E+00
   0.5129579299636845E+00
   0.5328358317649542E+00
   0.5308941035617578E+00
   0.5309856167910633E+00
   0.5063656734480247E+00
   0.5282461956501956E+00
   0.5410312728147132E+00
   0.5361261482413364E+00
   0.5374105274743827E+00
   0.4965364819749697E+00
   0.4975340904916239E+00
   0.4963842645432249E+00
   0.4955220268571582E+00
   0.4904581832752954E+00
   0.4903044386895297E+00
   0.4862182765531102E+00
   0.4854049562542461E+00
   0.4932164389434313E+00
   0.4909833313946280E+00
   0.4832194697648105E+00
   0.4872622778178091E+00
   0.4880124910503094E+00
   0.4872445933236586E+00
   0.4882696671087757E+00
   0.4952597557782480E+00
   0.4900967169647920E+00
   0.4904000092426476E+00
   0.4944232926939597E+00
   0.4868002482664228E+00
   0.4892385985776159E+00
   0.4881393371629879E+00
   0.4878457830541486E+00
   0.4446866582229673E+00
   0.4700028782506390E+00
   0.4891999057972380E+00
   0.4885247845297070E+00
   0.4506533050939914E+00
   0.4687378568348856E+00
   0.4877010458318119E+00
   0.4868353684928071E+00
   0.4908994717339546E+00
   0.4793551579591727E+00
   0.4658071749215994E+00
   0.3792725235096065E+00
   0.4901596530233319E+00
   0.4486686693365376E+00
   0.4436137395325018E+00
   0.4845147243530109E+00
   0.4621822649097997E+00
   0.4665749538369181E+00
   0.4748140302126965E+00
   0.4894494215008823E+00
   0.5085556973382106E+00
   0.4315073874017911E+00
   0.4927349362398694E+00
   0.5318289233990955E+00
   0.4913399197344832E+00
   0.5207019993567938E+00
   0.5060964600235897E+00
   0.5688797394734401E+00
   0.5273992817820751E+00
   0.5015044842175183E+00
   0.5821790087126694E+00
   0.5689618252552656E+00
   0.3406394443567921E+00
   0.3789869413145805E+00
   0.5751958206505253E+00
   0.5666485492822745E+00
   0.5704108782660600E+00
   0.5291056376410835E+00
   0.5451902711199544E+00
   0.5718804314679971E+00
   0.5389079126996622E+00
   0.5475507505280236E+00
   0.5821713867177166E+00
   0.4925601785720931E+00
   0.5042157547292163E+00
   0.4961735437580647E+00
   0.5565207961348427E+00
   0.4758845203829855E+00
   0.4950268384811833E+00
   0.5498525443132037E+00
   0.5891202296320295E+00
   0.5841957608307835E+00
   0.5469097664229765E+00
   0.5805417616998033E+00
   0.5106251439220174E+00
   0.5030200514210830E+00
   0.5033624680730161E+00
   0.5676446095435601E+00
   0.5563943082583805E+00
   0.4947255974647730E+00
   0.5505243828297854E+00
   0.5510857280883625E+00
   0.5657350949546833E+00
   0.4920070019074136E+00
   0.4927299097749389E+00
   0.3865140569097007E+00
   0.3687754533503473E+00
   0.5574921717212490E+00
   0.5763755544202006E+00
   0.4194304388646488E+00
   0.5824843239586722E+00
   0.4265209606425562E+00
   0.5392799843805449E+00
   0.5012032759102752E+00
   0.5119513208397090E+00
   0.5049119464600155E+00
   0.5751974973386622E+00
   0.5876371360038890E+00
   0.5379907806727910E+00
   0.5677472539719379E+00
   0.5351248665798891E+00
   0.5338056378912739E+00
   0.5580313797966232E+00
   0.5512707862774120E+00
   0.4261852759211761E+00
   0.5273356177173444E+00
   0.5795712529643050E+00
   0.3318687134373174E+00
   0.4760283324869969E+00
   0.5446196255144525E+00
   0.4798331900764534E+00
   0.3005293508436310E+00
   0.5031051138914201E+00
   0.5017115978788188E+00
   0.5129033211222862E+00
   0.5414840107410963E+00
   0.3437603856047211E+00
   0.3397710717557955E+00
   0.3189928570953197E+00
   0.5065936052722303E+00
   0.5123483780040874E+00
   0.5330313518776710E+00
   0.5879310000109267E+00
   0.4644180533582740E+00
   0.3531270510030741E+00
SCALARS v double 1
LOOKUP_TABLE default
   0.0000000000000000E+00
   0.0000000000000000E+00
   0.0000000000000000E+00
   0.0000000000000000E+00
   0.0000000000000000E+00
   0.0000000000000000E+00
   0.0000000000000000E+00
   0.0000000000000000E+00
   0.0000000000000000E+00
   0.0000000000000000E+00
   0.0000000000000000E+00
   0.0000000000000000E+00
   0.0000000000000000E+00
   0.0000000000000000E+00
   0.0000000000000000E+00
   0.0000000000000000E+00
   0.0000000000000000E+00
   0.0000000000000000E+00
   0.0000000000000000E+00
   0.0000000000000000E+00
   0.0000000000000000E+00
   0.0000000000000000E+00
   0.0000000000000000E+00
   0.0000000000000000E+00
   0.0000000000000000E+00
   0.0000000000000000E+00
   0.0000000000000000E+00
   0.0000000000000000E+00
   0.0000000000000000E+00
   0.0000000000000000E+00
   0.0000000000000000E+00
   0.0000000000000000E+00
   0.0000000000000000E+00
   0.0000000000000000E+00
   0.0000000000000000E+00
   0.0000000000000000E+00
   0.0000000000000000E+00
   0.0000000000000000E+00
   0.0000000000000000E+00
   0.0000000000000000E+00
   0.0000000000000000E+00
   0.0000000000000000E+00
   0.0000000000000000E+00
   0.0000000000000000E+00
   0.0000000000000000E+00
   0.0000000000000000E+00
   0.0000000000000000E+00
   0.0000000000000000E+00
   0.0000000000000000E+00
   0.0000000000000000E+00
   0.0000000000000000E+00
   0.0000000000000000E+00
   0.0000000000000000E+00
   0.0000000000000000E+00
   0.0000000000000000E+00
   0.0000000000000000E+00
   0.0000000000000000E+00
   0.0000000000000000E+00
   0.0000000000000000E+00
   0.0000000000000000E+00
   0.0000000000000000E+00
   0.7970254631801721E-03
  -0.1329294669377672E-02
  -0.1332592740049886E-02
   0.0000000000000000E+00
   0.0000000000000000E+00
   0.0000000000000000E+00
   0.0000000000000000E+00
  -0.1922562548019637E-01
   0.4770618343918641E-03
   0.2183360202466819E-02
   0.1427333022279798E-01
  -0.6488281884073494E-02
  -0.7821622612497995E-02
  -0.1327725037300146E-01
   0.4914481862420175E-02
   0.6907122345428142E-03
   0.3434418490650752E-02
   0.1920847413643402E-02
   0.3147960302977466E-02
   0.1704778410802759E-02
  -0.7316187236195595E-02
  -0.7701893557422688E-04
   0.4468738154448726E-02
  -0.4387155187223007E-03
  -0.6383741943407479E-04
  -0.1963394573753689E-03
   0.8071267924375606E-03
   0.0000000000000000E+00
   0.0000000000000000E+00
   0.0000000000000000E+00
   0.0000000000000000E+00
   0.4257020162063515E-03
   0.1616304629276643E-02
  -0.1297550934594815E-02
  -0.1022774962579110E-02
  -0.2134342389643900E-02
  -0.1064012651144041E-02
  -0.8200064204751548E-03
  -0.7617033112996516E-03
   0.5202258846357326E-04
  -0.6244091850801860E-03
   0.7916469219049210E-03
  -0.1745238498673504E-02
   0.2747128612116897E-03
  -0.8939746959738871E-04
  -0.9424310004966471E-03
  -0.1100227518805583E-02
   0.0000000000000000E+00
   0.0000000000000000E+00
   0.0000000000000000E+00
  -0.1061759105647253E-02
  -0.7641128568069240E-02
   0.1860854760700626E-01
  -0.2834553432940614E-04
  -0.1383129133758806E-02
  -0.2035122952435377E-02
  -0.5666383173706648E-02
  -0.1585210204669026E-02
  -0.5947016691426645E-02
  -0.4160601864775258E-02
   0.1565614817826806E-02
   0.3329524829851410E-01
   0.3055139821636600E-04
  -0.2766884935251848E-02
   0.3566484722875284E-02
   0.3596189764525910E-03
   0.0000000000000000E+00
   0.0000000000000000E+00
   0.0000000000000000E+00
   0.0000000000000000E+00
   0.0000000000000000E+00
   0.0000000000000000E+00
   0.0000000000000000E+00
   0.0000000000000000E+00
   0.0000000000000000E+00
   0.0000000000000000E+00
   0.0000000000000000E+00
   0.0000000000000000E+00
   0.0000000000000000E+00
   0.0000000000000000E+00
   0.0000000000000000E+00
   0.0000000000000000E+00
   0.0000000000000000E+00
   0.5047032614294237E-02
   0.3230791971103818E-02
   0.8149134284490619E-02
   0.6168367036971962E-02
   0.1122928636284977E-01
   0.1429277505008791E-01
  -0.2038825905871358E-03
   0.5118221825408166E-02
   0.2914950539890960E-02
   0.3373611807283088E-02
   0.3728336452825083E-02
  -0.1465719846961840E-01
  -0.6159699766335897E-03
   0.6651630357144651E-02
   0.1542014336153720E-02
   0.1969646558664567E-02
   0.4266273565573341E-02
  -0.2790960869515711E-02
   0.1226887090935934E-02
   0.2819172491593708E-02
   0.1497449164682814E-02
   0.2575339115451043E-02
   0.2030646489606855E-02
   0.2118046073959730E-02
   0.8700410515559864E-02
  -0.3733396937624828E-02
   0.6241189143995762E-02
   0.2516489587778430E-04
  -0.3854044671703625E-03
  -0.1674679000316472E-01
  -0.4881976840631994E-02
  -0.4720000728891157E-02
   0.3445223088784902E-02
  -0.6135724025694745E-02
   0.9934527385980509E-04
  -0.3291372889088170E-01
  -0.3046196655744686E-02
   0.4722743194102240E-02
   0.9228368264791218E-03
   0.2112175232529068E-02
   0.4518755753584218E-02
   0.2720465305310382E-02
   0.3212576547187471E-02
   0.5200804262348656E-02
   0.1941838990353091E-02
   0.7315897876513689E-03
  -0.2555235614679371E-04
  -0.5374632748993804E-02
  -0.6959590885192784E-02
  -0.9443815858232468E-03
   0.1105268474844584E-02
  -0.2080554081412473E-02
  -0.3200035942747194E-02
  -0.2527833267079748E-02
  -0.4115193496334701E-02
  -0.7593954912123107E-02
  -0.1985686383142648E-02
   0.6240403042921487E-03
  -0.2239081408245894E-03
   0.1216949820649562E-02
  -0.3483958215476484E-02
   0.5229140074060008E-02
  -0.8487626063409763E-02
   0.2315172448113557E-04
  -0.3395192712359095E-03
   0.2542663566000692E-02
   0.1663457715587864E-02
   0.2021438727523346E-02
  -0.5620783904216077E-02
SCALARS w double 1
LOOKUP_TABLE default
   0.0000000000000000E+00
   0.0000000000000000E+00
   0.0000000000000000E+00
   0.0000000000000000E+00
   0.0000000000000000E+00
   0.0000000000000000E+00
   0.0000000000000000E+00
   0.0000000000000000E+00
   0.0000000000000000E+00
   0.0000000000000000E+00
   0.0000000000000000E+00
   0.0000000000000000E+00
   0.0000000000000000E+00
   0.0000000000000000E+00
   0.0000000000000000E+00
   0.0000000000000000E+00
   0.0000000000000000E+00
   0.0000000000000000E+00
   0.0000000000000000E+00
   0.0000000000000000E+00
   0.0000000000000000E+00
   0.0000000000000000E+00
   0.0000000000000000E+00
   0.0000000000000000E+00
   0.0000000000000000E+00
   0.0000000000000000E+00
   0.0000000000000000E+00
   0.0000000000000000E+00
   0.0000000000000000E+00
   0.0000000000000000E+00
   0.0000000000000000E+00
   0.0000000000000000E+00
   0.0000000000000000E+00
  -0.1007612295690339E+00
  -0.4249297171951325E-01
   0.7371985027076098E-03
   0.5725799913212773E-02
   0.5699057127716808E-03
   0.1609783050812775E-02
   0.3375072953795086E-02
   0.2371773612390276E-02
   0.4590624688459128E-03
   0.3518225903652692E-02
   0.4521817542676033E-01
   0.6522937743370388E-01
   0.8689296372237201E-03
  -0.2261151850650437E-01
   0.4316553462061103E-02
   0.1358734825110014E-01
   0.1039452543195857E-01
   0.4900548386459681E-01
   0.2437443436148567E-02
  -0.6509941253175363E-02
  -0.7012228333852852E-03
   0.3411015808729943E-03
   0.3904107215799417E-02
  -0.3893254340048238E-01
   0.1798168084569427E-01
   0.1119638187032261E-01
   0.3403773232587701E-01
   0.8438810087938913E-02
   0.4937312258339616E-02
   0.4970345570421978E-02
   0.4871517384482688E-02
   0.6027191689983480E-02
   0.2599191725459245E-02
  -0.4144429605846893E-01
  -0.9954261890759321E-01
  -0.1121678226152538E+00
   0.5070874991641022E-02
   0.4230770635876490E-02
  -0.1004732306713509E+00
  -0.9895252518298345E-01
  -0.9875450985451073E-01
  -0.9462509662028148E-01
  -0.6807133844218201E-01
   0.5154922142454450E-02
  -0.1935330761882816E-01
  -0.1575800300616237E-01
  -0.6002862519118142E-02
   0.6819057359627261E-02
  -0.8010050862546128E-01
  -0.2781092485550011E-01
  -0.8096457380735236E-01
  -0.5873277589773194E-01
   0.3083625656966585E-02
   0.2685146444263212E-02
   0.2640431149525793E-02
   0.3450191893743602E-02
   0.4007083732206622E-02
   0.1201214263249406E-02
  -0.1438846848872836E-03
   0.2039877271801506E-02
   0.4895693561369045E-02
   0.3857385529888009E-02
   0.1114201914137330E-02
   0.1182682026687069E-02
   0.1465296245048035E-02
  -0.1653640952785104E-04
   0.8996619349951182E-04
   0.4386667815036620E-02
   0.2715724180943492E-02
   0.2322755243445428E-02
   0.5010600972424096E-02
   0.1071689286951760E-02
   0.2712217656970799E-02
   0.2013964044594121E-02
   0.2879081966294084E-04
   0.8374614317790870E-01
   0.2793870688668364E-02
  -0.8346628061339170E-03
  -0.1492945704394443E-03
   0.1409540840025733E+00
   0.1239332947424849E+00
  -0.1219093306620294E-02
  -0.4381936076110196E-02
  -0.3043057959518795E-03
  -0.6512246825790496E-02
  -0.1949570332964654E-02
   0.1557630965107771E+00
   0.7489979169968113E-01
   0.2550174899521702E-01
   0.1656445112454726E+00