# vtk DataFile Version 2.0
FUN3D:global_image_vtk
ASCII
DATASET UNSTRUCTURED_GRID
POINTS 213 double
    0.0000000000000000E+00    0.2500000000000000E+01    0.0000000000000000E+00
    0.1250000000000000E+01    0.2500000000000000E+01    0.0000000000000000E+00
    0.2500000000000000E+01    0.2500000000000000E+01    0.0000000000000000E+00
    0.3750000000000000E+01    0.2500000000000000E+01    0.0000000000000000E+00
    0.5000000000000000E+01    0.2500000000000000E+01    0.0000000000000000E+00
    0.5000000000000000E+01    0.1250000000000000E+01    0.0000000000000000E+00
    0.5000000000000000E+01    0.0000000000000000E+00    0.0000000000000000E+00
    0.5000000000000000E+01   -0.1250000000000000E+01    0.0000000000000000E+00
    0.5000000000000000E+01   -0.2500000000000000E+01    0.0000000000000000E+00
    0.3750000000000000E+01   -0.2500000000000000E+01    0.0000000000000000E+00
    0.2500000000000000E+01   -0.2500000000000000E+01    0.0000000000000000E+00
    0.1250000000000000E+01   -0.2500000000000000E+01    0.0000000000000000E+00
    0.0000000000000000E+00   -0.2500000000000000E+01    0.0000000000000000E+00
    0.0000000000000000E+00   -0.1250000000000000E+01    0.0000000000000000E+00
    0.0000000000000000E+00    0.0000000000000000E+00    0.0000000000000000E+00
    0.0000000000000000E+00    0.1250000000000000E+01    0.0000000000000000E+00
    0.9058375365086910E+00    0.1578994732800803E+01    0.0000000000000000E+00
    0.3982050490726493E+01   -0.1583989954232354E+01    0.0000000000000000E+00
    0.4033849428301197E+01    0.1453322699199022E+01    0.0000000000000000E+00
    0.1040505887381675E+01   -0.1479596339503735E+01    0.0000000000000000E+00
    0.1099454400140349E+01   -0.3227322616384110E+00    0.0000000000000000E+00
    0.7354504170366591E+00    0.6593508822075582E+00    0.0000000000000000E+00
    0.1622302608453282E+01    0.8256214013940779E+00    0.0000000000000000E+00
    0.2145871574390382E+01   -0.1650070333782557E+01    0.0000000000000000E+00
    0.4086422318222992E+01   -0.4612828702537229E+00    0.0000000000000000E+00
    0.2979540174134984E+01   -0.8579242121530853E+00    0.0000000000000000E+00
    0.3045064261640043E+01   -0.1836846154397680E+01    0.0000000000000000E+00
    0.3428197553792836E+01    0.3508002863614053E+00    0.0000000000000000E+00
    0.4309693860063405E+01    0.5185680230613409E+00    0.0000000000000000E+00
    0.1827272193562204E+01    0.1738996113203182E+01    0.0000000000000000E+00
    0.2808563282768077E+01    0.1325493893339706E+01    0.0000000000000000E+00
    0.1895995683864404E+01   -0.8731419609589618E+00    0.0000000000000000E+00
    0.2273179336307740E+01    0.4906150219227333E-01    0.0000000000000000E+00
    0.5000000000000000E+01    0.2500000000000000E+01    0.1250000000000000E+01
    0.5000000000000000E+01    0.2500000000000000E+01    0.2500000000000000E+01
    0.5000000000000000E+01    0.2500000000000000E+01    0.3750000000000000E+01
    0.5000000000000000E+01    0.2500000000000000E+01    0.5000000000000000E+01
    0.3750000000000000E+01    0.2500000000000000E+01    0.5000000000000000E+01
    0.2500000000000000E+01    0.2500000000000000E+01    0.5000000000000000E+01
    0.1250000000000000E+01    0.2500000000000000E+01    0.5000000000000000E+01
    0.0000000000000000E+00    0.2500000000000000E+01    0.5000000000000000E+01
    0.0000000000000000E+00    0.2500000000000000E+01    0.3750000000000000E+01
    0.0000000000000000E+00    0.2500000000000000E+01    0.2500000000000000E+01
    0.0000000000000000E+00    0.2500000000000000E+01    0.1250000000000000E+01
    0.9631080833812172E+00    0.2500000000000000E+01    0.9613285771248219E+00
    0.3981732467264904E+01    0.2500000000000000E+01    0.4069753913607991E+01
    0.4035525118777670E+01    0.2500000000000000E+01    0.1012015867579395E+01
    0.9641717640894248E+00    0.2500000000000000E+01    0.3972455192261839E+01
    0.1547743040396780E+01    0.2500000000000000E+01    0.2928177746738678E+01
    0.6985170616192014E+00    0.2500000000000000E+01    0.3068281976055466E+01
    0.8931277594515110E+00    0.2500000000000000E+01    0.2052465503257726E+01
    0.2183293750162785E+01    0.2500000000000000E+01    0.3959073795658649E+01
    0.3855333506014705E+01    0.2500000000000000E+01    0.2931218481500625E+01
    0.3152495579421047E+01    0.2500000000000000E+01    0.3635850502723324E+01
    0.3103247580566054E+01    0.2500000000000000E+01    0.4331682712472464E+01
    0.3266837581688852E+01    0.2500000000000000E+01    0.1886092433583972E+01
    0.4231539241296245E+01    0.2500000000000000E+01    0.1915865356532799E+01
    0.1909741006522088E+01    0.2500000000000000E+01    0.7170024419130505E+00
    0.2880784107213163E+01    0.2500000000000000E+01    0.9046598906449592E+00
    0.2014316024535771E+01    0.2500000000000000E+01    0.1762464314805728E+01
    0.2670003247036656E+01    0.2500000000000000E+01    0.2850479545835163E+01
    0.5000000000000000E+01    0.1250000000000000E+01    0.5000000000000000E+01
    0.5000000000000000E+01    0.0000000000000000E+00    0.5000000000000000E+01
    0.5000000000000000E+01   -0.1250000000000000E+01    0.5000000000000000E+01
    0.5000000000000000E+01   -0.2500000000000000E+01    0.5000000000000000E+01
    0.5000000000000000E+01   -0.2500000000000000E+01    0.3750000000000000E+01
    0.5000000000000000E+01   -0.2500000000000000E+01    0.2500000000000000E+01
    0.5000000000000000E+01   -0.2500000000000000E+01    0.1250000000000000E+01
    0.5000000000000000E+01    0.1578994732800803E+01    0.9058375365086910E+00
    0.5000000000000000E+01   -0.1583989954232354E+01    0.3982050490726493E+01
    0.5000000000000000E+01    0.1453322699199022E+01    0.4033849428301197E+01
    0.5000000000000000E+01   -0.1479596339503735E+01    0.1040505887381675E+01
    0.5000000000000000E+01   -0.3227322616384110E+00    0.1099454400140349E+01
    0.5000000000000000E+01    0.6593508822075582E+00    0.7354504170366591E+00
    0.5000000000000000E+01    0.8256214013940779E+00    0.1622302608453282E+01
    0.5000000000000000E+01   -0.1650070333782557E+01    0.2145871574390382E+01
    0.5000000000000000E+01   -0.4612828702537229E+00    0.4086422318222992E+01
    0.5000000000000000E+01   -0.8579242121530853E+00    0.2979540174134984E+01
    0.5000000000000000E+01   -0.1836846154397680E+01    0.3045064261640043E+01
    0.5000000000000000E+01    0.3508002863614053E+00    0.3428197553792836E+01
    0.5000000000000000E+01    0.5185680230613409E+00    0.4309693860063405E+01
    0.5000000000000000E+01    0.1738996113203182E+01    0.1827272193562204E+01
    0.5000000000000000E+01    0.1325493893339706E+01    0.2808563282768077E+01
    0.5000000000000000E+01   -0.8731419609589618E+00    0.1895995683864404E+01
    0.5000000000000000E+01    0.4906150219227333E-01    0.2273179336307740E+01
    0.0000000000000000E+00    0.1250000000000000E+01    0.5000000000000000E+01
    0.0000000000000000E+00    0.0000000000000000E+00    0.5000000000000000E+01
    0.0000000000000000E+00   -0.1250000000000000E+01    0.5000000000000000E+01
    0.0000000000000000E+00   -0.2500000000000000E+01    0.5000000000000000E+01
    0.1250000000000000E+01   -0.2500000000000000E+01    0.5000000000000000E+01
    0.2500000000000000E+01   -0.2500000000000000E+01    0.5000000000000000E+01
    0.3750000000000000E+01   -0.2500000000000000E+01    0.5000000000000000E+01
    0.4042003247744892E+01    0.1558308132739014E+01    0.5000000000000000E+01
    0.9304122287900499E+00   -0.1548001304379777E+01    0.5000000000000000E+01
    0.1037243024609388E+01    0.1462892710085612E+01    0.5000000000000000E+01
    0.3946240828834967E+01   -0.1445243809615570E+01    0.5000000000000000E+01
    0.4092527262848217E+01   -0.3455338993778935E+00    0.5000000000000000E+01
    0.4293103109154542E+01    0.6277660831404320E+00    0.5000000000000000E+01
    0.3241512314643519E+01    0.7429886854239611E+00    0.5000000000000000E+01
    0.2844289952419609E+01   -0.1588117879734118E+01    0.5000000000000000E+01
    0.7159905765450471E+00   -0.6002320124191652E+00    0.5000000000000000E+01
    0.1754341919796891E+01   -0.7398147869923652E+00    0.5000000000000000E+01
    0.1870296826774691E+01   -0.1788622905643739E+01    0.5000000000000000E+01
    0.9220614901912976E+00    0.3083720183248586E+00    0.5000000000000000E+01
    0.3101523624086016E+01    0.1777901774806180E+01    0.5000000000000000E+01
    0.2192512063922564E+01    0.1576861561598471E+01    0.5000000000000000E+01
    0.2024793420196460E+01    0.4773861992750707E+00    0.5000000000000000E+01
    0.2990627757741975E+01   -0.4878110785814084E+00    0.5000000000000000E+01
    0.0000000000000000E+00   -0.2500000000000000E+01    0.1250000000000000E+01
    0.0000000000000000E+00   -0.2500000000000000E+01    0.2500000000000000E+01
    0.0000000000000000E+00   -0.2500000000000000E+01    0.3750000000000000E+01
    0.0000000000000000E+00    0.1558308132739014E+01    0.4042003247744892E+01
    0.0000000000000000E+00   -0.1548001304379777E+01    0.9304122287900499E+00
    0.0000000000000000E+00    0.1462892710085612E+01    0.1037243024609388E+01
    0.0000000000000000E+00   -0.1445243809615570E+01    0.3946240828834967E+01
    0.0000000000000000E+00   -0.3455338993778935E+00    0.4092527262848217E+01
    0.0000000000000000E+00    0.6277660831404320E+00    0.4293103109154542E+01
    0.0000000000000000E+00    0.7429886854239611E+00    0.3241512314643519E+01
    0.0000000000000000E+00   -0.1588117879734118E+01    0.2844289952419609E+01
    0.0000000000000000E+00   -0.6002320124191652E+00    0.7159905765450471E+00
    0.0000000000000000E+00   -0.7398147869923652E+00    0.1754341919796891E+01
    0.0000000000000000E+00   -0.1788622905643739E+01    0.1870296826774691E+01
    0.0000000000000000E+00    0.3083720183248586E+00    0.9220614901912976E+00
    0.0000000000000000E+00    0.1777901774806180E+01    0.3101523624086016E+01
    0.0000000000000000E+00    0.1576861561598471E+01    0.2192512063922564E+01
[...]
POINT_DATA 213
SCALARS rho double 1
LOOKUP_TABLE default
   0.1344271440912368E+01
   0.9569758897861922E+00
   0.9462964176933047E+00
   0.9418612713597529E+00
   0.8437304867578376E+00
   0.7738004278119299E+00
   0.7629818919316788E+00
   0.7664577913667759E+00
   0.8307874018031742E+00
   0.9352972536771155E+00
   0.9342219803710547E+00
   0.9617195277695072E+00
   0.1449457449827793E+01
   0.1494090635426998E+01
   0.1644667270740976E+01
   0.1425832040073600E+01
   0.1009014432309121E+01
   0.9508810856367723E+00
   0.9436508478219842E+00
   0.9581561028614124E+00
   0.9415852438275829E+00
   0.1036377239810851E+01
   0.9256161104898037E+00
   0.9322349854538353E+00
   0.9537479562311211E+00
   0.9518769536703259E+00
   0.9348583121760662E+00
   0.9564028410548462E+00
   0.9376098395233875E+00
   0.9300661525545331E+00
   0.9445157467488092E+00
   0.8863506494601138E+00
   0.9423579961280963E+00
   0.9635003070074365E+00
   0.1008299039447336E+01
   0.1006735291870563E+01
   0.1001964617528322E+01
   0.1003219581403600E+01
   0.1004132053826820E+01
   0.1005228602818521E+01
   0.1004260408155926E+01
   0.1008308189822183E+01
   0.1023893137586752E+01
   0.1063553955860129E+01
   0.1019182512252615E+01
   0.1001780766355878E+01
   0.9643309927772687E+00
   0.1005283708839672E+01
   0.1000721163190066E+01
   0.1008742083608553E+01
   0.1008078083553807E+01
   0.1002349806980541E+01
   0.9979986847935728E+00
   0.1000583560869997E+01
   0.1001620123529738E+01
   0.9826893070005581E+00
   0.9842439638592011E+00
   0.9833314025057364E+00
   0.9788207398580144E+00
   0.9902638158439702E+00
   0.9934561552459158E+00
   0.1002011751592336E+01
   0.1002134465608346E+01
   0.1002276326481630E+01
   0.1001794758295052E+01
   0.1009778638880098E+01
   0.1006429109070966E+01
   0.9558786957624525E+00
   0.9249398397250643E+00
   0.1007036755524799E+01
   0.1004504925175352E+01
   0.9143642070314715E+00
   0.9089667851849947E+00
   0.8751688890628374E+00
   0.9767271881671178E+00
   0.1000452621127835E+01
   0.1005831087493104E+01
   0.1012882803335506E+01
   0.1011618951332876E+01
   0.1010438648735370E+01
   0.1005468280912413E+01
   0.9907612676230169E+00
   0.1005140325746959E+01
   0.9860567244034167E+00
   0.1005609737717303E+01
   0.1004248005616899E+01
   0.1002888437615089E+01
   0.1003345420379748E+01
   0.1003992731797492E+01
   0.1005101716069614E+01
   0.1003211645052420E+01
   0.1002663159890535E+01
   0.1002586231314201E+01
   0.1004060870857175E+01
   0.1004320345944039E+01
   0.1001641920291983E+01
   0.1002273115891270E+01
   0.1002543475495989E+01
   0.1003469520692623E+01
   0.1003372640174949E+01
   0.1003232229966680E+01
   0.1004423863352390E+01
   0.1004313070742213E+01
   0.1003659849327409E+01
   0.1003723103829405E+01
   0.1004329726319692E+01
   0.1004465021745789E+01
   0.1003623375225793E+01
   0.1064422800669684E+01
   0.1028473621175565E+01
   0.1009586657194029E+01
   0.1006638837345006E+01
   0.1163935521134946E+01
   0.1086087969729367E+01
   0.1007893419144457E+01
   0.1007245533184474E+01
   0.1006798074032002E+01
   0.1013018286645968E+01
   0.1019384609313215E+01
   0.1235203668333790E+01
   0.1032529466752369E+01
   0.1046681191240521E+01
   0.1200953641401297E+01
   0.1014718915817481E+01
   0.1032291152833744E+01
   0.1028095236190141E+01
   0.1014628639551382E+01
   0.1029216892995522E+01
   0.1001994816306401E+01
   0.9606929191303994E+00
   0.1006852582683823E+01
   0.1001327193201756E+01
   0.1010821905222776E+01
   0.1012246098712162E+01
   0.1000946006818576E+01
   0.9979121233843614E+00
   0.9980632372000624E+00
   0.1001184143284337E+01
   0.9841362011037061E+00
   0.9814879614621690E+00
   0.9648483320341056E+00
   0.9680877123922654E+00
   0.9914124471418909E+00
   0.9910858387980214E+00
   0.9925545096119627E+00
   0.1001727533805711E+01
   0.9993409402196302E+00
   0.9941410835713436E+00
   0.1007038753690752E+01
   0.1022539494087329E+01
   0.1001088098265827E+01
   0.1008798496095789E+01
   0.1004773845948822E+01
   0.1009050237273867E+01
   0.9966470331156165E+00
   0.1004988556460018E+01
   0.1003325535066077E+01
   0.9949431084991938E+00
   0.9832680780991130E+00
   0.9943957454796869E+00
   0.9973420656211016E+00
   0.9932190085753461E+00
   0.1001306487035160E+01
   0.1003001636832575E+01
   0.1002183579535226E+01
   0.9947078545575661E+00
   0.9937965521342006E+00
   0.1004867865375076E+01
   0.1020077607383527E+01
   0.1005364552294074E+01
   0.9816998151125578E+00
   0.1004973031119385E+01
   0.1012382323260910E+01
   0.9871424289006051E+00
   0.9551513525284197E+00
   0.9865075698604052E+00
   0.9864532948383054E+00
   0.9918946935688614E+00
   0.9933508196538824E+00
   0.9954406179931404E+00
   0.1037336789473199E+01
   0.1033536797154356E+01
   0.1001443320748892E+01
   0.1001930499658397E+01
   0.9912478515771456E+00
   0.9910920508909006E+00
   0.9648489987620598E+00
   0.9933282604569623E+00
   0.1006058638635460E+01
   0.1001954027116696E+01
   0.9908735803941112E+00
   0.9740945207593570E+00
   0.9418802129342572E+00
   0.9819379685856087E+00
   0.9794803559463565E+00
   0.9704172051432152E+00
   0.9720478941672156E+00
   0.9557351698736442E+00
   0.9496731205816947E+00
   0.9528673559205232E+00
   0.1002659533906997E+01
   0.1002471631817327E+01
   0.1000509329216043E+01
   0.1001677321765315E+01
   0.9607931423210724E+00
   0.9491625495411954E+00
   0.9584503061731159E+00
   0.1001121207650591E+01
   0.1000496140483723E+01
   0.1001156644150217E+01
   0.9807376182809594E+00
   0.9806000805224859E+00
   0.9628476099407342E+00
SCALARS u double 1
LOOKUP_TABLE default
   0.0000000000000000E+00
   0.0000000000000000E+00
   0.0000000000000000E+00
   0.0000000000000000E+00
   0.0000000000000000E+00
   0.0000000000000000E+00
   0.0000000000000000E+00
   0.0000000000000000E+00
   0.0000000000000000E+00
   0.0000000000000000E+00
   0.0000000000000000E+00
   0.0000000000000000E+00
   0.0000000000000000E+00
   0.0000000000000000E+00
   0.0000000000000000E+00
   0.0000000000000000E+00
   0.0000000000000000E+00
   0.0000000000000000E+00
   0.0000000000000000E+00
   0.0000000000000000E+00
   0.0000000000000000E+00
   0.0000000000000000E+00
   0.0000000000000000E+00
   0.0000000000000000E+00
   0.0000000000000000E+00
   0.0000000000000000E+00
   0.0000000000000000E+00
   0.0000000000000000E+00
   0.0000000000000000E+00
   0.0000000000000000E+00
   0.0000000000000000E+00
   0.0000000000000000E+00
   0.0000000000000000E+00
   0.4950176843821831E+00
   0.5338221298729257E+00
   0.5183269245571572E+00
   0.4930649880230320E+00
   0.4847578721110307E+00
   0.4867666425944203E+00
   0.4890763585395659E+00
   0.4957848881621250E+00
   0.4898301885751419E+00
   0.4717388497419954E+00
   0.4454814157124571E+00
   0.4833907043450705E+00
   0.5098397462686609E+00
   0.4390712706839342E+00
   0.4949403966340644E+00
   0.5225330362994722E+00
   0.4962454547397775E+00
   0.5226154964485397E+00
   0.5038881744297763E+00
   0.5646883607874702E+00
   0.5247509156942736E+00
   0.4991466120757098E+00
   0.5730561900955288E+00
   0.5696051097851402E+00
   0.3737941446249045E+00
   0.3998658125921876E+00
   0.5599326585098886E+00
   0.5564587629988241E+00
   0.4942627332875335E+00
   0.4948659465963748E+00
   0.4925735873990427E+00
   0.4914269544139968E+00
   0.5162356849946476E+00
   0.5361798304001879E+00
   0.4947413359187031E+00
   0.4524112215010105E+00
   0.5128777324759081E+00
   0.5117942039475578E+00
   0.4783517510166697E+00
   0.4931696663574700E+00
   0.4603173603311305E+00
   0.5244892723398233E+00
   0.5297434247236402E+00
   0.5129579299636864E+00
   0.5328358317649547E+00
   0.5308941035617579E+00
   0.5309856167910634E+00
   0.5063656734480264E+00
   0.5282461956501970E+00
   0.5410312728147121E+00
   0.5361261482413362E+00
   0.5374105274743801E+00
   0.4965364819749688E+00
   0.4975340904916246E+00
   0.4963842645432252E+00
   0.4955220268571582E+00
   0.4904581832752957E+00
   0.4903044386895302E+00
   0.4862182765531102E+00
   0.4854049562542430E+00
   0.4932164389434312E+00
   0.4909833313946281E+00
   0.4832194697648093E+00
   0.4872622778178056E+00
   0.4880124910503056E+00
   0.4872445933236561E+00
   0.4882696671087755E+00
   0.4952597557782477E+00
   0.4900967169647917E+00
   0.4904000092426476E+00
   0.4944232926939593E+00
   0.4868002482664231E+00
   0.4892385985776159E+00
   0.4881393371629872E+00
   0.4878457830541474E+00
   0.4446866582229663E+00
   0.4700028782506386E+00
   0.4891999057972379E+00
   0.4885247845297062E+00
   0.4506533050939934E+00
   0.4687378568348853E+00
   0.4877010458318119E+00
   0.4868353684928071E+00
   0.4908994717339552E+00
   0.4793551579591723E+00
   0.4658071749215996E+00
   0.3792725235096072E+00
   0.4901596530233314E+00
   0.4486686693365380E+00
   0.4436137395325023E+00
   0.4845147243530101E+00
   0.4621822649098002E+00
   0.4665749538369186E+00
   0.4748140302126965E+00
   0.4894494215008827E+00
   0.5085556973382116E+00
   0.4315073874017915E+00
   0.4927349362398695E+00
   0.5318289233990953E+00
   0.4913399197344830E+00
   0.5207019993567936E+00
   0.5060964600235899E+00
   0.5688797394734402E+00
   0.5273992817820753E+00
   0.5015044842175187E+00
   0.5821790087126695E+00
   0.5689618252552655E+00
   0.3406394443567925E+00
   0.3789869413145808E+00
   0.5751958206505251E+00
   0.5666485492822738E+00
   0.5704108782660600E+00
   0.5291056376410838E+00
   0.5451902711199543E+00
   0.5718804314679969E+00
   0.5389079126996622E+00
   0.5475507505280235E+00
   0.5821713867177166E+00
   0.4925601785720930E+00
   0.5042157547292159E+00
   0.4961735437580644E+00
   0.5565207961348426E+00
   0.4758845203829856E+00
   0.4950268384811833E+00
   0.5498525443132035E+00
   0.5891202296320286E+00
   0.5841957608307827E+00
   0.5469097664229767E+00
   0.5805417616998019E+00
   0.5106251439220176E+00
   0.5030200514210831E+00
   0.5033624680730165E+00
   0.5676446095435602E+00
   0.5563943082583811E+00
   0.4947255974647728E+00
   0.5505243828297856E+00
   0.5510857280883623E+00
   0.5657350949546832E+00
   0.4920070019074138E+00
   0.4927299097749389E+00
   0.3865140569097000E+00
   0.3687754533503473E+00
   0.5574921717212490E+00
   0.5763755544202004E+00
   0.4194304388646489E+00
   0.5824843239586720E+00
   0.4265209606425562E+00
   0.5392799843805451E+00
   0.5012032759102758E+00
   0.5119513208397093E+00
   0.5049119464600157E+00
   0.5751974973386623E+00
   0.5876371360038889E+00
   0.5379907806727912E+00
   0.5677472539719379E+00
   0.5351248665798894E+00
   0.5338056378912749E+00
   0.5580313797966233E+00
   0.5512707862774124E+00
   0.4261852759211764E+00
   0.5273356177173442E+00
   0.5795712529643052E+00
   0.3318687134373172E+00
   0.4760283324869972E+00
   0.5446196255144516E+00
   0.4798331900764535E+00
   0.3005293508436311E+00
   0.5031051138914201E+00
   0.5017115978788195E+00
   0.5129033211222868E+00
   0.5414840107410966E+00
   0.3437603856047203E+00
   0.3397710717557948E+00
   0.3189928570953200E+00
   0.5065936052722307E+00
   0.5123483780040879E+00
   0.5330313518776711E+00
   0.5879310000109266E+00
   0.4644180533582742E+00
   0.3531270510030735E+00
SCALARS v double 1
LOOKUP_TABLE default
   0.0000000000000000E+00
   0.0000000000000000E+00
   0.0000000000000000E+00
   0.0000000000000000E+00
   0.0000000000000000E+00
   0.0000000000000000E+00
   0.0000000000000000E+00
   0.0000000000000000E+00
   0.0000000000000000E+00
   0.0000000000000000E+00
   0.0000000000000000E+00
   0.0000000000000000E+00
   0.0000000000000000E+00
   0.0000000000000000E+00
   0.0000000000000000E+00
   0.0000000000000000E+00
   0.0000000000000000E+00
   0.0000000000000000E+00
   0.0000000000000000E+00
   0.0000000000000000E+00
   0.0000000000000000E+00
   0.0000000000000000E+00
   0.0000000000000000E+00
   0.0000000000000000E+00
   0.0000000000000000E+00
   0.0000000000000000E+00
   0.0000000000000000E+00
   0.0000000000000000E+00
   0.0000000000000000E+00
   0.0000000000000000E+00
   0.0000000000000000E+00
   0.0000000000000000E+00
   0.0000000000000000E+00
   0.0000000000000000E+00
   0.0000000000000000E+00
   0.0000000000000000E+00
   0.0000000000000000E+00
   0.0000000000000000E+00
   0.0000000000000000E+00
   0.0000000000000000E+00
   0.0000000000000000E+00
   0.0000000000000000E+00
   0.0000000000000000E+00
   0.0000000000000000E+00
   0.0000000000000000E+00
   0.0000000000000000E+00
   0.0000000000000000E+00
   0.0000000000000000E+00
   0.0000000000000000E+00
   0.0000000000000000E+00
   0.0000000000000000E+00
   0.0000000000000000E+00
   0.0000000000000000E+00
   0.0000000000000000E+00
   0.0000000000000000E+00
   0.0000000000000000E+00
   0.0000000000000000E+00
   0.0000000000000000E+00
   0.0000000000000000E+00
   0.0000000000000000E+00
   0.0000000000000000E+00
   0.7970254631830432E-03
  -0.1329294669376856E-02
  -0.1332592740050508E-02
   0.0000000000000000E+00
   0.0000000000000000E+00
   0.0000000000000000E+00
   0.0000000000000000E+00
  -0.1922562548019804E-01
   0.4770618343917664E-03
   0.2183360202466896E-02
   0.1427333022279878E-01
  -0.6488281884073674E-02
  -0.7821622612499232E-02
  -0.1327725037300124E-01
   0.4914481862420722E-02
   0.6907122345426618E-03
   0.3434418490650845E-02
   0.1920847413643604E-02
   0.3147960302977710E-02
   0.1704778410803322E-02
  -0.7316187236195580E-02
  -0.7701893557384809E-04
   0.4468738154448652E-02
  -0.4387155187218340E-03
  -0.6383741943411001E-04
  -0.1963394573751596E-03
   0.8071267924376537E-03
   0.0000000000000000E+00
   0.0000000000000000E+00
   0.0000000000000000E+00
   0.0000000000000000E+00
   0.4257020162089043E-03
   0.1616304629276557E-02
  -0.1297550934594681E-02
  -0.1022774962579564E-02
  -0.2134342389644145E-02
  -0.1064012651142089E-02
  -0.8200064204742047E-03
  -0.7617033113000736E-03
   0.5202258846364137E-04
  -0.6244091850803073E-03
   0.7916469219047716E-03
  -0.1745238498673296E-02
   0.2747128612126165E-03
  -0.8939746959688134E-04
  -0.9424310004961272E-03
  -0.1100227518805529E-02
   0.0000000000000000E+00
   0.0000000000000000E+00
   0.0000000000000000E+00
  -0.1061759105647274E-02
  -0.7641128568069115E-02
   0.1860854760700600E-01
  -0.2834553432951328E-04
  -0.1383129133759067E-02
  -0.2035122952435464E-02
  -0.5666383173706690E-02
  -0.1585210204669350E-02
  -0.5947016691426676E-02
  -0.4160601864775475E-02
   0.1565614817826818E-02
   0.3329524829851411E-01
   0.3055139821622441E-04
  -0.2766884935251990E-02
   0.3566484722875186E-02
   0.3596189764526890E-03
   0.0000000000000000E+00
   0.0000000000000000E+00
   0.0000000000000000E+00
   0.0000000000000000E+00
   0.0000000000000000E+00
   0.0000000000000000E+00
   0.0000000000000000E+00
   0.0000000000000000E+00
   0.0000000000000000E+00
   0.0000000000000000E+00
   0.0000000000000000E+00
   0.0000000000000000E+00
   0.0000000000000000E+00
   0.0000000000000000E+00
   0.0000000000000000E+00
   0.0000000000000000E+00
   0.0000000000000000E+00
   0.5047032614294282E-02
   0.3230791971103754E-02
   0.8149134284490676E-02
   0.6168367036971985E-02
   0.1122928636284971E-01
   0.1429277505008807E-01
  -0.2038825905870270E-03
   0.5118221825408161E-02
   0.2914950539891009E-02
   0.3373611807283032E-02
   0.3728336452825064E-02
  -0.1465719846961820E-01
  -0.6159699766337944E-03
   0.6651630357144777E-02
   0.1542014336154139E-02
   0.1969646558664857E-02
   0.4266273565573461E-02
  -0.2790960869514819E-02
   0.1226887090936171E-02
   0.2819172491594025E-02
   0.1497449164683360E-02
   0.2575339115451188E-02
   0.2030646489606856E-02
   0.2118046073959795E-02
   0.8700410515559876E-02
  -0.3733396937624973E-02
   0.6241189143995907E-02
   0.2516489587774430E-04
  -0.3854044671703697E-03
  -0.1674679000316397E-01
  -0.4881976840631844E-02
  -0.4720000728890980E-02
   0.3445223088785296E-02
  -0.6135724025694023E-02
   0.9934527386024795E-04
  -0.3291372889088161E-01
  -0.3046196655744711E-02
   0.4722743194102339E-02
   0.9228368264793395E-03
   0.2112175232529237E-02
   0.4518755753584291E-02
   0.2720465305310363E-02
   0.3212576547187667E-02
   0.5200804262348719E-02
   0.1941838990352878E-02
   0.7315897876512765E-03
  -0.2555235614688457E-04
  -0.5374632748993188E-02
  -0.6959590885193813E-02
  -0.9443815858221357E-03
   0.1105268474844441E-02
  -0.2080554081412253E-02
  -0.3200035942747195E-02
  -0.2527833267079765E-02
  -0.4115193496334589E-02
  -0.7593954912123269E-02
  -0.1985686383142703E-02
   0.6240403042921290E-03
  -0.2239081408246113E-03
   0.1216949820649654E-02
  -0.3483958215476200E-02
   0.5229140074059974E-02
  -0.8487626063409831E-02
   0.2315172448111927E-04
  -0.3395192712360770E-03
   0.2542663566000782E-02
   0.1663457715587850E-02
   0.2021438727523400E-02
  -0.5620783904216272E-02
SCALARS w double 1
LOOKUP_TABLE default
   0.0000000000000000E+00
   0.0000000000000000E+00
   0.0000000000000000E+00
   0.0000000000000000E+00
   0.0000000000000000E+00
   0.0000000000000000E+00
   0.0000000000000000E+00
   0.0000000000000000E+00
   0.0000000000000000E+00
   0.0000000000000000E+00
   0.0000000000000000E+00
   0.0000000000000000E+00
   0.0000000000000000E+00
   0.0000000000000000E+00
   0.0000000000000000E+00
   0.0000000000000000E+00
   0.0000000000000000E+00
   0.0000000000000000E+00
   0.0000000000000000E+00
   0.0000000000000000E+00
   0.0000000000000000E+00
   0.0000000000000000E+00
   0.0000000000000000E+00
   0.0000000000000000E+00
   0.0000000000000000E+00
   0.0000000000000000E+00
   0.0000000000000000E+00
   0.0000000000000000E+00
   0.0000000000000000E+00
   0.0000000000000000E+00
   0.0000000000000000E+00
   0.0000000000000000E+00
   0.0000000000000000E+00
  -0.1007612295690332E+00
  -0.4249297171951323E-01
   0.7371985027084334E-03
   0.5725799913212991E-02
   0.5699057127742808E-03
   0.1609783050812104E-02
   0.3375072953794625E-02
   0.2371773612389735E-02
   0.4590624688459168E-03
   0.3518225903652509E-02
   0.4521817542676019E-01
   0.6522937743370376E-01
   0.8689296372237900E-03
  -0.2261151850650485E-01
   0.4316553462060785E-02
   0.1358734825109987E-01
   0.1039452543195820E-01
   0.4900548386459667E-01
   0.2437443436148335E-02
  -0.6509941253175396E-02
  -0.7012228333850352E-03
   0.3411015808728342E-03
   0.3904107215798536E-02
  -0.3893254340048274E-01
   0.1798168084569412E-01
   0.1119638187032131E-01
   0.3403773232587604E-01
   0.8438810087938788E-02
   0.4937312258339403E-02
   0.4970345570420475E-02
   0.4871517384483183E-02
   0.6027191689983400E-02
   0.2599191725459352E-02
  -0.4144429605846914E-01
  -0.9954261890759354E-01
  -0.1121678226152530E+00
   0.5070874991641172E-02
   0.4230770635877034E-02
  -0.1004732306713512E+00
  -0.9895252518298377E-01
  -0.9875450985451087E-01
  -0.9462509662028139E-01
  -0.6807133844218234E-01
   0.5154922142454619E-02
  -0.1935330761882788E-01
  -0.1575800300616225E-01
  -0.6002862519117491E-02
   0.6819057359627358E-02
  -0.8010050862546117E-01
  -0.2781092485549982E-01
  -0.8096457380735270E-01
  -0.5873277589773183E-01
   0.3083625656967137E-02
   0.2685146444264656E-02
   0.2640431149525850E-02
   0.3450191893743005E-02
   0.4007083732207284E-02
   0.1201214263249631E-02
  -0.1438846848862504E-03
   0.2039877271802436E-02
   0.4895693561369248E-02
   0.3857385529887686E-02
   0.1114201914137323E-02
   0.1182682026687271E-02
   0.1465296245046984E-02
  -0.1653640952846993E-04
   0.8996619349842411E-04
   0.4386667815035607E-02
   0.2715724180942581E-02
   0.2322755243445367E-02
   0.5010600972423952E-02
   0.1071689286953373E-02
   0.2712217656970501E-02
   0.2013964044594027E-02
   0.2879081966229741E-04
   0.8374614317790756E-01
   0.2793870688668219E-02
  -0.8346628061340445E-03
  -0.1492945704391322E-03
   0.1409540840025731E+00
   0.1239332947424848E+00
  -0.1219093306620304E-02
  -0.4381936076110165E-02
  -0.3043057959513362E-03
  -0.6512246825790432E-02
  -0.1949570332964538E-02
   0.1557630965107768E+00
   0.7489979169968096E-01
   0.2550174899521694E-01
   0.1656445112454726E+00