# vtk DataFile Version 2.0
FUN3D:global_image_vtk
ASCII
DATASET UNSTRUCTURED_GRID
POINTS 213 double
    0.0000000000000000E+00    0.2500000000000000E+01    0.0000000000000000E+00
    0.1250000000000000E+01    0.2500000000000000E+01    0.0000000000000000E+00
    0.2500000000000000E+01    0.2500000000000000E+01    0.0000000000000000E+00
    0.3750000000000000E+01    0.2500000000000000E+01    0.0000000000000000E+00
    0.5000000000000000E+01    0.2500000000000000E+01    0.0000000000000000E+00
    0.5000000000000000E+01    0.1250000000000000E+01    0.0000000000000000E+00
    0.5000000000000000E+01    0.0000000000000000E+00    0.0000000000000000E+00
    0.5000000000000000E+01   -0.1250000000000000E+01    0.0000000000000000E+00
    0.5000000000000000E+01   -0.2500000000000000E+01    0.0000000000000000E+00
    0.3750000000000000E+01   -0.2500000000000000E+01    0.0000000000000000E+00
    0.2500000000000000E+01   -0.2500000000000000E+01    0.0000000000000000E+00
    0.1250000000000000E+01   -0.2500000000000000E+01    0.0000000000000000E+00
    0.0000000000000000E+00   -0.2500000000000000E+01    0.0000000000000000E+00
    0.0000000000000000E+00   -0.1250000000000000E+01    0.0000000000000000E+00
    0.0000000000000000E+00    0.0000000000000000E+00    0.0000000000000000E+00
    0.0000000000000000E+00    0.1250000000000000E+01    0.0000000000000000E+00
    0.9058375365086910E+00    0.1578994732800803E+01    0.0000000000000000E+00
    0.3982050490726493E+01   -0.1583989954232354E+01    0.0000000000000000E+00
    0.4033849428301197E+01    0.1453322699199022E+01    0.0000000000000000E+00
    0.1040505887381675E+01   -0.1479596339503735E+01    0.0000000000000000E+00
    0.1099454400140349E+01   -0.3227322616384110E+00    0.0000000000000000E+00
    0.7354504170366591E+00    0.6593508822075582E+00    0.0000000000000000E+00
    0.1622302608453282E+01    0.8256214013940779E+00    0.0000000000000000E+00
    0.2145871574390382E+01   -0.1650070333782557E+01    0.0000000000000000E+00
    0.4086422318222992E+01   -0.4612828702537229E+00    0.0000000000000000E+00
    0.2979540174134984E+01   -0.8579242121530853E+00    0.0000000000000000E+00
    0.3045064261640043E+01   -0.1836846154397680E+01    0.0000000000000000E+00
    0.3428197553792836E+01    0.3508002863614053E+00    0.0000000000000000E+00
    0.4309693860063405E+01    0.5185680230613409E+00    0.0000000000000000E+00
    0.1827272193562204E+01    0.1738996113203182E+01    0.0000000000000000E+00
    0.2808563282768077E+01    0.1325493893339706E+01    0.0000000000000000E+00
    0.1895995683864404E+01   -0.8731419609589618E+00    0.0000000000000000E+00
    0.2273179336307740E+01    0.4906150219227333E-01    0.0000000000000000E+00
    0.5000000000000000E+01    0.2500000000000000E+01    0.1250000000000000E+01
    0.5000000000000000E+01    0.2500000000000000E+01    0.2500000000000000E+01
    0.5000000000000000E+01    0.2500000000000000E+01    0.3750000000000000E+01
    0.5000000000000000E+01    0.2500000000000000E+01    0.5000000000000000E+01
    0.3750000000000000E+01    0.2500000000000000E+01    0.5000000000000000E+01
    0.2500000000000000E+01    0.2500000000000000E+01    0.5000000000000000E+01
    0.1250000000000000E+01    0.2500000000000000E+01    0.5000000000000000E+01
    0.0000000000000000E+00    0.2500000000000000E+01    0.5000000000000000E+01
    0.0000000000000000E+00    0.2500000000000000E+01    0.3750000000000000E+01
    0.0000000000000000E+00    0.2500000000000000E+01    0.2500000000000000E+01
    0.0000000000000000E+00    0.2500000000000000E+01    0.1250000000000000E+01
    0.9631080833812172E+00    0.2500000000000000E+01    0.9613285771248219E+00
    0.3981732467264904E+01    0.2500000000000000E+01    0.4069753913607991E+01
    0.4035525118777670E+01    0.2500000000000000E+01    0.1012015867579395E+01
    0.9641717640894248E+00    0.2500000000000000E+01    0.3972455192261839E+01
    0.1547743040396780E+01    0.2500000000000000E+01    0.2928177746738678E+01
    0.6985170616192014E+00    0.2500000000000000E+01    0.3068281976055466E+01
    0.8931277594515110E+00    0.2500000000000000E+01    0.2052465503257726E+01
    0.2183293750162785E+01    0.2500000000000000E+01    0.3959073795658649E+01
    0.3855333506014705E+01    0.2500000000000000E+01    0.2931218481500625E+01
    0.3152495579421047E+01    0.2500000000000000E+01    0.3635850502723324E+01
    0.3103247580566054E+01    0.2500000000000000E+01    0.4331682712472464E+01
    0.3266837581688852E+01    0.2500000000000000E+01    0.1886092433583972E+01
    0.4231539241296245E+01    0.2500000000000000E+01    0.1915865356532799E+01
    0.1909741006522088E+01    0.2500000000000000E+01    0.7170024419130505E+00
    0.2880784107213163E+01    0.2500000000000000E+01    0.9046598906449592E+00
    0.2014316024535771E+01    0.2500000000000000E+01    0.1762464314805728E+01
    0.2670003247036656E+01    0.2500000000000000E+01    0.2850479545835163E+01
    0.5000000000000000E+01    0.1250000000000000E+01    0.5000000000000000E+01
    0.5000000000000000E+01    0.0000000000000000E+00    0.5000000000000000E+01
    0.5000000000000000E+01   -0.1250000000000000E+01    0.5000000000000000E+01
    0.5000000000000000E+01   -0.2500000000000000E+01    0.5000000000000000E+01
    0.5000000000000000E+01   -0.2500000000000000E+01    0.3750000000000000E+01
    0.5000000000000000E+01   -0.2500000000000000E+01    0.2500000000000000E+01
    0.5000000000000000E+01   -0.2500000000000000E+01    0.1250000000000000E+01
    0.5000000000000000E+01    0.1578994732800803E+01    0.9058375365086910E+00
    0.5000000000000000E+01   -0.1583989954232354E+01    0.3982050490726493E+01
    0.5000000000000000E+01    0.1453322699199022E+01    0.4033849428301197E+01
    0.5000000000000000E+01   -0.1479596339503735E+01    0.1040505887381675E+01
    0.5000000000000000E+01   -0.3227322616384110E+00    0.1099454400140349E+01
    0.5000000000000000E+01    0.6593508822075582E+00    0.7354504170366591E+00
    0.5000000000000000E+01    0.8256214013940779E+00    0.1622302608453282E+01
    0.5000000000000000E+01   -0.1650070333782557E+01    0.2145871574390382E+01
    0.5000000000000000E+01   -0.4612828702537229E+00    0.4086422318222992E+01
    0.5000000000000000E+01   -0.8579242121530853E+00    0.2979540174134984E+01
    0.5000000000000000E+01   -0.1836846154397680E+01    0.3045064261640043E+01
    0.5000000000000000E+01    0.3508002863614053E+00    0.3428197553792836E+01
    0.5000000000000000E+01    0.5185680230613409E+00    0.4309693860063405E+01
    0.5000000000000000E+01    0.1738996113203182E+01    0.1827272193562204E+01
    0.5000000000000000E+01    0.1325493893339706E+01    0.2808563282768077E+01
    0.5000000000000000E+01   -0.8731419609589618E+00    0.1895995683864404E+01
    0.5000000000000000E+01    0.4906150219227333E-01    0.2273179336307740E+01
    0.0000000000000000E+00    0.1250000000000000E+01    0.5000000000000000E+01
    0.0000000000000000E+00    0.0000000000000000E+00    0.5000000000000000E+01
    0.0000000000000000E+00   -0.1250000000000000E+01    0.5000000000000000E+01
    0.0000000000000000E+00   -0.2500000000000000E+01    0.5000000000000000E+01
    0.1250000000000000E+01   -0.2500000000000000E+01    0.5000000000000000E+01
    0.2500000000000000E+01   -0.2500000000000000E+01    0.5000000000000000E+01
    0.3750000000000000E+01   -0.2500000000000000E+01    0.5000000000000000E+01
    0.4042003247744892E+01    0.1558308132739014E+01    0.5000000000000000E+01
    0.9304122287900499E+00   -0.1548001304379777E+01    0.5000000000000000E+01
    0.1037243024609388E+01    0.1462892710085612E+01    0.5000000000000000E+01
    0.3946240828834967E+01   -0.1445243809615570E+01    0.5000000000000000E+01
    0.4092527262848217E+01   -0.3455338993778935E+00    0.5000000000000000E+01
    0.4293103109154542E+01    0.6277660831404320E+00    0.5000000000000000E+01
    0.3241512314643519E+01    0.7429886854239611E+00    0.5000000000000000E+01
    0.2844289952419609E+01   -0.1588117879734118E+01    0.5000000000000000E+01
    0.7159905765450471E+00   -0.6002320124191652E+00    0.5000000000000000E+01
    0.1754341919796891E+01   -0.7398147869923652E+00    0.5000000000000000E+01
    0.1870296826774691E+01   -0.1788622905643739E+01    0.5000000000000000E+01
    0.9220614901912976E+00    0.3083720183248586E+00    0.5000000000000000E+01
    0.3101523624086016E+01    0.1777901774806180E+01    0.5000000000000000E+01
    0.2192512063922564E+01    0.1576861561598471E+01    0.5000000000000000E+01
    0.2024793420196460E+01    0.4773861992750707E+00    0.5000000000000000E+01
    0.2990627757741975E+01   -0.4878110785814084E+00    0.5000000000000000E+01
    0.0000000000000000E+00   -0.2500000000000000E+01    0.1250000000000000E+01
    0.0000000000000000E+00   -0.2500000000000000E+01    0.2500000000000000E+01
    0.0000000000000000E+00   -0.2500000000000000E+01    0.3750000000000000E+01
    0.0000000000000000E+00    0.1558308132739014E+01    0.4042003247744892E+01
    0.0000000000000000E+00   -0.1548001304379777E+01    0.9304122287900499E+00
    0.0000000000000000E+00    0.1462892710085612E+01    0.1037243024609388E+01
    0.0000000000000000E+00   -0.1445243809615570E+01    0.3946240828834967E+01
    0.0000000000000000E+00   -0.3455338993778935E+00    0.4092527262848217E+01
    0.0000000000000000E+00    0.6277660831404320E+00    0.4293103109154542E+01
    0.0000000000000000E+00    0.7429886854239611E+00    0.3241512314643519E+01
    0.0000000000000000E+00   -0.1588117879734118E+01    0.2844289952419609E+01
    0.0000000000000000E+00   -0.6002320124191652E+00    0.7159905765450471E+00
    0.0000000000000000E+00   -0.7398147869923652E+00    0.1754341919796891E+01
    0.0000000000000000E+00   -0.1788622905643739E+01    0.1870296826774691E+01
    0.0000000000000000E+00    0.3083720183248586E+00    0.9220614901912976E+00
    0.0000000000000000E+00    0.1777901774806180E+01    0.3101523624086016E+01
    0.0000000000000000E+00    0.1576861561598471E+01    0.2192512063922564E+01
[...]
POINT_DATA 213
SCALARS rho double 1
LOOKUP_TABLE default
   0.1344271440912395E+01
   0.9569758897863755E+00
   0.9462964176940286E+00
   0.9418612713621665E+00
   0.8437304867613121E+00
   0.7738004278123451E+00
   0.7629818919318820E+00
   0.7664577913669354E+00
   0.8307874018032960E+00
   0.9352972536773871E+00
   0.9342219803713538E+00
   0.9617195277699264E+00
   0.1449457449828246E+01
   0.1494090635427197E+01
   0.1644667270741270E+01
   0.1425832040073636E+01
   0.1009014432309335E+01
   0.9508810856369411E+00
   0.9436508478238426E+00
   0.9581561028618467E+00
   0.9415852438278138E+00
   0.1036377239811016E+01
   0.9256161104901717E+00
   0.9322349854541282E+00
   0.9537479562312469E+00
   0.9518769536705992E+00
   0.9348583121763533E+00
   0.9564028410552979E+00
   0.9376098395232947E+00
   0.9300661525549170E+00
   0.9445157467498355E+00
   0.8863506494604135E+00
   0.9423579961283598E+00
   0.9635003070167489E+00
   0.1008299039446994E+01
   0.1006735291869895E+01
   0.1001964617529349E+01
   0.1003219581404677E+01
   0.1004132053827307E+01
   0.1005228602818553E+01
   0.1004260408156005E+01
   0.1008308189822334E+01
   0.1023893137586966E+01
   0.1063553955860358E+01
   0.1019182512252763E+01
   0.1001780766355402E+01
   0.9643309927906183E+00
   0.1005283708839929E+01
   0.1000721163190438E+01
   0.1008742083608754E+01
   0.1008078083554023E+01
   0.1002349806980941E+01
   0.9979986847938177E+00
   0.1000583560870304E+01
   0.1001620123529954E+01
   0.9826893070000350E+00
   0.9842439638604281E+00
   0.9833314025057176E+00
   0.9788207398577409E+00
   0.9902638158441538E+00
   0.9934561552463861E+00
   0.1002011751594372E+01
   0.1002134465610165E+01
   0.1002276326482101E+01
   0.1001794758295478E+01
   0.1009778638880324E+01
   0.1006429109071261E+01
   0.9558786957636003E+00
   0.9249398397273161E+00
   0.1007036755524907E+01
   0.1004504925174827E+01
   0.9143642070310408E+00
   0.9089667851851477E+00
   0.8751688890614551E+00
   0.9767271881663699E+00
   0.1000452621127938E+01
   0.1005831087492837E+01
   0.1012882803335297E+01
   0.1011618951332904E+01
   0.1010438648734988E+01
   0.1005468280912005E+01
   0.9907612676211556E+00
   0.1005140325747189E+01
   0.9860567244033330E+00
   0.1005609737717932E+01
   0.1004248005616876E+01
   0.1002888437615265E+01
   0.1003345420379961E+01
   0.1003992731797462E+01
   0.1005101716069856E+01
   0.1003211645052592E+01
   0.1002663159890786E+01
   0.1002586231315955E+01
   0.1004060870857393E+01
   0.1004320345944321E+01
   0.1001641920292259E+01
   0.1002273115892643E+01
   0.1002543475498711E+01
   0.1003469520693620E+01
   0.1003372640175254E+01
   0.1003232229966904E+01
   0.1004423863352716E+01
   0.1004313070742316E+01
   0.1003659849327619E+01
   0.1003723103829777E+01
   0.1004329726320016E+01
   0.1004465021746196E+01
   0.1003623375226059E+01
   0.1064422800670471E+01
   0.1028473621175649E+01
   0.1009586657194222E+01
   0.1006638837345254E+01
   0.1163935521134654E+01
   0.1086087969729323E+01
   0.1007893419144699E+01
   0.1007245533184651E+01
   0.1006798074032106E+01
   0.1013018286646220E+01
   0.1019384609313341E+01
   0.1235203668333969E+01
   0.1032529466752694E+01
   0.1046681191240686E+01
   0.1200953641401559E+01
   0.1014718915817667E+01
   0.1032291152833984E+01
   0.1028095236190430E+01
   0.1014628639551550E+01
   0.1029216892995771E+01
   0.1001994816306555E+01
   0.9606929191314856E+00
   0.1006852582684070E+01
   0.1001327193202102E+01
   0.1010821905222970E+01
   0.1012246098712421E+01
   0.1000946006818742E+01
   0.9979121233846048E+00
   0.9980632372001341E+00
   0.1001184143284445E+01
   0.9841362011040453E+00
   0.9814879614627446E+00
   0.9648483320345995E+00
   0.9680877123928529E+00
   0.9914124471421049E+00
   0.9910858387982588E+00
   0.9925545096121587E+00
   0.1001727533805938E+01
   0.9993409402199049E+00
   0.9941410835716387E+00
   0.1007038753690946E+01
   0.1022539494087542E+01
   0.1001088098266016E+01
   0.1008798496096018E+01
   0.1004773845949107E+01
   0.1009050237274117E+01
   0.9966470331158452E+00
   0.1004988556460160E+01
   0.1003325535066312E+01
   0.9949431084994186E+00
   0.9832680780999546E+00
   0.9943957454806303E+00
   0.9973420656213293E+00
   0.9932190085755580E+00
   0.1001306487035514E+01
   0.1003001636832866E+01
   0.1002183579535507E+01
   0.9947078545576707E+00
   0.9937965521343795E+00
   0.1004867865375269E+01
   0.1020077607383764E+01
   0.1005364552294304E+01
   0.9816998151127407E+00
   0.1004973031119590E+01
   0.1012382323261145E+01
   0.9871424289009212E+00
   0.9551513525286537E+00
   0.9865075698606302E+00
   0.9864532948386993E+00
   0.9918946935689112E+00
   0.9933508196541675E+00
   0.9954406179933233E+00
   0.1037336789473297E+01
   0.1033536797154476E+01
   0.1001443320748783E+01
   0.1001930499658646E+01
   0.9912478515772060E+00
   0.9910920508910964E+00
   0.9648489987620843E+00
   0.9933282604570581E+00
   0.1006058638635490E+01
   0.1001954027116782E+01
   0.9908735803943139E+00
   0.9740945207573957E+00
   0.9418802129346935E+00
   0.9819379685866035E+00
   0.9794803559464461E+00
   0.9704172051431803E+00
   0.9720478941674278E+00
   0.9557351698743445E+00
   0.9496731205815544E+00
   0.9528673559202724E+00
   0.1002659533907120E+01
   0.1002471631817453E+01
   0.1000509329216210E+01
   0.1001677321765496E+01
   0.9607931423213448E+00
   0.9491625495411444E+00
   0.9584503061727346E+00
   0.1001121207650799E+01
   0.1000496140483798E+01
   0.1001156644150502E+01
   0.9807376182811526E+00
   0.9806000805225689E+00
   0.9628476099407624E+00
SCALARS u double 1
LOOKUP_TABLE default
   0.0000000000000000E+00
   0.0000000000000000E+00
   0.0000000000000000E+00
   0.0000000000000000E+00
   0.0000000000000000E+00
   0.0000000000000000E+00
   0.0000000000000000E+00
   0.0000000000000000E+00
   0.0000000000000000E+00
   0.0000000000000000E+00
   0.0000000000000000E+00
   0.0000000000000000E+00
   0.0000000000000000E+00
   0.0000000000000000E+00
   0.0000000000000000E+00
   0.0000000000000000E+00
   0.0000000000000000E+00
   0.0000000000000000E+00
   0.0000000000000000E+00
   0.0000000000000000E+00
   0.0000000000000000E+00
   0.0000000000000000E+00
   0.0000000000000000E+00
   0.0000000000000000E+00
   0.0000000000000000E+00
   0.0000000000000000E+00
   0.0000000000000000E+00
   0.0000000000000000E+00
   0.0000000000000000E+00
   0.0000000000000000E+00
   0.0000000000000000E+00
   0.0000000000000000E+00
   0.0000000000000000E+00
   0.4950176843735717E+00
   0.5338221298737899E+00
   0.5183269245566615E+00
   0.4930649880225243E+00
   0.4847578721098424E+00
   0.4867666425932177E+00
   0.4890763585387685E+00
   0.4957848881621552E+00
   0.4898301885749935E+00
   0.4717388497417876E+00
   0.4454814157122037E+00
   0.4833907043449501E+00
   0.5098397462657284E+00
   0.4390712706878602E+00
   0.4949403966338414E+00
   0.5225330362992141E+00
   0.4962454547395396E+00
   0.5226154964482929E+00
   0.5038881744289668E+00
   0.5646883607866239E+00
   0.5247509156931640E+00
   0.4991466120737431E+00
   0.5730561900954773E+00
   0.5696051097849456E+00
   0.3737941446253643E+00
   0.3998658125957607E+00
   0.5599326585097248E+00
   0.5564587629981835E+00
   0.4942627332877900E+00
   0.4948659465974192E+00
   0.4925735873992155E+00
   0.4914269544136492E+00
   0.5162356849945912E+00
   0.5361798304002499E+00
   0.4947413359177056E+00
   0.4524112214999911E+00
   0.5128777324757087E+00
   0.5117942039469605E+00
   0.4783517510174593E+00
   0.4931696663576258E+00
   0.4603173603327623E+00
   0.5244892723406008E+00
   0.5297434247237996E+00
   0.5129579299633102E+00
   0.5328358317650378E+00
   0.5308941035618830E+00
   0.5309856167908055E+00
   0.5063656734479933E+00
   0.5282461956532593E+00
   0.5410312728145895E+00
   0.5361261482416092E+00
   0.5374105274738291E+00
   0.4965364819748859E+00
   0.4975340904914373E+00
   0.4963842645431027E+00
   0.4955220268571340E+00
   0.4904581832748870E+00
   0.4903044386892860E+00
   0.4862182765526970E+00
   0.4854049562548460E+00
   0.4932164389431672E+00
   0.4909833313943569E+00
   0.4832194697649607E+00
   0.4872622778195839E+00
   0.4880124910532332E+00
   0.4872445933246121E+00
   0.4882696671082839E+00
   0.4952597557779758E+00
   0.4900967169642939E+00
   0.4904000092422616E+00
   0.4944232926935438E+00
   0.4868002482654421E+00
   0.4892385985770258E+00
   0.4881393371631258E+00
   0.4878457830545555E+00
   0.4446866582215586E+00
   0.4700028782505912E+00
   0.4891999057970230E+00
   0.4885247845296897E+00
   0.4506533050946232E+00
   0.4687378568351393E+00
   0.4877010458315796E+00
   0.4868353684927954E+00
   0.4908994717338923E+00
   0.4793551579588841E+00
   0.4658071749215720E+00
   0.3792725235093901E+00
   0.4901596530229332E+00
   0.4486686693363635E+00
   0.4436137395320243E+00
   0.4845147243528316E+00
   0.4621822649094628E+00
   0.4665749538366347E+00
   0.4748140302125065E+00
   0.4894494215006305E+00
   0.5085556973381967E+00
   0.4315073874018145E+00
   0.4927349362396062E+00
   0.5318289233989635E+00
   0.4913399197343484E+00
   0.5207019993564385E+00
   0.5060964600232547E+00
   0.5688797394734784E+00
   0.5273992817819131E+00
   0.5015044842172037E+00
   0.5821790087124716E+00
   0.5689618252552128E+00
   0.3406394443567594E+00
   0.3789869413145091E+00
   0.5751958206501423E+00
   0.5666485492821453E+00
   0.5704108782658688E+00
   0.5291056376407829E+00
   0.5451902711197232E+00
   0.5718804314677830E+00
   0.5389079126994375E+00
   0.5475507505277354E+00
   0.5821713867174184E+00
   0.4925601785718908E+00
   0.5042157547287924E+00
   0.4961735437578172E+00
   0.5565207961346754E+00
   0.4758845203828749E+00
   0.4950268384807584E+00
   0.5498525443127239E+00
   0.5891202296313638E+00
   0.5841957608301167E+00
   0.5469097664223374E+00
   0.5805417616992962E+00
   0.5106251439211610E+00
   0.5030200514202979E+00
   0.5033624680714545E+00
   0.5676446095435411E+00
   0.5563943082579128E+00
   0.4947255974644063E+00
   0.5505243828295373E+00
   0.5510857280881394E+00
   0.5657350949545161E+00
   0.4920070019070476E+00
   0.4927299097747821E+00
   0.3865140569090394E+00
   0.3687754533500484E+00
   0.5574921717209981E+00
   0.5763755544198460E+00
   0.4194304388647618E+00
   0.5824843239583279E+00
   0.4265209606422503E+00
   0.5392799843804129E+00
   0.5012032759101513E+00
   0.5119513208380649E+00
   0.5049119464588969E+00
   0.5751974973384554E+00
   0.5876371360039399E+00
   0.5379907806728536E+00
   0.5677472539720573E+00
   0.5351248665798066E+00
   0.5338056378905466E+00
   0.5580313797965547E+00
   0.5512707862777165E+00
   0.4261852759205568E+00
   0.5273356177171934E+00
   0.5795712529642512E+00
   0.3318687134370548E+00
   0.4760283324868841E+00
   0.5446196255139727E+00
   0.4798331900765442E+00
   0.3005293508436868E+00
   0.5031051138912178E+00
   0.5017115978781286E+00
   0.5129033211212444E+00
   0.5414840107401970E+00
   0.3437603856037124E+00
   0.3397710717556150E+00
   0.3189928570953536E+00
   0.5065936052716402E+00
   0.5123483780038445E+00
   0.5330313518770845E+00
   0.5879310000107829E+00
   0.4644180533581477E+00
   0.3531270510025815E+00
SCALARS v double 1
LOOKUP_TABLE default
   0.0000000000000000E+00
   0.0000000000000000E+00
   0.0000000000000000E+00
   0.0000000000000000E+00
   0.0000000000000000E+00
   0.0000000000000000E+00
   0.0000000000000000E+00
   0.0000000000000000E+00
   0.0000000000000000E+00
   0.0000000000000000E+00
   0.0000000000000000E+00
   0.0000000000000000E+00
   0.0000000000000000E+00
   0.0000000000000000E+00
   0.0000000000000000E+00
   0.0000000000000000E+00
   0.0000000000000000E+00
   0.0000000000000000E+00
   0.0000000000000000E+00
   0.0000000000000000E+00
   0.0000000000000000E+00
   0.0000000000000000E+00
   0.0000000000000000E+00
   0.0000000000000000E+00
   0.0000000000000000E+00
   0.0000000000000000E+00
   0.0000000000000000E+00
   0.0000000000000000E+00
   0.0000000000000000E+00
   0.0000000000000000E+00
   0.0000000000000000E+00
   0.0000000000000000E+00
   0.0000000000000000E+00
   0.0000000000000000E+00
   0.0000000000000000E+00
   0.0000000000000000E+00
   0.0000000000000000E+00
   0.0000000000000000E+00
   0.0000000000000000E+00
   0.0000000000000000E+00
   0.0000000000000000E+00
   0.0000000000000000E+00
   0.0000000000000000E+00
   0.0000000000000000E+00
   0.0000000000000000E+00
   0.0000000000000000E+00
   0.0000000000000000E+00
   0.0000000000000000E+00
   0.0000000000000000E+00
   0.0000000000000000E+00
   0.0000000000000000E+00
   0.0000000000000000E+00
   0.0000000000000000E+00
   0.0000000000000000E+00
   0.0000000000000000E+00
   0.0000000000000000E+00
   0.0000000000000000E+00
   0.0000000000000000E+00
   0.0000000000000000E+00
   0.0000000000000000E+00
   0.0000000000000000E+00
   0.7970254645372256E-03
  -0.1329294669339540E-02
  -0.1332592740087988E-02
   0.0000000000000000E+00
   0.0000000000000000E+00
   0.0000000000000000E+00
   0.0000000000000000E+00
  -0.1922562548499663E-01
   0.4770618341128658E-03
   0.2183360202269501E-02
   0.1427333022306417E-01
  -0.6488281884479456E-02
  -0.7821622615454608E-02
  -0.1327725037415495E-01
   0.4914481862647061E-02
   0.6907122335088199E-03
   0.3434418490387160E-02
   0.1920847413523963E-02
   0.3147960302510197E-02
   0.1704778410121353E-02
  -0.7316187238090154E-02
  -0.7701893542122765E-04
   0.4468738154446716E-02
  -0.4387155184369272E-03
  -0.6383741947851433E-04
  -0.1963394573663829E-03
   0.8071267924253108E-03
   0.0000000000000000E+00
   0.0000000000000000E+00
   0.0000000000000000E+00
   0.0000000000000000E+00
   0.4257020172941058E-03
   0.1616304629162105E-02
  -0.1297550934517000E-02
  -0.1022774961904140E-02
  -0.2134342389218571E-02
  -0.1064012650342656E-02
  -0.8200064200218401E-03
  -0.7617033106866604E-03
   0.5202258846203726E-04
  -0.6244091848605054E-03
   0.7916469217120219E-03
  -0.1745238498574127E-02
   0.2747128612374348E-03
  -0.8939746940397409E-04
  -0.9424310002499770E-03
  -0.1100227517941588E-02
   0.0000000000000000E+00
   0.0000000000000000E+00
   0.0000000000000000E+00
  -0.1061759105711547E-02
  -0.7641128567893635E-02
   0.1860854760701958E-01
  -0.2834553430493241E-04
  -0.1383129133753615E-02
  -0.2035122952490977E-02
  -0.5666383173709024E-02
  -0.1585210204773581E-02
  -0.5947016691487433E-02
  -0.4160601864884676E-02
   0.1565614817824990E-02
   0.3329524829856436E-01
   0.3055139823427153E-04
  -0.2766884935281841E-02
   0.3566484722899351E-02
   0.3596189764753106E-03
   0.0000000000000000E+00
   0.0000000000000000E+00
   0.0000000000000000E+00
   0.0000000000000000E+00
   0.0000000000000000E+00
   0.0000000000000000E+00
   0.0000000000000000E+00
   0.0000000000000000E+00
   0.0000000000000000E+00
   0.0000000000000000E+00
   0.0000000000000000E+00
   0.0000000000000000E+00
   0.0000000000000000E+00
   0.0000000000000000E+00
   0.0000000000000000E+00
   0.0000000000000000E+00
   0.0000000000000000E+00
   0.5047032614233779E-02
   0.3230791971029522E-02
   0.8149134284443761E-02
   0.6168367037002313E-02
   0.1122928636285451E-01
   0.1429277505014524E-01
  -0.2038825905479967E-03
   0.5118221825394105E-02
   0.2914950539900966E-02
   0.3373611807292292E-02
   0.3728336452892491E-02
  -0.1465719846946497E-01
  -0.6159699768113353E-03
   0.6651630357045944E-02
   0.1542014336690747E-02
   0.1969646558885667E-02
   0.4266273565258933E-02
  -0.2790960868707819E-02
   0.1226887090587727E-02
   0.2819172491514355E-02
   0.1497449164504547E-02
   0.2575339115397015E-02
   0.2030646489324842E-02
   0.2118046073961453E-02
   0.8700410515565662E-02
  -0.3733396937657191E-02
   0.6241189144028908E-02
   0.2516489581853823E-04
  -0.3854044671888377E-03
  -0.1674679000268718E-01
  -0.4881976840532992E-02
  -0.4720000728854709E-02
   0.3445223089000265E-02
  -0.6135724025195807E-02
   0.9934527415013995E-04
  -0.3291372889078767E-01
  -0.3046196655786055E-02
   0.4722743194152971E-02
   0.9228368257850820E-03
   0.2112175232336958E-02
   0.4518755753618891E-02
   0.2720465305179284E-02
   0.3212576547245318E-02
   0.5200804262317014E-02
   0.1941838990072275E-02
   0.7315897870760138E-03
  -0.2555235623435221E-04
  -0.5374632749028452E-02
  -0.6959590887277330E-02
  -0.9443815847764373E-03
   0.1105268474873711E-02
  -0.2080554081323886E-02
  -0.3200035942759106E-02
  -0.2527833266859504E-02
  -0.4115193496425854E-02
  -0.7593954912316835E-02
  -0.1985686383195111E-02
   0.6240403040302319E-03
  -0.2239081415384798E-03
   0.1216949820272208E-02
  -0.3483958215777138E-02
   0.5229140073476864E-02
  -0.8487626063484884E-02
   0.2315172407228878E-04
  -0.3395192714760680E-03
   0.2542663565871409E-02
   0.1663457715533506E-02
   0.2021438727526593E-02
  -0.5620783904488894E-02
SCALARS w double 1
LOOKUP_TABLE default
   0.0000000000000000E+00
   0.0000000000000000E+00
   0.0000000000000000E+00
   0.0000000000000000E+00
   0.0000000000000000E+00
   0.0000000000000000E+00
   0.0000000000000000E+00
   0.0000000000000000E+00
   0.0000000000000000E+00
   0.0000000000000000E+00
   0.0000000000000000E+00
   0.0000000000000000E+00
   0.0000000000000000E+00
   0.0000000000000000E+00
   0.0000000000000000E+00
   0.0000000000000000E+00
   0.0000000000000000E+00
   0.0000000000000000E+00
   0.0000000000000000E+00
   0.0000000000000000E+00
   0.0000000000000000E+00
   0.0000000000000000E+00
   0.0000000000000000E+00
   0.0000000000000000E+00
   0.0000000000000000E+00
   0.0000000000000000E+00
   0.0000000000000000E+00
   0.0000000000000000E+00
   0.0000000000000000E+00
   0.0000000000000000E+00
   0.0000000000000000E+00
   0.0000000000000000E+00
   0.0000000000000000E+00
  -0.1007612295654924E+00
  -0.4249297171772656E-01
   0.7371985020706829E-03
   0.5725799911420552E-02
   0.5699057126856629E-03
   0.1609783051365340E-02
   0.3375072954645891E-02
   0.2371773612487060E-02
   0.4590624689223728E-03
   0.3518225903660321E-02
   0.4521817542666622E-01
   0.6522937743366490E-01
   0.8689296372068021E-03
  -0.2261151850781468E-01
   0.4316553462157573E-02
   0.1358734825098490E-01
   0.1039452543197424E-01
   0.4900548386459834E-01
   0.2437443436248485E-02
  -0.6509941253211056E-02
  -0.7012228336761451E-03
   0.3411015809434018E-03
   0.3904107215001221E-02
  -0.3893254339965609E-01
   0.1798168084562280E-01
   0.1119638186919563E-01
   0.3403773232510804E-01
   0.8438810087552260E-02
   0.4937312255505637E-02
   0.4970345568277698E-02
   0.4871517384444514E-02
   0.6027191690143788E-02
   0.2599191725616169E-02
  -0.4144429605841828E-01
  -0.9954261890760542E-01
  -0.1121678226145700E+00
   0.5070874991361579E-02
   0.4230770634147426E-02
  -0.1004732306714585E+00
  -0.9895252518289138E-01
  -0.9875450985435442E-01
  -0.9462509661965365E-01
  -0.6807133844226622E-01
   0.5154922141354316E-02
  -0.1935330761933044E-01
  -0.1575800300636151E-01
  -0.6002862519896292E-02
   0.6819057357333675E-02
  -0.8010050862320495E-01
  -0.2781092485555694E-01
  -0.8096457380746581E-01
  -0.5873277589782631E-01
   0.3083625657206294E-02
   0.2685146444357934E-02
   0.2640431149567802E-02
   0.3450191894051447E-02
   0.4007083732492527E-02
   0.1201214263372869E-02
  -0.1438846850993064E-03
   0.2039877270455823E-02
   0.4895693561583585E-02
   0.3857385530208121E-02
   0.1114201914469178E-02
   0.1182682025719829E-02
   0.1465296242348281E-02
  -0.1653640975182648E-04
   0.8996619353260964E-04
   0.4386667815198823E-02
   0.2715724181010803E-02
   0.2322755243832784E-02
   0.5010600972624002E-02
   0.1071689287738764E-02
   0.2712217657455008E-02
   0.2013964044673910E-02
   0.2879081993713202E-04
   0.8374614317730908E-01
   0.2793870688666202E-02
  -0.8346628060697062E-03
  -0.1492945703914300E-03
   0.1409540840026084E+00
   0.1239332947426621E+00
  -0.1219093306674194E-02
  -0.4381936076092168E-02
  -0.3043057958822280E-03
  -0.6512246825757420E-02
  -0.1949570332904559E-02
   0.1557630965108066E+00
   0.7489979169972408E-01
   0.2550174899524035E-01
   0.1656445112454953E+00