title="tecplot geometry and solution file"
variables = x y z rho u v w p mach temperature
zone t="boundary 1 bc-1", solutiontime= 0.1000000E+03, strandid=1001, i=32, j=46, f=feblock
  0.000000000000E+00  0.000000000000E+00  0.000000000000E+00  0.000000000000E+00  0.000000000000E+00  0.000000000000E+00  0.000000000000E+00
  0.000000000000E+00  0.000000000000E+00  0.000000000000E+00  0.000000000000E+00  0.000000000000E+00  0.000000000000E+00  0.000000000000E+00
  0.000000000000E+00  0.000000000000E+00  0.000000000000E+00  0.000000000000E+00  0.000000000000E+00  0.000000000000E+00  0.000000000000E+00
  0.000000000000E+00  0.000000000000E+00  0.000000000000E+00  0.000000000000E+00  0.000000000000E+00  0.000000000000E+00  0.000000000000E+00
  0.000000000000E+00  0.000000000000E+00  0.000000000000E+00  0.000000000000E+00
  0.250000000000E+01  0.250000000000E+01  0.125000000000E+01  0.146289271009E+01  0.157686156160E+01  0.308372018325E+00  0.000000000000E+00
 -0.125000000000E+01 -0.600232012419E+00  0.250000000000E+01  0.477386199275E+00  0.742988685424E+00 -0.739814786992E+00  0.177790177481E+01
  0.155830813274E+01  0.250000000000E+01 -0.250000000000E+01 -0.154800130438E+01 -0.487811078581E+00  0.250000000000E+01  0.627766083140E+00
 -0.345533899378E+00 -0.178862290564E+01 -0.158811787973E+01  0.125000000000E+01 -0.250000000000E+01 -0.144524380962E+01  0.000000000000E+00
 -0.125000000000E+01 -0.250000000000E+01 -0.250000000000E+01 -0.250000000000E+01
  0.000000000000E+00  0.125000000000E+01  0.000000000000E+00  0.103724302461E+01  0.219251206392E+01  0.922061490191E+00  0.000000000000E+00
  0.000000000000E+00  0.715990576545E+00  0.250000000000E+01  0.202479342020E+01  0.324151231464E+01  0.175434191980E+01  0.310152362409E+01
  0.404200324774E+01  0.375000000000E+01  0.000000000000E+00  0.930412228790E+00  0.299062775774E+01  0.500000000000E+01  0.429310310915E+01
  0.409252726285E+01  0.187029682677E+01  0.284428995242E+01  0.500000000000E+01  0.125000000000E+01  0.394624082883E+01  0.500000000000E+01
  0.500000000000E+01  0.250000000000E+01  0.375000000000E+01  0.500000000000E+01
  0.134427144091E+01  0.106355395586E+01  0.142583204007E+01  0.108608796973E+01  0.103229115283E+01  0.120095364140E+01  0.164466727074E+01
  0.149409063543E+01  0.123520366833E+01  0.102389313759E+01  0.102809523619E+01  0.101301828665E+01  0.103252946675E+01  0.101471891582E+01
  0.100663883735E+01  0.100830818982E+01  0.144945744983E+01  0.116393552113E+01  0.101462863955E+01  0.100426040816E+01  0.100679807403E+01
  0.100724553318E+01  0.104668119124E+01  0.101938460931E+01  0.100424800562E+01  0.106442280067E+01  0.100789341914E+01  0.100288843762E+01
  0.100334542038E+01  0.102847362118E+01  0.100958665719E+01  0.100399273180E+01
  0.000000000000E+00  0.445481415712E+00  0.000000000000E+00  0.468737856835E+00  0.462182264910E+00  0.443613739533E+00  0.000000000000E+00
  0.000000000000E+00  0.379272523510E+00  0.471738849742E+00  0.466574953837E+00  0.479355157959E+00  0.490159653023E+00  0.484514724353E+00
  0.488524784530E+00  0.489830188575E+00  0.000000000000E+00  0.450653305094E+00  0.474814030213E+00  0.495784888162E+00  0.490899471734E+00
  0.486835368493E+00  0.448668669337E+00  0.465807174922E+00  0.496536481975E+00  0.444686658223E+00  0.487701045832E+00  0.497534090492E+00
  0.496384264543E+00  0.470002878251E+00  0.489199905797E+00  0.495522026857E+00
  0.000000000000E+00  0.000000000000E+00  0.000000000000E+00  0.186085476070E-01 -0.276688493525E-02  0.332952482985E-01  0.000000000000E+00
  0.000000000000E+00 -0.594701669143E-02  0.000000000000E+00  0.356648472288E-02 -0.566638317371E-02 -0.416060186478E-02  0.305513982164E-04
 -0.106175910565E-02  0.000000000000E+00  0.000000000000E+00 -0.764112856807E-02  0.359618976453E-03  0.000000000000E+00 -0.203512295244E-02
 -0.138312913376E-02  0.156561481783E-02 -0.158521020467E-02 -0.638374194341E-04  0.000000000000E+00 -0.283455343294E-04 -0.196339457375E-03
  0.807126792438E-03  0.000000000000E+00  0.000000000000E+00  0.000000000000E+00
  0.000000000000E+00  0.452181754268E-01  0.000000000000E+00  0.123933294742E+00  0.247647171248E-01  0.165644511245E+00  0.000000000000E+00
  0.000000000000E+00  0.155763096511E+00  0.351822590365E-02  0.259783173447E-01 -0.651224682579E-02  0.748997916997E-01  0.371839287648E-02
 -0.149294570439E-03  0.459062468846E-03  0.000000000000E+00  0.140954084003E+00 -0.808565307379E-02  0.237177361239E-02 -0.304305795952E-03
 -0.438193607611E-02  0.255017489952E-01 -0.194957033296E-02  0.308362565697E-02  0.837461431779E-01 -0.121909330662E-02  0.268514644426E-02
  0.264043114953E-02  0.279387068867E-02 -0.834662806134E-03  0.345019189374E-02
  0.960184570558E+00  0.782340561973E+00  0.101844204757E+01  0.808726657819E+00  0.746125891892E+00  0.879446498964E+00  0.117475225450E+01
  0.106719924153E+01  0.916620146674E+00  0.737395238664E+00  0.743553972478E+00  0.725759211229E+00  0.757455250794E+00  0.729188343539E+00
  0.720785048151E+00  0.722781670807E+00  0.103531921496E+01  0.858317140577E+00  0.728065073227E+00  0.718615293824E+00  0.721013448693E+00
  0.721151587045E+00  0.760018786195E+00  0.732628403399E+00  0.718531161572E+00  0.791043235341E+00  0.722107949726E+00  0.717199383005E+00
  0.717636870813E+00  0.741799737323E+00  0.724056580010E+00  0.718400634576E+00
  0.000000000000E+00  0.441238348752E+00  0.000000000000E+00  0.475214987102E+00  0.460123709302E+00  0.468827815564E+00  0.000000000000E+00
  0.000000000000E+00  0.402302517210E+00  0.469814974782E+00  0.464411129395E+00  0.478714034526E+00  0.489298241704E+00  0.483068558178E+00
  0.487930073319E+00  0.488961654843E+00  0.000000000000E+00  0.464775721894E+00  0.473795652230E+00  0.495346592165E+00  0.490266103612E+00
  0.486286084100E+00  0.445717618447E+00  0.464382274938E+00  0.496127395044E+00  0.443624104090E+00  0.486964462153E+00  0.497246279882E+00
  0.496059271008E+00  0.467732355674E+00  0.488212087554E+00  0.495098264944E+00
  0.999990297993E+00  0.102982719469E+01  0.999990760848E+00  0.104247294188E+01  0.101190080510E+01  0.102520618291E+01  0.999991418058E+00
  0.999992170967E+00  0.103891223629E+01  0.100826277297E+01  0.101252833865E+01  0.100300548284E+01  0.102702865657E+01  0.100605563279E+01
  0.100244400472E+01  0.100355660040E+01  0.999992722187E+00  0.103239739229E+01  0.100459524084E+01  0.100179336274E+01  0.100260305835E+01
  0.100234966411E+01  0.101657153064E+01  0.100617544682E+01  0.100168844805E+01  0.104043292645E+01  0.100303376370E+01  0.100118726924E+01
  0.100134171017E+01  0.100976788405E+01  0.100405369345E+01  0.100176112491E+01
        12        19        11        11
        11         5        12        12
        10        14         5         5
        19        13        11        11
        19        24        13        13
        30        23        24        24
        19        12        22        22
        28        22        21        21
        11        13         6         6
         7         6         9         9
        15        12        14        14
        18        13        23        23
        15        25        21        21
        27        19        22        22
        18         8         9         9
        27        31        24        24
         4        11         6         6
         5        14        12        12
         4         2         5         5
        21        12        15        15
        14        16        15        15
        24        19        27        27
        22        29        27        27
        23        26        18        18
        17         8        18        18
         5        11         4         4
         6         3         4         4
        26        23        30        30
         5         2        10        10
        16        14        10        10
         3         6         7         7
        21        25        28        28
        29        22        28        28
         6        13         9         9
         2         4         1         1
        31        27        32        32
        25        15        20        20
        24        23        13        13
         8         7         9         9
        13        18         9         9
        31        30        24        24
        12        21        22        22
        29        32        27        27
         3         1         4         4
        26        17        18        18
        16        20        15        15
zone t="boundary 2 bc-2", solutiontime= 0.1000000E+03, strandid=1002, i=33, j=48, f=feblock
  0.500000000000E+01  0.375000000000E+01  0.250000000000E+01  0.288078410721E+01  0.125000000000E+01  0.190974100652E+01  0.326683758169E+01
  0.201431602454E+01  0.000000000000E+00  0.963108083381E+00  0.500000000000E+01  0.403552511878E+01  0.423153924130E+01  0.500000000000E+01
  0.385533350601E+01  0.500000000000E+01  0.398173246726E+01  0.315249557942E+01  0.267000324704E+01  0.154774304040E+01  0.218329375016E+01
  0.893127759452E+00  0.000000000000E+00  0.698517061619E+00  0.964171764089E+00  0.310324758057E+01  0.000000000000E+00  0.000000000000E+00
  0.125000000000E+01  0.500000000000E+01  0.375000000000E+01  0.250000000000E+01  0.000000000000E+00
 -0.250000000000E+01 -0.250000000000E+01 -0.250000000000E+01 -0.250000000000E+01 -0.250000000000E+01 -0.250000000000E+01 -0.250000000000E+01
 -0.250000000000E+01 -0.250000000000E+01 -0.250000000000E+01 -0.250000000000E+01 -0.250000000000E+01 -0.250000000000E+01 -0.250000000000E+01
 -0.250000000000E+01 -0.250000000000E+01 -0.250000000000E+01 -0.250000000000E+01 -0.250000000000E+01 -0.250000000000E+01 -0.250000000000E+01
 -0.250000000000E+01 -0.250000000000E+01 -0.250000000000E+01 -0.250000000000E+01 -0.250000000000E+01 -0.250000000000E+01 -0.250000000000E+01
 -0.250000000000E+01 -0.250000000000E+01 -0.250000000000E+01 -0.250000000000E+01 -0.250000000000E+01
  0.000000000000E+00  0.000000000000E+00  0.000000000000E+00  0.904659890645E+00  0.000000000000E+00  0.717002441913E+00  0.188609243358E+01
  0.176246431481E+01  0.000000000000E+00  0.961328577125E+00  0.125000000000E+01  0.101201586758E+01  0.191586535653E+01  0.250000000000E+01
  0.293121848150E+01  0.375000000000E+01  0.406975391361E+01  0.363585050272E+01  0.285047954584E+01  0.292817774674E+01  0.395907379566E+01
  0.205246550326E+01  0.125000000000E+01  0.306828197606E+01  0.397245519226E+01  0.433168271247E+01  0.250000000000E+01  0.375000000000E+01
  0.500000000000E+01  0.500000000000E+01  0.500000000000E+01  0.500000000000E+01  0.500000000000E+01
  0.830787401803E+00  0.935297253677E+00  0.934221980371E+00  0.968087712392E+00  0.961719527770E+00  0.964848332034E+00  0.984136201104E+00
  0.991412447142E+00  0.144945744983E+01  0.102921689300E+01  0.955878695762E+00  0.960692919130E+00  0.981487961462E+00  0.100642910907E+01
  0.997912123384E+00  0.100977863888E+01  0.100199481631E+01  0.998063237200E+00  0.991085838798E+00  0.100132719320E+01  0.100094600682E+01
  0.101224609871E+01  0.106442280067E+01  0.101082190522E+01  0.100685258268E+01  0.100118414328E+01  0.102847362118E+01  0.100958665719E+01
  0.100510171607E+01  0.100179475830E+01  0.100266315989E+01  0.100321164505E+01  0.100399273180E+01
  0.000000000000E+00  0.000000000000E+00  0.000000000000E+00  0.378986941315E+00  0.000000000000E+00  0.340639444357E+00  0.582179008713E+00
  0.575195820651E+00  0.000000000000E+00  0.489449421501E+00  0.494741335919E+00  0.431507387402E+00  0.568961825255E+00  0.536179830400E+00
  0.568879739473E+00  0.516235684995E+00  0.508555697338E+00  0.527399281782E+00  0.566648549282E+00  0.531828923399E+00  0.506096460024E+00
  0.520701999357E+00  0.444686658223E+00  0.491339919734E+00  0.492734936240E+00  0.501504484218E+00  0.470002878251E+00  0.489199905797E+00
  0.490458183275E+00  0.491426954414E+00  0.486218276553E+00  0.490304438690E+00  0.495522026857E+00
  0.000000000000E+00  0.000000000000E+00  0.000000000000E+00  0.000000000000E+00  0.000000000000E+00  0.000000000000E+00  0.000000000000E+00
  0.000000000000E+00  0.000000000000E+00  0.000000000000E+00  0.000000000000E+00  0.000000000000E+00  0.000000000000E+00  0.000000000000E+00
  0.000000000000E+00  0.000000000000E+00  0.000000000000E+00  0.000000000000E+00  0.000000000000E+00  0.000000000000E+00  0.000000000000E+00
  0.000000000000E+00  0.000000000000E+00  0.000000000000E+00  0.000000000000E+00  0.000000000000E+00  0.000000000000E+00  0.000000000000E+00
  0.000000000000E+00  0.000000000000E+00  0.000000000000E+00  0.000000000000E+00  0.000000000000E+00
  0.000000000000E+00  0.000000000000E+00  0.000000000000E+00 -0.229669073744E-02  0.000000000000E+00  0.183565246745E-01  0.121122186142E-01
  0.454986542875E-01  0.000000000000E+00  0.870789630856E-01 -0.995426189076E-01 -0.211864968125E-01 -0.306441472452E-01 -0.414442960585E-01
 -0.137883070711E-02  0.259919172546E-02  0.609478495411E-03  0.503572819109E-03  0.150967301068E-01  0.284025717858E-01  0.564163856304E-02
  0.553419830776E-01  0.837461431779E-01  0.110441020414E-01  0.679169179300E-02 -0.758115968226E-03  0.279387068867E-02 -0.834662806134E-03
  0.400708373221E-02  0.602719168998E-02 -0.143884684887E-03  0.120121426325E-02  0.345019189374E-02
  0.593415709084E+00  0.668065253207E+00  0.667297107134E+00  0.684257572327E+00  0.686937806303E+00  0.679201335792E+00  0.695811645326E+00
  0.702343853078E+00  0.103531921496E+01  0.723694676269E+00  0.672591690553E+00  0.675702734181E+00  0.694093188770E+00  0.720959962461E+00
  0.712691281770E+00  0.724770829777E+00  0.716580562895E+00  0.713298991976E+00  0.706429557495E+00  0.717737238840E+00  0.715376602378E+00
  0.730937674822E+00  0.791043235341E+00  0.724372849776E+00  0.721010721270E+00  0.715457540658E+00  0.741799737323E+00  0.724056580010E+00
  0.719312937978E+00  0.715892799146E+00  0.716608904949E+00  0.717367939389E+00  0.718400634576E+00
  0.000000000000E+00  0.000000000000E+00  0.000000000000E+00  0.380991906769E+00  0.000000000000E+00  0.343629825083E+00  0.585286157580E+00
  0.579373264243E+00  0.000000000000E+00  0.501056068905E+00  0.508460363053E+00  0.435373027043E+00  0.572640041362E+00  0.537002098793E+00
  0.568922553824E+00  0.514994090507E+00  0.508247257164E+00  0.527252853142E+00  0.567446661090E+00  0.531657143916E+00  0.505981016707E+00
  0.520795579445E+00  0.443624104090E+00  0.490663730630E+00  0.492155873923E+00  0.501390784789E+00  0.467732355674E+00  0.488212087554E+00
  0.490002767328E+00  0.491352304724E+00  0.486075475391E+00  0.490036479459E+00  0.495098264944E+00
  0.999993489206E+00  0.999993692714E+00  0.999993545021E+00  0.989539056219E+00  0.999993138389E+00  0.985524707396E+00  0.989838908846E+00
  0.991798516494E+00  0.999992722187E+00  0.984411112635E+00  0.985091906482E+00  0.984689081200E+00  0.990058464731E+00  0.100289621827E+01
  0.999855369122E+00  0.100485306642E+01  0.100121554695E+01  0.100055642924E+01  0.997896793372E+00  0.100350029561E+01  0.100058068718E+01
  0.101093276235E+01  0.104043292645E+01  0.100326475361E+01  0.100254498736E+01  0.100045587382E+01  0.100976788405E+01  0.100405369345E+01
  0.100192656830E+01  0.100045434507E+01  0.100058774179E+01  0.100109993748E+01  0.100176112491E+01
        15         7        19        19
         8        20        19        19
        18        19        21        21
         7         4         8         8
         3         6         4         4
        19         7         8         8
        19        18        15        15
        14        13        15        15
         8        22        20        20
        27        24        22        22
        19        20        21        21
        32        26        21        21
        17        18        26        26
        17        16        15        15
        25        29        21        21
        12         7        13        13
        10         8         6         6
        25        20        24        24
         4         6         8         8
        12         2         4         4
        10        23        22        22
        26        31        17        17
        30        16        17        17
         4         7        12        12
        13        11        12        12
        21        20        25        25
        24        28        25        25
        22         8        10        10
         6         5        10        10
        31        26        32        32
         4         2         3         3
         5         6         3         3
        11        13        14        14
        22        23        27        27
        28        24        27        27
        15        13         7         7
         2        12         1         1
        29        25        33        33
        23        10         9         9
        21        26        18        18
        16        14        15        15
        18        17        15        15
        29        32        21        21
        22        24        20        20
        28        33        25        25
        11         1        12        12
        31        30        17        17
         5         9        10        10
zone t="boundary 3 bc-3", solutiontime= 0.1000000E+03, strandid=1003, i=33, j=48, f=feblock
  0.375000000000E+01  0.250000000000E+01  0.500000000000E+01  0.403552511878E+01  0.288078410721E+01  0.125000000000E+01  0.190974100652E+01
  0.500000000000E+01  0.326683758169E+01  0.423153924130E+01  0.201431602454E+01  0.000000000000E+00  0.963108083381E+00  0.500000000000E+01
  0.267000324704E+01  0.385533350601E+01  0.893127759452E+00  0.154774304040E+01  0.000000000000E+00  0.500000000000E+01  0.315249557942E+01
  0.218329375016E+01  0.398173246726E+01  0.000000000000E+00  0.698517061619E+00  0.964171764089E+00  0.125000000000E+01  0.000000000000E+00
  0.500000000000E+01  0.310324758057E+01  0.250000000000E+01  0.375000000000E+01  0.000000000000E+00
  0.250000000000E+01  0.250000000000E+01  0.250000000000E+01  0.250000000000E+01  0.250000000000E+01  0.250000000000E+01  0.250000000000E+01
  0.250000000000E+01  0.250000000000E+01  0.250000000000E+01  0.250000000000E+01  0.250000000000E+01  0.250000000000E+01  0.250000000000E+01
  0.250000000000E+01  0.250000000000E+01  0.250000000000E+01  0.250000000000E+01  0.250000000000E+01  0.250000000000E+01  0.250000000000E+01
  0.250000000000E+01  0.250000000000E+01  0.250000000000E+01  0.250000000000E+01  0.250000000000E+01  0.250000000000E+01  0.250000000000E+01
  0.250000000000E+01  0.250000000000E+01  0.250000000000E+01  0.250000000000E+01  0.250000000000E+01
  0.000000000000E+00  0.000000000000E+00  0.000000000000E+00  0.101201586758E+01  0.904659890645E+00  0.000000000000E+00  0.717002441913E+00
  0.125000000000E+01  0.188609243358E+01  0.191586535653E+01  0.176246431481E+01  0.000000000000E+00  0.961328577125E+00  0.250000000000E+01
  0.285047954584E+01  0.293121848150E+01  0.205246550326E+01  0.292817774674E+01  0.125000000000E+01  0.375000000000E+01  0.363585050272E+01
  0.395907379566E+01  0.406975391361E+01  0.250000000000E+01  0.306828197606E+01  0.397245519226E+01  0.500000000000E+01  0.375000000000E+01
  0.500000000000E+01  0.433168271247E+01  0.500000000000E+01  0.500000000000E+01  0.500000000000E+01
  0.941861271360E+00  0.946296417693E+00  0.843730486758E+00  0.964330992777E+00  0.978820739858E+00  0.956975889786E+00  0.983331402506E+00
  0.963500307007E+00  0.982689307001E+00  0.984243963859E+00  0.990263815844E+00  0.134427144091E+01  0.101918251225E+01  0.100829903945E+01
  0.993456155246E+00  0.997998684794E+00  0.100807808355E+01  0.100072116319E+01  0.106355395586E+01  0.100673529187E+01  0.100058356087E+01
  0.100234980698E+01  0.100178076636E+01  0.102389313759E+01  0.100874208361E+01  0.100528370884E+01  0.100522860282E+01  0.100830818982E+01
  0.100196461753E+01  0.100162012353E+01  0.100413205383E+01  0.100321958140E+01  0.100426040816E+01
  0.000000000000E+00  0.000000000000E+00  0.000000000000E+00  0.439071270684E+00  0.399865812592E+00  0.000000000000E+00  0.373794144625E+00
  0.495017684382E+00  0.573056190096E+00  0.569605109785E+00  0.559932658510E+00  0.000000000000E+00  0.483390704345E+00  0.533822129873E+00
  0.556458762999E+00  0.564688360787E+00  0.522615496449E+00  0.522533036299E+00  0.445481415712E+00  0.518326924557E+00  0.524750915694E+00
  0.503888174430E+00  0.509839746269E+00  0.471738849742E+00  0.496245454740E+00  0.494940396634E+00  0.489076358540E+00  0.489830188575E+00
  0.493064988023E+00  0.499146612076E+00  0.486766642594E+00  0.484757872111E+00  0.495784888162E+00
  0.000000000000E+00  0.000000000000E+00  0.000000000000E+00  0.000000000000E+00  0.000000000000E+00  0.000000000000E+00  0.000000000000E+00
  0.000000000000E+00  0.000000000000E+00  0.000000000000E+00  0.000000000000E+00  0.000000000000E+00  0.000000000000E+00  0.000000000000E+00
  0.000000000000E+00  0.000000000000E+00  0.000000000000E+00  0.000000000000E+00  0.000000000000E+00  0.000000000000E+00  0.000000000000E+00
  0.000000000000E+00  0.000000000000E+00  0.000000000000E+00  0.000000000000E+00  0.000000000000E+00  0.000000000000E+00  0.000000000000E+00
  0.000000000000E+00  0.000000000000E+00  0.000000000000E+00  0.000000000000E+00  0.000000000000E+00
  0.000000000000E+00  0.000000000000E+00  0.000000000000E+00 -0.226115185065E-01  0.111963818703E-01  0.000000000000E+00  0.179816808457E-01
 -0.100761229569E+00  0.390410721580E-02 -0.389325434005E-01  0.340377323259E-01  0.000000000000E+00  0.652293774337E-01 -0.424929717195E-01
  0.843881008794E-02 -0.650994125318E-02  0.490054838646E-01  0.135873482511E-01  0.452181754268E-01  0.737198502708E-03 -0.701222833385E-03
  0.243744343615E-02  0.868929637224E-03  0.351822590365E-02  0.103945254320E-01  0.431655346206E-02  0.337507295380E-02  0.459062468846E-03
  0.572579991321E-02  0.341101580873E-03  0.160978305081E-02  0.569905712772E-03  0.237177361239E-02
  0.672750879035E+00  0.675918855684E+00  0.602658383051E+00  0.676093765109E+00  0.691308921306E+00  0.683547254728E+00  0.690066482635E+00
  0.677274860137E+00  0.695201827704E+00  0.696250865772E+00  0.703344068512E+00  0.960184570558E+00  0.719726358838E+00  0.722866646158E+00
  0.709447758972E+00  0.713700946597E+00  0.726067413743E+00  0.716602922581E+00  0.782340561973E+00  0.722284532311E+00  0.716128636806E+00
  0.716551643625E+00  0.716546536138E+00  0.737395238664E+00  0.722682910755E+00  0.719441264023E+00  0.719566095242E+00  0.722781670807E+00
  0.716030181627E+00  0.715847822037E+00  0.718146783112E+00  0.717062470251E+00  0.718615293824E+00
  0.000000000000E+00  0.000000000000E+00  0.000000000000E+00  0.443767746058E+00  0.402286944533E+00  0.000000000000E+00  0.377550368946E+00
  0.509232129581E+00  0.575832179723E+00  0.573707405460E+00  0.562554064143E+00  0.000000000000E+00  0.490563298972E+00  0.534527096421E+00
  0.556586982140E+00  0.564391577682E+00  0.522730517508E+00  0.522052000252E+00  0.441238348752E+00  0.517182331596E+00  0.524228630800E+00
  0.503687457676E+00  0.509488571195E+00  0.469814974782E+00  0.495614442603E+00  0.494483780391E+00  0.488562428566E+00  0.488961654843E+00
  0.492980744795E+00  0.499005552360E+00  0.486460936749E+00  0.484596927733E+00  0.495346592165E+00
  0.999989339501E+00  0.999989411631E+00  0.999989628812E+00  0.981541896136E+00  0.988773991414E+00  0.999989829246E+00  0.982469463730E+00
  0.984104309355E+00  0.990427545972E+00  0.990355285756E+00  0.994362997175E+00  0.999990297993E+00  0.988652071891E+00  0.100368369405E+01
  0.999769196975E+00  0.100118501202E+01  0.100834885295E+01  0.100252111029E+01  0.102982719469E+01  0.100443319451E+01  0.100199536624E+01
  0.100082056592E+01  0.100138192335E+01  0.100826277297E+01  0.100298787123E+01  0.100192389549E+01  0.100215267504E+01  0.100355660040E+01
  0.100047670022E+01  0.100056591048E+01  0.100126820225E+01  0.100066573356E+01  0.100179336274E+01
        15         9        16        16
        15        18        11        11
        22        15        21        21
        11         5         9         9
         5         7         2         2
        11         9        15        15
        16        21        15        15
        16        10        14        14
        18        17        11        11
        17        25        24        24
        22        18        15        15
        22        30        31        31
        30        21        23        23
        16        20        23        23
        22        27        26        26
        10         9         4         4
         7        11        13        13
        25        18        26        26
        11         7         5         5
         5         1         4         4
        17        19        13        13
        23        32        30        30
        23        20        29        29
         4         9         5         5
         4         8        10        10
        26        18        22        22
        26        28        25        25
        13        11        17        17
        13         6         7         7
        31        30        32        32
         2         1         5         5
         2         7         6         6
        14        10         8         8
        24        19        17        17
        24        25        28        28
         9        10        16        16
         3         4         1         1
        33        26        27        27
        12        13        19        19
        21        30        22        22
        16        14        20        20
        16        23        21        21
        22        31        27        27
        18        25        17        17
        26        33        28        28
         4         3         8         8
        23        29        32        32
        13        12         6         6
zone t="boundary 4 bc-4", solutiontime= 0.1000000E+03, strandid=1004, i=32, j=46, f=feblock
  0.125000000000E+01  0.219251206392E+01  0.103724302461E+01  0.500000000000E+01  0.250000000000E+01  0.375000000000E+01  0.404200324774E+01
  0.500000000000E+01  0.000000000000E+00  0.310152362409E+01  0.202479342020E+01  0.324151231464E+01  0.922061490191E+00  0.000000000000E+00
  0.299062775774E+01  0.394624082883E+01  0.500000000000E+01  0.409252726285E+01  0.500000000000E+01  0.429310310915E+01  0.175434191980E+01
  0.284428995242E+01  0.000000000000E+00  0.000000000000E+00  0.715990576545E+00  0.930412228790E+00  0.125000000000E+01  0.187029682677E+01
  0.500000000000E+01  0.375000000000E+01  0.250000000000E+01  0.000000000000E+00
  0.250000000000E+01  0.157686156160E+01  0.146289271009E+01  0.250000000000E+01  0.250000000000E+01  0.250000000000E+01  0.155830813274E+01
  0.125000000000E+01  0.250000000000E+01  0.177790177481E+01  0.477386199275E+00  0.742988685424E+00  0.308372018325E+00  0.125000000000E+01
 -0.487811078581E+00 -0.144524380962E+01 -0.125000000000E+01 -0.345533899378E+00  0.000000000000E+00  0.627766083140E+00 -0.739814786992E+00
 -0.158811787973E+01  0.000000000000E+00 -0.125000000000E+01 -0.600232012419E+00 -0.154800130438E+01 -0.250000000000E+01 -0.178862290564E+01
 -0.250000000000E+01 -0.250000000000E+01 -0.250000000000E+01 -0.250000000000E+01
  0.500000000000E+01  0.500000000000E+01  0.500000000000E+01  0.500000000000E+01  0.500000000000E+01  0.500000000000E+01  0.500000000000E+01
  0.500000000000E+01  0.500000000000E+01  0.500000000000E+01  0.500000000000E+01  0.500000000000E+01  0.500000000000E+01  0.500000000000E+01
  0.500000000000E+01  0.500000000000E+01  0.500000000000E+01  0.500000000000E+01  0.500000000000E+01  0.500000000000E+01  0.500000000000E+01
  0.500000000000E+01  0.500000000000E+01  0.500000000000E+01  0.500000000000E+01  0.500000000000E+01  0.500000000000E+01  0.500000000000E+01
  0.500000000000E+01  0.500000000000E+01  0.500000000000E+01  0.500000000000E+01
  0.100522860282E+01  0.100432972632E+01  0.100432034594E+01  0.100196461753E+01  0.100413205383E+01  0.100321958140E+01  0.100258623131E+01
  0.100201175159E+01  0.100426040816E+01  0.100372310383E+01  0.100446502175E+01  0.100346952069E+01  0.100365984933E+01  0.100424800562E+01
  0.100362337523E+01  0.100164192029E+01  0.100227632648E+01  0.100227311589E+01  0.100213446561E+01  0.100254347550E+01  0.100442386335E+01
  0.100337264017E+01  0.100288843762E+01  0.100334542038E+01  0.100323222997E+01  0.100406087086E+01  0.100510171607E+01  0.100431307074E+01
  0.100179475830E+01  0.100266315989E+01  0.100321164505E+01  0.100399273180E+01
  0.489076358540E+00  0.489238598578E+00  0.490983331395E+00  0.493064988023E+00  0.486766642594E+00  0.484757872111E+00  0.485404956254E+00
  0.494262733288E+00  0.495784888162E+00  0.486800248266E+00  0.488139337163E+00  0.487244593324E+00  0.494423292694E+00  0.496536481975E+00
  0.487845783054E+00  0.483219469765E+00  0.492573587399E+00  0.487262277818E+00  0.494865946596E+00  0.488012491050E+00  0.490096716965E+00
  0.488269667109E+00  0.497534090492E+00  0.496384264543E+00  0.495259755778E+00  0.493216438943E+00  0.490458183275E+00  0.490400009243E+00
  0.491426954414E+00  0.486218276553E+00  0.490304438690E+00  0.495522026857E+00
  0.000000000000E+00 -0.893974695974E-04 -0.129755093459E-02  0.000000000000E+00  0.000000000000E+00  0.000000000000E+00  0.425702016206E-03
  0.797025463180E-03  0.000000000000E+00  0.274712861212E-03 -0.942431000497E-03 -0.820006420475E-03 -0.174523849867E-02 -0.638374194341E-04
 -0.110022751881E-02 -0.102277496258E-02 -0.133259274005E-02 -0.213434238964E-02 -0.132929466938E-02 -0.106401265114E-02 -0.624409185080E-03
 -0.761703311300E-03 -0.196339457375E-03  0.807126792438E-03  0.520225884636E-04  0.161630462928E-02  0.000000000000E+00  0.791646921905E-03
  0.000000000000E+00  0.000000000000E+00  0.000000000000E+00  0.000000000000E+00