TITLE="fun3d_case_title"
VARIABLES="Iteration" "R_1" "R_2" "R_3" "R_4" "R_5" "C_L" "C_D" "C_M_x" "C_M_y" "C_M_z" "Wall Time" "C_x" "C_y" "C_z" "C_Lp" "C_Dp" "C_Lv" "C_Dv" "C_M_xp" "C_M_yp" "C_M_zp" "C_M_xv" "C_M_yv" "C_M_zv" "C_xp" "C_yp" "C_zp" "C_xv" "C_yv" "C_zv"
ZONE  I=1 F=POINT
1  0.2160030127E-01  0.2803577932E-01  0.2142267486E-02  0.5329976411E-02  0.5295593801E-01 -0.4835223099E+01  0.4398129120E-02 -0.2416918413E+00 -0.3759617528E+00  0.3191261553E-04  0.2969000000E+00  0.4398129120E-02  0.3913259625E-05 -0.4835223099E+01 -0.4835421199E+01  0.2692705422E-03  0.1980996466E-03  0.4128858577E-02 -0.2416883460E+00 -0.3757835743E+00  0.8445952974E-04 -0.3495339551E-05 -0.1781785024E-03 -0.5254691421E-04  0.2692705422E-03 -0.3069863990E-05 -0.4835421199E+01  0.4128858577E-02  0.6983123615E-05  0.1980996466E-03
