TITLE="fun3d_case_title"
VARIABLES="Iteration" "R_1" "R_2" "R_3" "R_4" "R_5" "C_L" "C_D" "C_M_x" "C_M_y" "C_M_z" "Wall Time" "C_x" "C_y" "C_z" "C_Lp" "C_Dp" "C_Lv" "C_Dv" "C_M_xp" "C_M_yp" "C_M_zp" "C_M_xv" "C_M_yv" "C_M_zv" "C_xp" "C_yp" "C_zp" "C_xv" "C_yv" "C_zv"
ZONE  I=100 F=POINT
1  0.6490122141E-05  0.3245061071E-05  0.7663561901E-16  0.9857694501E-16  0.1703657062E-04 -0.4766327053E-03  0.1217864838E-06  0.1134222806E-03 -0.2683459329E-02  0.2708043802E-07  0.3760000000E+00  0.1217864838E-06  0.6897203884E-08 -0.4766327053E-03 -0.4766327053E-03  0.1217864838E-06  0.0000000000E+00  0.0000000000E+00  0.1134222806E-03 -0.2683459329E-02  0.2708043802E-07  0.0000000000E+00  0.0000000000E+00  0.0000000000E+00  0.1217864838E-06  0.6897203884E-08 -0.4766327053E-03  0.0000000000E+00  0.0000000000E+00  0.0000000000E+00
2  0.1137317045E-05  0.1745057734E-05  0.7450682819E-06  0.2186679623E-05  0.3044081679E-05  0.1231314804E-03  0.8391274870E-07  0.2770935448E-04 -0.3817941463E-02  0.1401673228E-07  0.4504000000E+00  0.8391274870E-07  0.2950822536E-08  0.1231314804E-03  0.1231314804E-03  0.8391274870E-07  0.0000000000E+00  0.0000000000E+00  0.2770935448E-04 -0.3817941463E-02  0.1401673228E-07  0.0000000000E+00  0.0000000000E+00  0.0000000000E+00  0.8391274870E-07  0.2950822536E-08  0.1231314804E-03  0.0000000000E+00  0.0000000000E+00  0.0000000000E+00
3  0.6275850157E-06  0.8678080238E-06  0.4009981383E-06  0.9653229302E-06  0.1462853002E-05  0.2128210240E-03  0.5630120330E-07 -0.3886725216E-04 -0.3476573101E-02  0.4570972693E-08  0.5080000000E+00  0.5630120330E-07  0.3705384508E-09  0.2128210240E-03  0.2128210240E-03  0.5630120330E-07  0.0000000000E+00  0.0000000000E+00 -0.3886725216E-04 -0.3476573101E-02  0.4570972693E-08  0.0000000000E+00  0.0000000000E+00  0.0000000000E+00  0.5630120330E-07  0.3705384508E-09  0.2128210240E-03  0.0000000000E+00  0.0000000000E+00  0.0000000000E+00
4  0.3635542486E-06  0.5038788152E-06  0.1391191387E-06  0.4427219083E-06  0.8726507335E-06  0.1269318987E-03  0.4798040680E-07 -0.5168865460E-04 -0.2956957536E-02  0.3397634305E-08  0.5699000000E+00  0.4798040680E-07  0.9967331498E-10  0.1269318987E-03  0.1269318987E-03  0.4798040680E-07  0.0000000000E+00  0.0000000000E+00 -0.5168865460E-04 -0.2956957536E-02  0.3397634305E-08  0.0000000000E+00  0.0000000000E+00  0.0000000000E+00  0.4798040680E-07  0.9967331498E-10  0.1269318987E-03  0.0000000000E+00  0.0000000000E+00  0.0000000000E+00
5  0.1504382684E-06  0.4241451731E-06  0.1071520685E-06  0.3498549662E-06  0.4701913473E-06  0.5495460955E-04  0.4759392863E-07 -0.4264102347E-04 -0.2661423018E-02  0.4841135516E-08  0.6275000000E+00  0.4759392863E-07  0.5254603916E-09  0.5495460955E-04  0.5495460955E-04  0.4759392863E-07  0.0000000000E+00  0.0000000000E+00 -0.4264102347E-04 -0.2661423018E-02  0.4841135516E-08  0.0000000000E+00  0.0000000000E+00  0.0000000000E+00  0.4759392863E-07  0.5254603916E-09  0.5495460955E-04  0.0000000000E+00  0.0000000000E+00  0.0000000000E+00
6  0.1092285051E-06  0.3228515232E-06  0.5403040492E-07  0.2206088597E-06  0.3791594041E-06  0.2465907913E-04  0.4802857423E-07 -0.3486299559E-04 -0.2547514203E-02  0.5682275707E-08  0.6892000000E+00  0.4802857423E-07  0.7704783437E-09  0.2465907913E-04  0.2465907913E-04  0.4802857423E-07  0.0000000000E+00  0.0000000000E+00 -0.3486299559E-04 -0.2547514203E-02  0.5682275707E-08  0.0000000000E+00  0.0000000000E+00  0.0000000000E+00  0.4802857423E-07  0.7704783437E-09  0.2465907913E-04  0.0000000000E+00  0.0000000000E+00  0.0000000000E+00
7  0.6190657758E-07  0.2348081492E-06  0.3702613648E-07  0.1319693571E-06  0.2323394108E-06  0.1745446294E-04  0.4790218808E-07 -0.3107731361E-04 -0.2516228339E-02  0.5840295079E-08  0.7469000000E+00  0.4790218808E-07  0.8301884101E-09  0.1745446294E-04  0.1745446294E-04  0.4790218808E-07  0.0000000000E+00  0.0000000000E+00 -0.3107731361E-04 -0.2516228339E-02  0.5840295079E-08  0.0000000000E+00  0.0000000000E+00  0.0000000000E+00  0.4790218808E-07  0.8301884101E-09  0.1745446294E-04  0.0000000000E+00  0.0000000000E+00  0.0000000000E+00
8  0.3448568950E-07  0.1714957950E-06  0.2569766676E-07  0.8492010862E-07  0.1436828583E-06  0.1684548121E-04  0.4747994701E-07 -0.2933120548E-04 -0.2504826605E-02  0.5865632132E-08  0.8086000000E+00  0.4747994701E-07  0.8564177079E-09  0.1684548121E-04  0.1684548121E-04  0.4747994701E-07  0.0000000000E+00  0.0000000000E+00 -0.2933120548E-04 -0.2504826605E-02  0.5865632132E-08  0.0000000000E+00  0.0000000000E+00  0.0000000000E+00  0.4747994701E-07  0.8564177079E-09  0.1684548121E-04  0.0000000000E+00  0.0000000000E+00  0.0000000000E+00
9  0.2395513084E-07  0.1265581537E-06  0.1943320783E-07  0.5825615523E-07  0.1051957519E-06  0.1655593059E-04  0.4710371855E-07 -0.2804129044E-04 -0.2494686786E-02  0.5964510823E-08  0.8663000000E+00  0.4710371855E-07  0.8998310072E-09  0.1655593059E-04  0.1655593059E-04  0.4710371855E-07  0.0000000000E+00  0.0000000000E+00 -0.2804129044E-04 -0.2494686786E-02  0.5964510823E-08  0.0000000000E+00  0.0000000000E+00  0.0000000000E+00  0.4710371855E-07  0.8998310072E-09  0.1655593059E-04  0.0000000000E+00  0.0000000000E+00  0.0000000000E+00
10  0.1760627504E-07  0.9335831996E-07  0.1524699644E-07  0.4060540647E-07  0.7921235381E-07  0.1559015440E-04  0.4684841394E-07 -0.2688073724E-04 -0.2484050705E-02  0.6108918687E-08  0.9227000000E+00  0.4684841394E-07  0.9511376799E-09  0.1559015440E-04  0.1559015440E-04  0.4684841394E-07  0.0000000000E+00  0.0000000000E+00 -0.2688073724E-04 -0.2484050705E-02  0.6108918687E-08  0.0000000000E+00  0.0000000000E+00  0.0000000000E+00  0.4684841394E-07  0.9511376799E-09  0.1559015440E-04  0.0000000000E+00  0.0000000000E+00  0.0000000000E+00
11  0.1308028939E-07  0.6844194644E-07  0.1143112910E-07  0.2788300996E-07  0.5860914247E-07  0.1434635047E-04  0.4668092014E-07 -0.2586688510E-04 -0.2474385475E-02  0.6240733447E-08  0.1134900000E+01  0.4668092014E-07  0.9953243870E-09  0.1434635047E-04  0.1434635047E-04  0.4668092014E-07  0.0000000000E+00  0.0000000000E+00 -0.2586688510E-04 -0.2474385475E-02  0.6240733447E-08  0.0000000000E+00  0.0000000000E+00  0.0000000000E+00  0.4668092014E-07  0.9953243870E-09  0.1434635047E-04  0.0000000000E+00  0.0000000000E+00  0.0000000000E+00
12  0.9387282144E-08  0.4992239471E-07  0.8427499836E-08  0.1880199063E-07  0.4214091449E-07  0.1315827243E-04  0.4656025450E-07 -0.2502856796E-04 -0.2466282527E-02  0.6343094791E-08  0.1196700000E+01  0.4656025450E-07  0.1029296077E-08  0.1315827243E-04  0.1315827243E-04  0.4656025450E-07  0.0000000000E+00  0.0000000000E+00 -0.2502856796E-04 -0.2466282527E-02  0.6343094791E-08  0.0000000000E+00  0.0000000000E+00  0.0000000000E+00  0.4656025450E-07  0.1029296077E-08  0.1315827243E-04  0.0000000000E+00  0.0000000000E+00  0.0000000000E+00
13  0.6659270979E-08  0.3636251904E-07  0.6261277764E-08  0.1249817096E-07  0.3004267097E-07  0.1216525874E-04  0.4646832496E-07 -0.2435256205E-04 -0.2459875991E-02  0.6420045576E-08  0.1254700000E+01  0.4646832496E-07  0.1054967185E-08  0.1216525874E-04  0.1216525874E-04  0.4646832496E-07  0.0000000000E+00  0.0000000000E+00 -0.2435256205E-04 -0.2459875991E-02  0.6420045576E-08  0.0000000000E+00  0.0000000000E+00  0.0000000000E+00  0.4646832496E-07  0.1054967185E-08  0.1216525874E-04  0.0000000000E+00  0.0000000000E+00  0.0000000000E+00
14  0.4729989470E-08  0.2640921487E-07  0.4682190942E-08  0.8316773300E-08  0.2141077113E-07  0.1139999541E-04  0.4639927489E-07 -0.2382720130E-04 -0.2455102338E-02  0.6478076611E-08  0.1311200000E+01  0.4639927489E-07  0.1074430748E-08  0.1139999541E-04  0.1139999541E-04  0.4639927489E-07  0.0000000000E+00  0.0000000000E+00 -0.2382720130E-04 -0.2455102338E-02  0.6478076611E-08  0.0000000000E+00  0.0000000000E+00  0.0000000000E+00  0.4639927489E-07  0.1074430748E-08  0.1139999541E-04  0.0000000000E+00  0.0000000000E+00  0.0000000000E+00
15  0.3370874014E-08  0.1908135947E-07  0.3492283227E-08  0.5656412354E-08  0.1527001365E-07  0.1084766720E-04  0.4634996753E-07 -0.2343733091E-04 -0.2451761327E-02  0.6521167730E-08  0.1369100000E+01  0.4634996753E-07  0.1088909921E-08  0.1084766720E-04  0.1084766720E-04  0.4634996753E-07  0.0000000000E+00  0.0000000000E+00 -0.2343733091E-04 -0.2451761327E-02  0.6521167730E-08  0.0000000000E+00  0.0000000000E+00  0.0000000000E+00  0.4634996753E-07  0.1088909921E-08  0.1084766720E-04  0.0000000000E+00  0.0000000000E+00  0.0000000000E+00
16  0.2385412082E-08  0.1369694271E-07  0.2581307964E-08  0.3984733440E-08  0.1084291097E-07  0.1046663980E-04  0.4631623257E-07 -0.2315956756E-04 -0.2449522695E-02  0.6552457761E-08  0.1425600000E+01  0.4631623257E-07  0.1099423546E-08  0.1046663980E-04  0.1046663980E-04  0.4631623257E-07  0.0000000000E+00  0.0000000000E+00 -0.2315956756E-04 -0.2449522695E-02  0.6552457761E-08  0.0000000000E+00  0.0000000000E+00  0.0000000000E+00  0.4631623257E-07  0.1099423546E-08  0.1046663980E-04  0.0000000000E+00  0.0000000000E+00  0.0000000000E+00
17  0.1675622524E-08  0.9773270064E-08  0.1889963734E-08  0.2895802964E-08  0.7664222602E-08  0.1020746097E-04  0.4629353114E-07 -0.2296537006E-04 -0.2448033356E-02  0.6574857483E-08  0.1483800000E+01  0.4629353114E-07  0.1106949171E-08  0.1020746097E-04  0.1020746097E-04  0.4629353114E-07  0.0000000000E+00  0.0000000000E+00 -0.2296537006E-04 -0.2448033356E-02  0.6574857483E-08  0.0000000000E+00  0.0000000000E+00  0.0000000000E+00  0.4629353114E-07  0.1106949171E-08  0.1020746097E-04  0.0000000000E+00  0.0000000000E+00  0.0000000000E+00
18  0.1171109903E-08  0.6942441298E-08  0.1371956693E-08  0.2136007048E-08  0.5397403139E-08  0.1002742645E-04  0.4627801651E-07 -0.2282911685E-04 -0.2447007615E-02  0.6590876889E-08  0.1545700000E+01  0.4627801651E-07  0.1112337099E-08  0.1002742645E-04  0.1002742645E-04  0.4627801651E-07  0.0000000000E+00  0.0000000000E+00 -0.2282911685E-04 -0.2447007615E-02  0.6590876889E-08  0.0000000000E+00  0.0000000000E+00  0.0000000000E+00  0.4627801651E-07  0.1112337099E-08  0.1002742645E-04  0.0000000000E+00  0.0000000000E+00  0.0000000000E+00
19  0.8190439244E-09  0.4919783230E-08  0.9870952325E-09  0.1573339855E-08  0.3796577516E-08  0.9897332645E-05  0.4626702999E-07 -0.2273199749E-04 -0.2446262001E-02  0.6602369968E-08  0.1604000000E+01  0.4626702999E-07  0.1116214255E-08  0.9897332645E-05  0.9897332645E-05  0.4626702999E-07  0.0000000000E+00  0.0000000000E+00 -0.2273199749E-04 -0.2446262001E-02  0.6602369968E-08  0.0000000000E+00  0.0000000000E+00  0.0000000000E+00  0.4626702999E-07  0.1116214255E-08  0.9897332645E-05  0.0000000000E+00  0.0000000000E+00  0.0000000000E+00
20  0.5755043032E-09  0.3483905910E-08  0.7031895068E-09  0.1147223589E-08  0.2672017040E-08  0.9800323409E-05  0.4625896134E-07 -0.2266183925E-04 -0.2445697837E-02  0.6610609586E-08  0.1666200000E+01  0.4625896134E-07  0.1119007911E-08  0.9800323409E-05  0.9800323409E-05  0.4625896134E-07  0.0000000000E+00  0.0000000000E+00 -0.2266183925E-04 -0.2445697837E-02  0.6610609586E-08  0.0000000000E+00  0.0000000000E+00  0.0000000000E+00  0.4625896134E-07  0.1119007911E-08  0.9800323409E-05  0.0000000000E+00  0.0000000000E+00  0.0000000000E+00
21  0.4072652249E-09  0.2467050968E-08  0.4964011004E-09  0.8269633835E-09  0.1883521968E-08  0.9727531196E-05  0.4625290798E-07 -0.2261108282E-04 -0.2445267381E-02  0.6616459991E-08  0.1878400000E+01  0.4625290798E-07  0.1121004965E-08  0.9727531196E-05  0.9727531196E-05  0.4625290798E-07  0.0000000000E+00  0.0000000000E+00 -0.2261108282E-04 -0.2445267381E-02  0.6616459991E-08  0.0000000000E+00  0.0000000000E+00  0.0000000000E+00  0.4625290798E-07  0.1121004965E-08  0.9727531196E-05  0.0000000000E+00  0.0000000000E+00  0.0000000000E+00
22  0.2898710758E-09  0.1745792649E-08  0.3484179009E-09  0.5910532877E-09  0.1328397152E-08  0.9673893362E-05  0.4624835567E-07 -0.2257483212E-04 -0.2444945034E-02  0.6620537254E-08  0.1935200000E+01  0.4624835567E-07  0.1122408074E-08  0.9673893362E-05  0.9673893362E-05  0.4624835567E-07  0.0000000000E+00  0.0000000000E+00 -0.2257483212E-04 -0.2444945034E-02  0.6620537254E-08  0.0000000000E+00  0.0000000000E+00  0.0000000000E+00  0.4624835567E-07  0.1122408074E-08  0.9673893362E-05  0.0000000000E+00  0.0000000000E+00  0.0000000000E+00
23  0.2068081890E-09  0.1232526738E-08  0.2443240487E-09  0.4206785405E-09  0.9353000329E-09  0.9635650124E-05  0.4624497401E-07 -0.2254956581E-04 -0.2444711475E-02  0.6623305457E-08  0.1993300000E+01  0.4624497401E-07  0.1123369647E-08  0.9635650124E-05  0.9635650124E-05  0.4624497401E-07  0.0000000000E+00  0.0000000000E+00 -0.2254956581E-04 -0.2444711475E-02  0.6623305457E-08  0.0000000000E+00  0.0000000000E+00  0.0000000000E+00  0.4624497401E-07  0.1123369647E-08  0.9635650124E-05  0.0000000000E+00  0.0000000000E+00  0.0000000000E+00
24  0.1472681950E-09  0.8664458266E-09  0.1718914318E-09  0.2992874897E-09  0.6557342762E-09  0.9609366739E-05  0.4624251154E-07 -0.2253249164E-04 -0.2444548103E-02  0.6625128401E-08  0.2050100000E+01  0.4624251154E-07  0.1124009888E-08  0.9609366739E-05  0.9609366739E-05  0.4624251154E-07  0.0000000000E+00  0.0000000000E+00 -0.2253249164E-04 -0.2444548103E-02  0.6625128401E-08  0.0000000000E+00  0.0000000000E+00  0.0000000000E+00  0.4624251154E-07  0.1124009888E-08  0.9609366739E-05  0.0000000000E+00  0.0000000000E+00  0.0000000000E+00
25  0.1043353705E-09  0.6055862703E-09  0.1216044040E-09  0.2132511551E-09  0.4569717686E-09  0.9591850646E-05  0.4624075641E-07 -0.2252131632E-04 -0.2444437029E-02  0.6626291817E-08  0.2108000000E+01  0.4624075641E-07  0.1124424107E-08  0.9591850646E-05  0.9591850646E-05  0.4624075641E-07  0.0000000000E+00  0.0000000000E+00 -0.2252131632E-04 -0.2444437029E-02  0.6626291817E-08  0.0000000000E+00  0.0000000000E+00  0.0000000000E+00  0.4624075641E-07  0.1124424107E-08  0.9591850646E-05  0.0000000000E+00  0.0000000000E+00  0.0000000000E+00
26  0.7340411517E-10  0.4205534498E-09  0.8653861661E-10  0.1521304206E-09  0.3162647732E-09  0.9580364043E-05  0.4623952831E-07 -0.2251420338E-04 -0.2444362654E-02  0.6627013685E-08  0.2164800000E+01  0.4623952831E-07  0.1124685696E-08  0.9580364043E-05  0.9580364043E-05  0.4623952831E-07  0.0000000000E+00  0.0000000000E+00 -0.2251420338E-04 -0.2444362654E-02  0.6627013685E-08  0.0000000000E+00  0.0000000000E+00  0.0000000000E+00  0.4623952831E-07  0.1124685696E-08  0.9580364043E-05  0.0000000000E+00  0.0000000000E+00  0.0000000000E+00
27  0.5127308815E-10  0.2902641543E-09  0.6190092968E-10  0.1084003478E-09  0.2173906535E-09  0.9572798323E-05  0.4623868026E-07 -0.2250976659E-04 -0.2444312821E-02  0.6627451860E-08  0.2223100000E+01  0.4623868026E-07  0.1124848214E-08  0.9572798323E-05  0.9572798323E-05  0.4623868026E-07  0.0000000000E+00  0.0000000000E+00 -0.2250976659E-04 -0.2444312821E-02  0.6627451860E-08  0.0000000000E+00  0.0000000000E+00  0.0000000000E+00  0.4623868026E-07  0.1124848214E-08  0.9572798323E-05  0.0000000000E+00  0.0000000000E+00  0.0000000000E+00
28  0.3559709673E-10  0.1992868429E-09  0.4444143719E-10  0.7688717465E-10  0.1485263726E-09  0.9567695568E-05  0.4623809927E-07 -0.2250703029E-04 -0.2444278983E-02  0.6627713910E-08  0.2280000000E+01  0.4623809927E-07  0.1124948392E-08  0.9567695568E-05  0.9567695568E-05  0.4623809927E-07  0.0000000000E+00  0.0000000000E+00 -0.2250703029E-04 -0.2444278983E-02  0.6627713910E-08  0.0000000000E+00  0.0000000000E+00  0.0000000000E+00  0.4623809927E-07  0.1124948392E-08  0.9567695568E-05  0.0000000000E+00  0.0000000000E+00  0.0000000000E+00
29  0.2460880369E-10  0.1362539621E-09  0.3196406168E-10  0.5412482845E-10  0.1009933728E-09  0.9564142382E-05  0.4623770297E-07 -0.2250535238E-04 -0.2444255606E-02  0.6627868790E-08  0.2338300000E+01  0.4623770297E-07  0.1125009944E-08  0.9564142382E-05  0.9564142382E-05  0.4623770297E-07  0.0000000000E+00  0.0000000000E+00 -0.2250535238E-04 -0.2444255606E-02  0.6627868790E-08  0.0000000000E+00  0.0000000000E+00  0.0000000000E+00  0.4623770297E-07  0.1125009944E-08  0.9564142382E-05  0.0000000000E+00  0.0000000000E+00  0.0000000000E+00
30  0.1696721137E-10  0.9285358464E-10  0.2298305680E-10  0.3776787453E-10  0.6843016119E-10  0.9561606901E-05  0.4623743362E-07 -0.2250433239E-04 -0.2444239277E-02  0.6627958512E-08  0.2400500000E+01  0.4623743362E-07  0.1125047463E-08  0.9561606901E-05  0.9561606901E-05  0.4623743362E-07  0.0000000000E+00  0.0000000000E+00 -0.2250433239E-04 -0.2444239277E-02  0.6627958512E-08  0.0000000000E+00  0.0000000000E+00  0.0000000000E+00  0.4623743362E-07  0.1125047463E-08  0.9561606901E-05  0.0000000000E+00  0.0000000000E+00  0.0000000000E+00
31  0.1167654421E-10  0.6310567318E-10  0.1648856089E-10  0.2614977507E-10  0.4623949154E-10  0.9559784524E-05  0.4623725143E-07 -0.2250372723E-04 -0.2444227883E-02  0.6628007991E-08  0.2613400000E+01  0.4623725143E-07  0.1125069740E-08  0.9559784524E-05  0.9559784524E-05  0.4623725143E-07  0.0000000000E+00  0.0000000000E+00 -0.2250372723E-04 -0.2444227883E-02  0.6628007991E-08  0.0000000000E+00  0.0000000000E+00  0.0000000000E+00  0.4623725143E-07  0.1125069740E-08  0.9559784524E-05  0.0000000000E+00  0.0000000000E+00  0.0000000000E+00
32  0.8021043279E-11  0.4278332442E-10  0.1178443082E-10  0.1801498602E-10  0.3116790910E-10  0.9558487577E-05  0.4623712904E-07 -0.2250338786E-04 -0.2444220029E-02  0.6628032155E-08  0.2671900000E+01  0.4623712904E-07  0.1125082156E-08  0.9558487577E-05  0.9558487577E-05  0.4623712904E-07  0.0000000000E+00  0.0000000000E+00 -0.2250338786E-04 -0.2444220029E-02  0.6628032155E-08  0.0000000000E+00  0.0000000000E+00  0.0000000000E+00  0.4623712904E-07  0.1125082156E-08  0.9558487577E-05  0.0000000000E+00  0.0000000000E+00  0.0000000000E+00
33  0.5499565999E-11  0.2893974665E-10  0.8380918236E-11  0.1239018614E-10  0.2095831933E-10  0.9557583162E-05  0.4623704749E-07 -0.2250321866E-04 -0.2444214717E-02  0.6628040436E-08  0.2728900000E+01  0.4623704749E-07  0.1125088187E-08  0.9557583162E-05  0.9557583162E-05  0.4623704749E-07  0.0000000000E+00  0.0000000000E+00 -0.2250321866E-04 -0.2444214717E-02  0.6628040436E-08  0.0000000000E+00  0.0000000000E+00  0.0000000000E+00  0.4623704749E-07  0.1125088187E-08  0.9557583162E-05  0.0000000000E+00  0.0000000000E+00  0.0000000000E+00
34  0.3764879934E-11  0.1953729111E-10  0.5926836412E-11  0.8530286451E-11  0.1406257342E-10  0.9556966511E-05  0.4623699354E-07 -0.2250315466E-04 -0.2444211191E-02  0.6628039218E-08  0.2785900000E+01  0.4623699354E-07  0.1125090227E-08  0.9556966511E-05  0.9556966511E-05  0.4623699354E-07  0.0000000000E+00  0.0000000000E+00 -0.2250315466E-04 -0.2444211191E-02  0.6628039218E-08  0.0000000000E+00  0.0000000000E+00  0.0000000000E+00  0.4623699354E-07  0.1125090227E-08  0.9556966511E-05  0.0000000000E+00  0.0000000000E+00  0.0000000000E+00
35  0.2575622532E-11  0.1317161402E-10  0.4166877585E-11  0.5886675665E-11  0.9421859799E-11  0.9556553615E-05  0.4623695804E-07 -0.2250315051E-04 -0.2444208883E-02  0.6628032995E-08  0.2843000000E+01  0.4623695804E-07  0.1125089973E-08  0.9556553615E-05  0.9556553615E-05  0.4623695804E-07  0.0000000000E+00  0.0000000000E+00 -0.2250315051E-04 -0.2444208883E-02  0.6628032995E-08  0.0000000000E+00  0.0000000000E+00  0.0000000000E+00  0.4623695804E-07  0.1125089973E-08  0.9556553615E-05  0.0000000000E+00  0.0000000000E+00  0.0000000000E+00
36  0.1762849869E-11  0.8875107165E-11  0.2913457819E-11  0.4072599365E-11  0.6309991289E-11  0.9556279888E-05  0.4623693471E-07 -0.2250317533E-04 -0.2444207381E-02  0.6628024860E-08  0.2900200000E+01  0.4623693471E-07  0.1125088611E-08  0.9556279888E-05  0.9556279888E-05  0.4623693471E-07  0.0000000000E+00  0.0000000000E+00 -0.2250317533E-04 -0.2444207381E-02  0.6628024860E-08  0.0000000000E+00  0.0000000000E+00  0.0000000000E+00  0.4623693471E-07  0.1125088611E-08  0.9556279888E-05  0.0000000000E+00  0.0000000000E+00  0.0000000000E+00
37  0.1208214912E-11  0.5982010827E-11  0.2027693945E-11  0.2823885907E-11  0.4229231661E-11  0.9556098807E-05  0.4623691936E-07 -0.2250320949E-04 -0.2444206402E-02  0.6628016780E-08  0.2957400000E+01  0.4623691936E-07  0.1125086907E-08  0.9556098807E-05  0.9556098807E-05  0.4623691936E-07  0.0000000000E+00  0.0000000000E+00 -0.2250320949E-04 -0.2444206402E-02  0.6628016780E-08  0.0000000000E+00  0.0000000000E+00  0.0000000000E+00  0.4623691936E-07  0.1125086907E-08  0.9556098807E-05  0.0000000000E+00  0.0000000000E+00  0.0000000000E+00
38  0.8295329862E-12  0.4036039127E-11  0.1406459120E-11  0.1962283672E-11  0.2840019225E-11  0.9555978700E-05  0.4623690924E-07 -0.2250324214E-04 -0.2444205760E-02  0.6628009801E-08  0.3014600000E+01  0.4623690924E-07  0.1125085299E-08  0.9555978700E-05  0.9555978700E-05  0.4623690924E-07  0.0000000000E+00  0.0000000000E+00 -0.2250324214E-04 -0.2444205760E-02  0.6628009801E-08  0.0000000000E+00  0.0000000000E+00  0.0000000000E+00  0.4623690924E-07  0.1125085299E-08  0.9555978700E-05  0.0000000000E+00  0.0000000000E+00  0.0000000000E+00
39  0.5702029947E-12  0.2726555202E-11  0.9735376716E-12  0.1366839236E-11  0.1911902638E-11  0.9555898921E-05  0.4623690256E-07 -0.2250326864E-04 -0.2444205339E-02  0.6628004305E-08  0.3071800000E+01  0.4623690256E-07  0.1125083980E-08  0.9555898921E-05  0.9555898921E-05  0.4623690256E-07  0.0000000000E+00  0.0000000000E+00 -0.2250326864E-04 -0.2444205339E-02  0.6628004305E-08  0.0000000000E+00  0.0000000000E+00  0.0000000000E+00  0.4623690256E-07  0.1125083980E-08  0.9555898921E-05  0.0000000000E+00  0.0000000000E+00  0.0000000000E+00
40  0.3920001961E-12  0.1844252423E-11  0.6732922688E-12  0.9546455600E-12  0.1290960823E-11  0.9555846149E-05  0.4623689815E-07 -0.2250328809E-04 -0.2444205063E-02  0.6628000250E-08  0.3134300000E+01  0.4623689815E-07  0.1125082990E-08  0.9555846149E-05  0.9555846149E-05  0.4623689815E-07  0.0000000000E+00  0.0000000000E+00 -0.2250328809E-04 -0.2444205063E-02  0.6628000250E-08  0.0000000000E+00  0.0000000000E+00  0.0000000000E+00  0.4623689815E-07  0.1125082990E-08  0.9555846149E-05  0.0000000000E+00  0.0000000000E+00  0.0000000000E+00
41  0.2690690348E-12  0.1248873288E-11  0.4656747814E-12  0.6685745904E-12  0.8741414686E-12  0.9555811520E-05  0.4623689525E-07 -0.2250330157E-04 -0.2444204883E-02  0.6627997385E-08  0.3346100000E+01  0.4623689525E-07  0.1125082288E-08  0.9555811520E-05  0.9555811520E-05  0.4623689525E-07  0.0000000000E+00  0.0000000000E+00 -0.2250330157E-04 -0.2444204883E-02  0.6627997385E-08  0.0000000000E+00  0.0000000000E+00  0.0000000000E+00  0.4623689525E-07  0.1125082288E-08  0.9555811520E-05  0.0000000000E+00  0.0000000000E+00  0.0000000000E+00
42  0.1842012715E-12  0.8467164431E-12  0.3223344630E-12  0.4692272465E-12  0.5937923068E-12  0.9555789074E-05  0.4623689336E-07 -0.2250331067E-04 -0.2444204768E-02  0.6627995406E-08  0.3403300000E+01  0.4623689336E-07  0.1125081804E-08  0.9555789074E-05  0.9555789074E-05  0.4623689336E-07  0.0000000000E+00  0.0000000000E+00 -0.2250331067E-04 -0.2444204768E-02  0.6627995406E-08  0.0000000000E+00  0.0000000000E+00  0.0000000000E+00  0.4623689336E-07  0.1125081804E-08  0.9555789074E-05  0.0000000000E+00  0.0000000000E+00  0.0000000000E+00
43  0.1256932605E-12  0.5749923365E-12  0.2234134872E-12  0.3297607781E-12  0.4047186156E-12  0.9555774570E-05  0.4623689212E-07 -0.2250331691E-04 -0.2444204694E-02  0.6627994034E-08  0.3460700000E+01  0.4623689212E-07  0.1125081468E-08  0.9555774570E-05  0.9555774570E-05  0.4623689212E-07  0.0000000000E+00  0.0000000000E+00 -0.2250331691E-04 -0.2444204694E-02  0.6627994034E-08  0.0000000000E+00  0.0000000000E+00  0.0000000000E+00  0.4623689212E-07  0.1125081468E-08  0.9555774570E-05  0.0000000000E+00  0.0000000000E+00  0.0000000000E+00
44  0.8543232040E-13  0.3914525008E-12  0.1550500076E-12  0.2318194673E-12  0.2768900164E-12  0.9555765250E-05  0.4623689132E-07 -0.2250332139E-04 -0.2444204647E-02  0.6627993063E-08  0.3518300000E+01  0.4623689132E-07  0.1125081230E-08  0.9555765250E-05  0.9555765250E-05  0.4623689132E-07  0.0000000000E+00  0.0000000000E+00 -0.2250332139E-04 -0.2444204647E-02  0.6627993063E-08  0.0000000000E+00  0.0000000000E+00  0.0000000000E+00  0.4623689132E-07  0.1125081230E-08  0.9555765250E-05  0.0000000000E+00  0.0000000000E+00  0.0000000000E+00
45  0.5788163275E-13  0.2674925817E-12  0.1077685348E-12  0.1628270260E-12  0.1901877859E-12  0.9555759150E-05  0.4623689080E-07 -0.2250332478E-04 -0.2444204617E-02  0.6627992357E-08  0.3575900000E+01  0.4623689080E-07  0.1125081054E-08  0.9555759150E-05  0.9555759150E-05  0.4623689080E-07  0.0000000000E+00  0.0000000000E+00 -0.2250332478E-04 -0.2444204617E-02  0.6627992357E-08  0.0000000000E+00  0.0000000000E+00  0.0000000000E+00  0.4623689080E-07  0.1125081054E-08  0.9555759150E-05  0.0000000000E+00  0.0000000000E+00  0.0000000000E+00
46  0.3917088311E-13  0.1836500775E-12  0.7503695082E-13  0.1141714584E-12  0.1313000523E-12  0.9555755054E-05  0.4623689046E-07 -0.2250332741E-04 -0.2444204596E-02  0.6627991833E-08  0.3633400000E+01  0.4623689046E-07  0.1125080922E-08  0.9555755054E-05  0.9555755054E-05  0.4623689046E-07  0.0000000000E+00  0.0000000000E+00 -0.2250332741E-04 -0.2444204596E-02  0.6627991833E-08  0.0000000000E+00  0.0000000000E+00  0.0000000000E+00  0.4623689046E-07  0.1125080922E-08  0.9555755054E-05  0.0000000000E+00  0.0000000000E+00  0.0000000000E+00
47  0.2652791405E-13  0.1267661501E-12  0.5231170427E-13  0.7985721042E-13  0.9111174174E-13  0.9555752266E-05  0.4623689023E-07 -0.2250332951E-04 -0.2444204583E-02  0.6627991434E-08  0.3691000000E+01  0.4623689023E-07  0.1125080819E-08  0.9555752266E-05  0.9555752266E-05  0.4623689023E-07  0.0000000000E+00  0.0000000000E+00 -0.2250332951E-04 -0.2444204583E-02  0.6627991434E-08  0.0000000000E+00  0.0000000000E+00  0.0000000000E+00  0.4623689023E-07  0.1125080819E-08  0.9555752266E-05  0.0000000000E+00  0.0000000000E+00  0.0000000000E+00
48  0.1797087340E-13  0.8799586434E-13  0.3656878156E-13  0.5573895564E-13  0.6360626555E-13  0.9555750300E-05  0.4623689009E-07 -0.2250333117E-04 -0.2444204573E-02  0.6627991133E-08  0.3748400000E+01  0.4623689009E-07  0.1125080740E-08  0.9555750300E-05  0.9555750300E-05  0.4623689009E-07  0.0000000000E+00  0.0000000000E+00 -0.2250333117E-04 -0.2444204573E-02  0.6627991133E-08  0.0000000000E+00  0.0000000000E+00  0.0000000000E+00  0.4623689009E-07  0.1125080740E-08  0.9555750300E-05  0.0000000000E+00  0.0000000000E+00  0.0000000000E+00
49  0.1227150550E-13  0.6141821900E-13  0.2558671060E-13  0.3881541611E-13  0.4471898149E-13  0.9555748962E-05  0.4623688999E-07 -0.2250333240E-04 -0.2444204567E-02  0.6627990913E-08  0.3805900000E+01  0.4623688999E-07  0.1125080682E-08  0.9555748962E-05  0.9555748962E-05  0.4623688999E-07  0.0000000000E+00  0.0000000000E+00 -0.2250333240E-04 -0.2444204567E-02  0.6627990913E-08  0.0000000000E+00  0.0000000000E+00  0.0000000000E+00  0.4623688999E-07  0.1125080682E-08  0.9555748962E-05  0.0000000000E+00  0.0000000000E+00  0.0000000000E+00
50  0.8388114575E-14  0.4302520624E-13  0.1795166306E-13  0.2701886570E-13  0.3161208784E-13  0.9555747991E-05  0.4623688992E-07 -0.2250333336E-04 -0.2444204563E-02  0.6627990747E-08  0.3868800000E+01  0.4623688992E-07  0.1125080637E-08  0.9555747991E-05  0.9555747991E-05  0.4623688992E-07  0.0000000000E+00  0.0000000000E+00 -0.2250333336E-04 -0.2444204563E-02  0.6627990747E-08  0.0000000000E+00  0.0000000000E+00  0.0000000000E+00  0.4623688992E-07  0.1125080637E-08  0.9555747991E-05  0.0000000000E+00  0.0000000000E+00  0.0000000000E+00
51  0.5745882165E-14  0.3020741481E-13  0.1264458642E-13  0.1873836225E-13  0.2237566052E-13  0.9555747358E-05  0.4623688988E-07 -0.2250333403E-04 -0.2444204560E-02  0.6627990630E-08  0.4080500000E+01  0.4623688988E-07  0.1125080606E-08  0.9555747358E-05  0.9555747358E-05  0.4623688988E-07  0.0000000000E+00  0.0000000000E+00 -0.2250333403E-04 -0.2444204560E-02  0.6627990630E-08  0.0000000000E+00  0.0000000000E+00  0.0000000000E+00  0.4623688988E-07  0.1125080606E-08  0.9555747358E-05  0.0000000000E+00  0.0000000000E+00  0.0000000000E+00
52  0.3980564638E-14  0.2122161308E-13  0.8924460785E-14  0.1304619836E-13  0.1591233780E-13  0.9555746907E-05  0.4623688985E-07 -0.2250333451E-04 -0.2444204558E-02  0.6627990548E-08  0.4138100000E+01  0.4623688985E-07  0.1125080583E-08  0.9555746907E-05  0.9555746907E-05  0.4623688985E-07  0.0000000000E+00  0.0000000000E+00 -0.2250333451E-04 -0.2444204558E-02  0.6627990548E-08  0.0000000000E+00  0.0000000000E+00  0.0000000000E+00  0.4623688985E-07  0.1125080583E-08  0.9555746907E-05  0.0000000000E+00  0.0000000000E+00  0.0000000000E+00
53  0.2722509995E-14  0.1494620859E-13  0.6261463012E-14  0.9092237950E-14  0.1136054700E-13  0.9555746673E-05  0.4623688984E-07 -0.2250333484E-04 -0.2444204557E-02  0.6627990490E-08  0.4195800000E+01  0.4623688984E-07  0.1125080568E-08  0.9555746673E-05  0.9555746673E-05  0.4623688984E-07  0.0000000000E+00  0.0000000000E+00 -0.2250333484E-04 -0.2444204557E-02  0.6627990490E-08  0.0000000000E+00  0.0000000000E+00  0.0000000000E+00  0.4623688984E-07  0.1125080568E-08  0.9555746673E-05  0.0000000000E+00  0.0000000000E+00  0.0000000000E+00
54  0.1918705211E-14  0.1048284794E-13  0.4394990261E-14  0.6314462371E-14  0.8120822562E-14  0.9555746495E-05  0.4623688983E-07 -0.2250333508E-04 -0.2444204556E-02  0.6627990450E-08  0.4253700000E+01  0.4623688983E-07  0.1125080557E-08  0.9555746495E-05  0.9555746495E-05  0.4623688983E-07  0.0000000000E+00  0.0000000000E+00 -0.2250333508E-04 -0.2444204556E-02  0.6627990450E-08  0.0000000000E+00  0.0000000000E+00  0.0000000000E+00  0.4623688983E-07  0.1125080557E-08  0.9555746495E-05  0.0000000000E+00  0.0000000000E+00  0.0000000000E+00