title="tecplot geometry and solution file"
variables = x y z rho u v w p mach temperature
zone t="boundary 1 bc-1", solutiontime= 0.3000000E+02, strandid=1001, i=32, j=46, f=feblock
 -0.547472452772E-02  0.159041735350E-17 -0.567610116354E-02  0.159041735350E-17  0.159041735350E-17  0.159041735350E-17 -0.525162568575E-02
 -0.425778988008E-02  0.159041735350E-17  0.159041735350E-17  0.159041735350E-17  0.159041735350E-17  0.159041735350E-17  0.159041735350E-17
  0.159041735350E-17  0.159041735350E-17 -0.338396965251E-02  0.159041735350E-17  0.159041735350E-17  0.159041735350E-17  0.159041735350E-17
  0.159041735350E-17  0.159041735350E-17  0.159041735350E-17  0.159041735350E-17  0.159041735350E-17  0.159041735350E-17  0.159041735350E-17
  0.159041735350E-17  0.159041735350E-17  0.159041735350E-17  0.159041735350E-17
  0.250494200518E+01  0.250494200518E+01  0.127822174353E+01  0.146289271009E+01  0.157686156160E+01  0.308372018325E+00  0.261950149565E-01
 -0.122573467301E+01 -0.600232012419E+00  0.250494200518E+01  0.477386199275E+00  0.742988685424E+00 -0.739814786992E+00  0.177790177481E+01
  0.155830813274E+01  0.250494200518E+01 -0.249658901620E+01 -0.154800130438E+01 -0.487811078581E+00  0.250494200518E+01  0.627766083140E+00
 -0.345533899378E+00 -0.178862290564E+01 -0.158811787973E+01  0.125000000000E+01 -0.249658901620E+01 -0.144524380962E+01  0.159041735350E-17
 -0.125000000000E+01 -0.249658901620E+01 -0.249658901620E+01 -0.249658901620E+01
  0.803216924783E-04  0.125000000000E+01  0.822205278517E-04  0.103724302461E+01  0.219251206392E+01  0.922061490191E+00  0.103877881505E-03
  0.341876513122E-04  0.715990576545E+00  0.250000000000E+01  0.202479342020E+01  0.324151231464E+01  0.175434191980E+01  0.310152362409E+01
  0.404200324774E+01  0.375000000000E+01  0.811362586350E-04  0.930412228790E+00  0.299062775774E+01  0.500000000000E+01  0.429310310915E+01
  0.409252726285E+01  0.187029682677E+01  0.284428995242E+01  0.500000000000E+01  0.125000000000E+01  0.394624082883E+01  0.500000000000E+01
  0.500000000000E+01  0.250000000000E+01  0.375000000000E+01  0.500000000000E+01
  0.100001339899E+01  0.100000779234E+01  0.100001493974E+01  0.100000910547E+01  0.100000488451E+01  0.100001007221E+01  0.100002056408E+01
  0.100002731226E+01  0.100001278822E+01  0.100000412638E+01  0.100000565256E+01  0.100000311954E+01  0.100000677414E+01  0.100000320649E+01
  0.100000210334E+01  0.100000237506E+01  0.100002090361E+01  0.100001124725E+01  0.100000359040E+01  0.100000143170E+01  0.100000194239E+01
  0.100000216365E+01  0.100000644428E+01  0.100000378919E+01  0.100000136138E+01  0.100000925122E+01  0.100000228680E+01  0.100000133183E+01
  0.100000139803E+01  0.100000442462E+01  0.100000251132E+01  0.100000147479E+01
  0.499982546012E+00  0.499991897563E+00  0.499982724394E+00  0.499989809100E+00  0.499994782430E+00  0.499987897266E+00  0.499982090872E+00
  0.499980766646E+00  0.499986095851E+00  0.499995712725E+00  0.499994039397E+00  0.499996803890E+00  0.499992350630E+00  0.499996741854E+00
  0.499997699362E+00  0.499997538981E+00  0.499984139635E+00  0.499986575978E+00  0.499996171608E+00  0.499998347771E+00  0.499997998729E+00
  0.499997752446E+00  0.499993655520E+00  0.499995728972E+00  0.499998575825E+00  0.499990656844E+00  0.499997520255E+00  0.499998602947E+00
  0.499998467694E+00  0.499995390040E+00  0.499997353949E+00  0.499998304916E+00
  0.000000000000E+00  0.000000000000E+00  0.141588411478E-05  0.439831489525E-06  0.671463916407E-07  0.170570958358E-05  0.362916595364E-05
  0.343063331133E-06  0.265563395587E-05  0.000000000000E+00 -0.159032074098E-06 -0.169254317044E-07  0.439956659126E-06  0.695573647166E-07
  0.739946581959E-07  0.000000000000E+00  0.000000000000E+00  0.668762266308E-07 -0.217901045141E-06  0.000000000000E+00 -0.668119043817E-08
 -0.117629494206E-07  0.312385806939E-07 -0.100761269368E-06 -0.777234097887E-07  0.000000000000E+00 -0.264178390224E-07 -0.142411582742E-07
  0.645474411024E-07  0.000000000000E+00  0.000000000000E+00  0.000000000000E+00
  0.441057832418E-05  0.923502227354E-06  0.503125822718E-05  0.147448381046E-05  0.729275135201E-06  0.191051307571E-06  0.490457767947E-05
  0.145281147586E-04  0.422776507012E-05  0.150464669021E-06  0.240512577306E-06  0.657671327065E-07 -0.310632253261E-06  0.185496313036E-06
  0.340518362127E-06  0.559615609466E-07  0.102194183410E-04  0.525603235818E-05  0.121913782064E-06  0.900237233788E-06  0.350369742736E-06
  0.300072563276E-06  0.743561014647E-06 -0.396259880358E-07  0.947816303812E-06  0.296576424743E-05  0.338028848249E-06  0.822054468512E-06
  0.781852829937E-06  0.189538249906E-06  0.268640370967E-07  0.833711105613E-06
  0.714299113322E+00  0.714293506642E+00  0.714300654107E+00  0.714294819765E+00  0.714290598797E+00  0.714295786487E+00  0.714306278470E+00
  0.714313026778E+00  0.714298502547E+00  0.714289840670E+00  0.714291366856E+00  0.714288833833E+00  0.714292488430E+00  0.714288920782E+00
  0.714287817620E+00  0.714288089356E+00  0.714306618075E+00  0.714296961541E+00  0.714289304690E+00  0.714287145976E+00  0.714287656677E+00
  0.714287877940E+00  0.714292158584E+00  0.714289503483E+00  0.714287075665E+00  0.714294965499E+00  0.714288001082E+00  0.714287046113E+00
  0.714287112315E+00  0.714290138912E+00  0.714288225601E+00  0.714287189077E+00
  0.499981206187E+00  0.499991118346E+00  0.499981230500E+00  0.499988898581E+00  0.499994293988E+00  0.499986890088E+00  0.499980034593E+00
  0.499978035750E+00  0.499984817096E+00  0.499995300092E+00  0.499993474147E+00  0.499996491938E+00  0.499991673230E+00  0.499996421207E+00
  0.499997489032E+00  0.499997301474E+00  0.499982049438E+00  0.499985451326E+00  0.499995812571E+00  0.499998204604E+00  0.499997804492E+00
  0.499997536083E+00  0.499993011100E+00  0.499995350054E+00  0.499998439690E+00  0.499989731761E+00  0.499997291578E+00  0.499998469766E+00
  0.499998327891E+00  0.499994947582E+00  0.499997102820E+00  0.499998157438E+00
  0.100000535959E+01  0.100000311693E+01  0.100000597592E+01  0.100000364217E+01  0.100000195379E+01  0.100000402884E+01  0.100000822561E+01
  0.100001092494E+01  0.100000511528E+01  0.100000165055E+01  0.100000226103E+01  0.100000124782E+01  0.100000270965E+01  0.100000128260E+01
  0.100000084133E+01  0.100000095003E+01  0.100000836152E+01  0.100000449885E+01  0.100000143616E+01  0.100000057267E+01  0.100000077695E+01
  0.100000086546E+01  0.100000257772E+01  0.100000151569E+01  0.100000054455E+01  0.100000370045E+01  0.100000091472E+01  0.100000053273E+01
  0.100000055921E+01  0.100000176985E+01  0.100000100452E+01  0.100000058992E+01
        12        19        11        11
        11         5        12        12
        10        14         5         5
        19        13        11        11
        19        24        13        13
        30        23        24        24
        19        12        22        22
        28        22        21        21
        11        13         6         6
         7         6         9         9
        15        12        14        14
        18        13        23        23
        15        25        21        21
        27        19        22        22
        18         8         9         9
        27        31        24        24
         4        11         6         6
         5        14        12        12
         4         2         5         5
        21        12        15        15
        14        16        15        15
        24        19        27        27
        22        29        27        27
        23        26        18        18
        17         8        18        18
         5        11         4         4
         6         3         4         4
        26        23        30        30
         5         2        10        10
        16        14        10        10
         3         6         7         7
        21        25        28        28
        29        22        28        28
         6        13         9         9
         2         4         1         1
        31        27        32        32
        25        15        20        20
        24        23        13        13
         8         7         9         9
        13        18         9         9
        31        30        24        24
        12        21        22        22
        29        32        27        27
         3         1         4         4
        26        17        18        18
        16        20        15        15
zone t="boundary 2 bc-2", solutiontime= 0.3000000E+02, strandid=1002, i=33, j=48, f=feblock
  0.500195255313E+01  0.375034812201E+01  0.249861146354E+01  0.288036675733E+01  0.124717526151E+01  0.190856699606E+01  0.326577190793E+01
  0.201394857590E+01 -0.338396965251E-02  0.962374261034E+00  0.500000000000E+01  0.403430190133E+01  0.423029563300E+01  0.500000000000E+01
  0.385439188555E+01  0.500000000000E+01  0.398133432910E+01  0.315200081434E+01  0.266958029510E+01  0.154798030854E+01  0.218327860925E+01
  0.893688451288E+00  0.159041735350E-17  0.699009769630E+00  0.964460904435E+00  0.310303671669E+01  0.159041735350E-17  0.159041735350E-17
  0.125000000000E+01  0.500000000000E+01  0.375000000000E+01  0.250000000000E+01  0.159041735350E-17
 -0.249658901620E+01 -0.249658901620E+01 -0.249658901620E+01 -0.249658901620E+01 -0.249658901620E+01 -0.249658901620E+01 -0.249658901620E+01
 -0.249658901620E+01 -0.249658901620E+01 -0.249658901620E+01 -0.249658901620E+01 -0.249658901620E+01 -0.249658901620E+01 -0.249658901620E+01
 -0.249658901620E+01 -0.249658901620E+01 -0.249658901620E+01 -0.249658901620E+01 -0.249658901620E+01 -0.249658901620E+01 -0.249658901620E+01
 -0.249658901620E+01 -0.249658901620E+01 -0.249658901620E+01 -0.249658901620E+01 -0.249658901620E+01 -0.249658901620E+01 -0.249658901620E+01
 -0.249658901620E+01 -0.249658901620E+01 -0.249658901620E+01 -0.249658901620E+01 -0.249658901620E+01
  0.108209237191E-03  0.145875487893E-03  0.100909957516E-03  0.901663357824E+00  0.110895828141E-03  0.714928325670E+00  0.188140643916E+01
  0.175892163457E+01  0.811362586350E-04  0.957504305816E+00  0.125000000000E+01  0.100596693416E+01  0.191313516265E+01  0.250000000000E+01
  0.292898094244E+01  0.375000000000E+01  0.406883368474E+01  0.363389287837E+01  0.284756858001E+01  0.292582306272E+01  0.395754053293E+01
  0.205027256174E+01  0.125000000000E+01  0.306703271839E+01  0.397155765835E+01  0.433068621090E+01  0.250000000000E+01  0.375000000000E+01
  0.500000000000E+01  0.500000000000E+01  0.500000000000E+01  0.500000000000E+01  0.500000000000E+01
  0.999999104834E+00  0.999995784727E+00  0.999994410070E+00  0.999998222681E+00  0.999999417705E+00  0.100000004169E+01  0.999999545528E+00
  0.100000162907E+01  0.100002090361E+01  0.100000547227E+01  0.100000226187E+01  0.999998650502E+00  0.100000049231E+01  0.100000153066E+01
  0.100000080965E+01  0.100000096016E+01  0.100000104790E+01  0.100000121646E+01  0.100000133161E+01  0.100000242358E+01  0.100000176315E+01
  0.100000408127E+01  0.100000925122E+01  0.100000316875E+01  0.100000226821E+01  0.100000139537E+01  0.100000442462E+01  0.100000251132E+01
  0.100000184719E+01  0.100000073527E+01  0.100000125222E+01  0.100000170564E+01  0.100000147479E+01
  0.500013587063E+00  0.500030302319E+00  0.500027240881E+00  0.500017344602E+00  0.500015327329E+00  0.500014542811E+00  0.500007296934E+00
  0.500003827253E+00  0.499984139635E+00  0.499999855003E+00  0.500004718304E+00  0.500015625099E+00  0.500005827204E+00  0.500001627520E+00
  0.500001815170E+00  0.500000522974E+00  0.500000016351E+00  0.500000167143E+00  0.500001356189E+00  0.499998681993E+00  0.499998713419E+00
  0.499997413623E+00  0.499990656844E+00  0.499997138365E+00  0.499997734604E+00  0.499999089094E+00  0.499995390040E+00  0.499997353949E+00
  0.499997534301E+00  0.500000143734E+00  0.499998786807E+00  0.499997838787E+00  0.499998304916E+00
  0.000000000000E+00  0.000000000000E+00  0.000000000000E+00  0.000000000000E+00  0.000000000000E+00  0.000000000000E+00  0.000000000000E+00
  0.000000000000E+00  0.000000000000E+00  0.000000000000E+00  0.000000000000E+00  0.000000000000E+00  0.000000000000E+00  0.000000000000E+00
  0.000000000000E+00  0.000000000000E+00  0.000000000000E+00  0.000000000000E+00  0.000000000000E+00  0.000000000000E+00  0.000000000000E+00
  0.000000000000E+00  0.000000000000E+00  0.000000000000E+00  0.000000000000E+00  0.000000000000E+00  0.000000000000E+00  0.000000000000E+00
  0.000000000000E+00  0.000000000000E+00  0.000000000000E+00  0.000000000000E+00  0.000000000000E+00
 -0.143547368185E-04 -0.144822969069E-05  0.641332149694E-05  0.437130219512E-05  0.121704157053E-04  0.100755856657E-04  0.236043535125E-05
  0.613698737600E-05  0.102194183410E-04  0.104202726223E-04 -0.386187015009E-05 -0.177731528357E-05  0.868869660292E-07  0.132749916436E-05
  0.155019257446E-05  0.192738423605E-05  0.167800099368E-05  0.223893603690E-05  0.312306113241E-05  0.381215372207E-05  0.239888892577E-05
  0.447121567913E-05  0.296576424743E-05  0.187592652412E-05  0.182983872862E-05  0.194882750211E-05  0.189538249906E-06  0.268640370967E-07
  0.177215449028E-05  0.112495236962E-05  0.132815597308E-05  0.170119609550E-05  0.833711105613E-06
  0.714284819247E+00  0.714281499032E+00  0.714280124433E+00  0.714283937056E+00  0.714285132125E+00  0.714285756066E+00  0.714285259803E+00
  0.714287343342E+00  0.714306618075E+00  0.714291186573E+00  0.714287976233E+00  0.714284364890E+00  0.714286206598E+00  0.714287244930E+00
  0.714286523914E+00  0.714286674457E+00  0.714286762218E+00  0.714286930748E+00  0.714287045885E+00  0.714288137862E+00  0.714287477448E+00
  0.714289795554E+00  0.714294965499E+00  0.714288883044E+00  0.714287982495E+00  0.714287109671E+00  0.714290138912E+00  0.714288225601E+00
  0.714287561478E+00  0.714286449547E+00  0.714286966495E+00  0.714287419915E+00  0.714287189077E+00
  0.500013676743E+00  0.500030723869E+00  0.500027799922E+00  0.500017522328E+00  0.500015385661E+00  0.500014538711E+00  0.500007342391E+00
  0.500003664388E+00  0.499982049438E+00  0.499999307883E+00  0.500004492104E+00  0.500015760020E+00  0.500005777972E+00  0.500001474460E+00
  0.500001734214E+00  0.500000426959E+00  0.499999911554E+00  0.500000045502E+00  0.500001223041E+00  0.499998439651E+00  0.499998537107E+00
  0.499997005521E+00  0.499989731761E+00  0.499996821494E+00  0.499997507788E+00  0.499998949557E+00  0.499994947582E+00  0.499997102820E+00
  0.499997349586E+00  0.500000070210E+00  0.499998661591E+00  0.499997668230E+00  0.499998157438E+00
  0.999999642112E+00  0.999998313911E+00  0.999997764124E+00  0.999999289196E+00  0.999999767269E+00  0.100000001681E+01  0.999999818195E+00
  0.100000065160E+01  0.100000836152E+01  0.100000218892E+01  0.100000090485E+01  0.999999460344E+00  0.100000019693E+01  0.100000061224E+01
  0.100000032383E+01  0.100000038407E+01  0.100000041920E+01  0.100000048659E+01  0.100000053263E+01  0.100000096943E+01  0.100000070527E+01
  0.100000163250E+01  0.100000370045E+01  0.100000126751E+01  0.100000090728E+01  0.100000055816E+01  0.100000176985E+01  0.100000100452E+01
  0.100000073888E+01  0.100000029410E+01  0.100000050087E+01  0.100000068224E+01  0.100000058992E+01
        15         7        19        19
         8        20        19        19
        18        19        21        21
         7         4         8         8
         3         6         4         4
        19         7         8         8
        19        18        15        15
        14        13        15        15
         8        22        20        20
        27        24        22        22
        19        20        21        21
        32        26        21        21
        17        18        26        26
        17        16        15        15
        25        29        21        21
        12         7        13        13
        10         8         6         6
        25        20        24        24
         4         6         8         8
        12         2         4         4
        10        23        22        22
        26        31        17        17
        30        16        17        17
         4         7        12        12
        13        11        12        12
        21        20        25        25
        24        28        25        25
        22         8        10        10
         6         5        10        10
        31        26        32        32
         4         2         3         3
         5         6         3         3
        11        13        14        14
        22        23        27        27
        28        24        27        27
        15        13         7         7
         2        12         1         1
        29        25        33        33
        23        10         9         9
        21        26        18        18
        16        14        15        15
        18        17        15        15
        29        32        21        21
        22        24        20        20
        28        33        25        25
        11         1        12        12
        31        30        17        17
         5         9        10        10
zone t="boundary 3 bc-3", solutiontime= 0.3000000E+02, strandid=1003, i=33, j=48, f=feblock
  0.375059100022E+01  0.249769609016E+01  0.500322139356E+01  0.403612222763E+01  0.287976775181E+01  0.124541907693E+01  0.190552236756E+01
  0.500000000000E+01  0.326671106333E+01  0.423253756071E+01  0.201271138087E+01 -0.547472452772E-02  0.958895628158E+00  0.500000000000E+01
  0.266968148532E+01  0.385584487668E+01  0.890374213116E+00  0.154654014519E+01  0.159041735350E-17  0.500000000000E+01  0.315261137241E+01
  0.218304200095E+01  0.398195307874E+01  0.159041735350E-17  0.697379955531E+00  0.963757281441E+00  0.125000000000E+01  0.159041735350E-17
  0.500000000000E+01  0.310330738720E+01  0.250000000000E+01  0.375000000000E+01  0.159041735350E-17
  0.250494200518E+01  0.250494200518E+01  0.250494200518E+01  0.250494200518E+01  0.250494200518E+01  0.250494200518E+01  0.250494200518E+01
  0.250494200518E+01  0.250494200518E+01  0.250494200518E+01  0.250494200518E+01  0.250494200518E+01  0.250494200518E+01  0.250494200518E+01
  0.250494200518E+01  0.250494200518E+01  0.250494200518E+01  0.250494200518E+01  0.250494200518E+01  0.250494200518E+01  0.250494200518E+01
  0.250494200518E+01  0.250494200518E+01  0.250494200518E+01  0.250494200518E+01  0.250494200518E+01  0.250494200518E+01  0.250494200518E+01
  0.250494200518E+01  0.250494200518E+01  0.250494200518E+01  0.250494200518E+01  0.250494200518E+01
  0.135457002285E-03  0.109983637804E-03  0.964506780630E-04  0.101756739734E+01  0.908094462101E+00  0.103842397884E-03  0.722629008326E+00
  0.125000000000E+01  0.188965653795E+01  0.191862692309E+01  0.176708233165E+01  0.803216924783E-04  0.969652538178E+00  0.250000000000E+01
  0.285339429033E+01  0.293325055335E+01  0.205656222194E+01  0.293157014693E+01  0.125000000000E+01  0.375000000000E+01  0.363766836446E+01
  0.396069443367E+01  0.407056384269E+01  0.250000000000E+01  0.307031994182E+01  0.397359819531E+01  0.500000000000E+01  0.375000000000E+01
  0.500000000000E+01  0.433260780167E+01  0.500000000000E+01  0.500000000000E+01  0.500000000000E+01
  0.999994910244E+00  0.999987716685E+00  0.100000375186E+01  0.999998858296E+00  0.999997990534E+00  0.100000689720E+01  0.100000015986E+01
  0.100000176886E+01  0.999999735852E+00  0.100000011784E+01  0.100000150619E+01  0.100001339899E+01  0.100000598470E+01  0.100000123275E+01
  0.100000117797E+01  0.100000071438E+01  0.100000353356E+01  0.100000243500E+01  0.100000779234E+01  0.100000084912E+01  0.100000115579E+01
  0.100000171227E+01  0.100000096080E+01  0.100000412638E+01  0.100000289638E+01  0.100000212517E+01  0.100000178148E+01  0.100000237506E+01
  0.100000068376E+01  0.100000132919E+01  0.100000166296E+01  0.100000118621E+01  0.100000143170E+01
  0.500025919112E+00  0.500031190679E+00  0.500007237524E+00  0.500012562127E+00  0.500016590000E+00  0.500006204894E+00  0.500011132319E+00
  0.500003911172E+00  0.500006782231E+00  0.500005375044E+00  0.500003131492E+00  0.499982546012E+00  0.499996593626E+00  0.500001669125E+00
  0.500001184815E+00  0.500001847393E+00  0.499997474190E+00  0.499998750827E+00  0.499991897563E+00  0.500000625914E+00  0.500000025552E+00
  0.499998727811E+00  0.499999934559E+00  0.499995712725E+00  0.499997389913E+00  0.499997849350E+00  0.499997573048E+00  0.499997538981E+00
  0.500000129257E+00  0.499999062168E+00  0.499997926617E+00  0.499998805226E+00  0.499998347771E+00
  0.000000000000E+00  0.000000000000E+00  0.000000000000E+00  0.000000000000E+00  0.000000000000E+00  0.000000000000E+00  0.000000000000E+00
  0.000000000000E+00  0.000000000000E+00  0.000000000000E+00  0.000000000000E+00  0.000000000000E+00  0.000000000000E+00  0.000000000000E+00
  0.000000000000E+00  0.000000000000E+00  0.000000000000E+00  0.000000000000E+00  0.000000000000E+00  0.000000000000E+00  0.000000000000E+00
  0.000000000000E+00  0.000000000000E+00  0.000000000000E+00  0.000000000000E+00  0.000000000000E+00  0.000000000000E+00  0.000000000000E+00
  0.000000000000E+00  0.000000000000E+00  0.000000000000E+00  0.000000000000E+00  0.000000000000E+00
 -0.335777461585E-05  0.593186578300E-05 -0.105774746139E-04 -0.495656014114E-05  0.139514870805E-05  0.196084318875E-04  0.107072658907E-04
 -0.392651766630E-05  0.165794906435E-05 -0.728500730810E-06  0.495739852231E-05  0.441057832418E-05  0.767315537200E-05  0.420488578472E-06
  0.272445575886E-05  0.122640613846E-05  0.375907013199E-05  0.312177731911E-05  0.923502227354E-06  0.154525860681E-05  0.197602816684E-05
  0.233217062816E-05  0.149929067961E-05  0.150464669021E-06  0.165969422550E-05  0.166058672380E-05  0.171927432158E-05  0.559615609466E-07
  0.106165258519E-05  0.181396739758E-05  0.167029307147E-05  0.123894996044E-05  0.900237233788E-06
  0.714280624671E+00  0.714273431121E+00  0.714289466356E+00  0.714284572616E+00  0.714283704858E+00  0.714292611515E+00  0.714285874175E+00
  0.714287483160E+00  0.714285450139E+00  0.714285832106E+00  0.714287220483E+00  0.714299113322E+00  0.714291699005E+00  0.714286947015E+00
  0.714286892254E+00  0.714286428655E+00  0.714289247849E+00  0.714288149282E+00  0.714293506642E+00  0.714286563423E+00  0.714286870058E+00
  0.714287426550E+00  0.714286675141E+00  0.714289840670E+00  0.714288610670E+00  0.714287839448E+00  0.714287495781E+00  0.714288089356E+00
  0.714286398030E+00  0.714287043491E+00  0.714287377286E+00  0.714286900508E+00  0.714287145976E+00
  0.500026428080E+00  0.500032419089E+00  0.500006862373E+00  0.500012676313E+00  0.500016790942E+00  0.500005515545E+00  0.500011116437E+00
  0.500003734297E+00  0.500006808648E+00  0.500005363266E+00  0.500002980893E+00  0.499981206187E+00  0.499995995218E+00  0.500001545856E+00
  0.500001067026E+00  0.500001775960E+00  0.499997120851E+00  0.499998507340E+00  0.499991118346E+00  0.500000540998E+00  0.499999909983E+00
  0.499998556593E+00  0.499999838463E+00  0.499995300092E+00  0.499997100278E+00  0.499997636839E+00  0.499997394899E+00  0.499997301474E+00
  0.500000060888E+00  0.499998929246E+00  0.499997760311E+00  0.499998686603E+00  0.499998204604E+00
  0.999997964284E+00  0.999995086824E+00  0.100000150103E+01  0.999999543367E+00  0.999999196266E+00  0.100000275891E+01  0.100000006398E+01
  0.100000070756E+01  0.999999894344E+00  0.100000004711E+01  0.100000060249E+01  0.100000535959E+01  0.100000239389E+01  0.100000049307E+01
  0.100000047118E+01  0.100000028574E+01  0.100000141342E+01  0.100000097399E+01  0.100000311693E+01  0.100000033967E+01  0.100000046229E+01
  0.100000068490E+01  0.100000038439E+01  0.100000165055E+01  0.100000115856E+01  0.100000085006E+01  0.100000071261E+01  0.100000095003E+01
  0.100000027348E+01  0.100000053170E+01  0.100000066524E+01  0.100000047450E+01  0.100000057267E+01
        15         9        16        16
        15        18        11        11
        22        15        21        21
        11         5         9         9
         5         7         2         2
        11         9        15        15
        16        21        15        15
        16        10        14        14
        18        17        11        11
        17        25        24        24
        22        18        15        15
        22        30        31        31
        30        21        23        23
        16        20        23        23
        22        27        26        26
        10         9         4         4
         7        11        13        13
        25        18        26        26
        11         7         5         5
         5         1         4         4
        17        19        13        13
        23        32        30        30
        23        20        29        29
         4         9         5         5
         4         8        10        10
        26        18        22        22
        26        28        25        25
        13        11        17        17
        13         6         7         7
        31        30        32        32
         2         1         5         5
         2         7         6         6
        14        10         8         8
        24        19        17        17
        24        25        28        28
         9        10        16        16
         3         4         1         1
        33        26        27        27
        12        13        19        19
        21        30        22        22
        16        14        20        20
        16        23        21        21
        22        31        27        27
        18        25        17        17
        26        33        28        28
         4         3         8         8
        23        29        32        32
        13        12         6         6
zone t="boundary 4 bc-4", solutiontime= 0.3000000E+02, strandid=1004, i=32, j=46, f=feblock
  0.125000000000E+01  0.219251206392E+01  0.103724302461E+01  0.500000000000E+01  0.250000000000E+01  0.375000000000E+01  0.404200324774E+01
  0.500000000000E+01  0.159041735350E-17  0.310152362409E+01  0.202479342020E+01  0.324151231464E+01  0.922061490191E+00  0.159041735350E-17
  0.299062775774E+01  0.394624082883E+01  0.500000000000E+01  0.409252726285E+01  0.500000000000E+01  0.429310310915E+01  0.175434191980E+01
  0.284428995242E+01  0.159041735350E-17  0.159041735350E-17  0.715990576545E+00  0.930412228790E+00  0.125000000000E+01  0.187029682677E+01
  0.500000000000E+01  0.375000000000E+01  0.250000000000E+01  0.159041735350E-17
  0.250494200518E+01  0.157686156160E+01  0.146289271009E+01  0.250494200518E+01  0.250494200518E+01  0.250494200518E+01  0.155830813274E+01
  0.125000000000E+01  0.250494200518E+01  0.177790177481E+01  0.477386199275E+00  0.742988685424E+00  0.308372018325E+00  0.125000000000E+01
 -0.487811078581E+00 -0.144524380962E+01 -0.125000000000E+01 -0.345533899378E+00  0.159041735350E-17  0.627766083140E+00 -0.739814786992E+00
 -0.158811787973E+01  0.159041735350E-17 -0.125000000000E+01 -0.600232012419E+00 -0.154800130438E+01 -0.249658901620E+01 -0.178862290564E+01
 -0.249658901620E+01 -0.249658901620E+01 -0.249658901620E+01 -0.249658901620E+01
  0.500000000000E+01  0.500000000000E+01  0.500000000000E+01  0.500000000000E+01  0.500000000000E+01  0.500000000000E+01  0.500000000000E+01
  0.500000000000E+01  0.500000000000E+01  0.500000000000E+01  0.500000000000E+01  0.500000000000E+01  0.500000000000E+01  0.500000000000E+01
  0.500000000000E+01  0.500000000000E+01  0.500000000000E+01  0.500000000000E+01  0.500000000000E+01  0.500000000000E+01  0.500000000000E+01
  0.500000000000E+01  0.500000000000E+01  0.500000000000E+01  0.500000000000E+01  0.500000000000E+01  0.500000000000E+01  0.500000000000E+01
  0.500000000000E+01  0.500000000000E+01  0.500000000000E+01  0.500000000000E+01
  0.100000178148E+01  0.100000172895E+01  0.100000163619E+01  0.100000068376E+01  0.100000166296E+01  0.100000118621E+01  0.100000108196E+01
  0.100000066716E+01  0.100000143170E+01  0.100000143901E+01  0.100000176912E+01  0.100000143226E+01  0.100000155444E+01  0.100000136138E+01
  0.100000154673E+01  0.100000112361E+01  0.100000066052E+01  0.100000112446E+01  0.100000066340E+01  0.100000101419E+01  0.100000187502E+01
  0.100000160824E+01  0.100000133183E+01  0.100000139803E+01  0.100000150659E+01  0.100000163456E+01  0.100000184719E+01  0.100000186093E+01
  0.100000073527E+01  0.100000125222E+01  0.100000170564E+01  0.100000147479E+01
  0.499997573048E+00  0.499997786916E+00  0.499997777247E+00  0.500000129257E+00  0.499997926617E+00  0.499998805226E+00  0.499999006329E+00
  0.500000147654E+00  0.499998347771E+00  0.499998305648E+00  0.499997723134E+00  0.499998348409E+00  0.499997966717E+00  0.499998575825E+00
  0.499998193769E+00  0.499998972288E+00  0.500000006850E+00  0.499999004773E+00  0.500000137591E+00  0.499999210375E+00  0.499997613883E+00
  0.499998088554E+00  0.499998602947E+00  0.499998467694E+00  0.499998084566E+00  0.499997828553E+00  0.499997534301E+00  0.499997573447E+00
  0.500000143734E+00  0.499998786807E+00  0.499997838787E+00  0.499998304916E+00
  0.000000000000E+00 -0.767512303765E-07 -0.837482944078E-07  0.000000000000E+00  0.000000000000E+00  0.000000000000E+00  0.830952178965E-07
  0.920695242491E-07  0.000000000000E+00 -0.143557784228E-07  0.343000089647E-07  0.300221699893E-07  0.389440090047E-07 -0.777234097887E-07
  0.659797397753E-07 -0.133910844313E-07  0.196249346900E-07 -0.125936492114E-07  0.349330113966E-07  0.616093188260E-07  0.136242267428E-06
  0.819723224408E-07 -0.142411582742E-07  0.645474411024E-07  0.866823966352E-07  0.161928682481E-06  0.000000000000E+00  0.107727071597E-06
  0.000000000000E+00  0.000000000000E+00  0.000000000000E+00  0.000000000000E+00