# vtk DataFile Version 2.0
FUN3D:global_image_vtk
ASCII
DATASET UNSTRUCTURED_GRID
POINTS 213 double
   -0.5474724527720465E-02    0.4999999999999952E-30    0.2504942005182237E+01
    0.1212121212121247E-30    0.8032169247834675E-04    0.5000000000000000E-30
    0.1245419076928181E+01    0.9999999999999969E-30    0.2504942005182237E+01
    0.1212121212121247E-30    0.1038423978844127E-03    0.1000000000000000E-29
    0.2497696090161273E+01    0.4999999999999985E-30    0.2504942005182237E+01
    0.1212121212121247E-30    0.1099836378041785E-03    0.5000000000000000E-30
    0.3750591000219316E+01    0.1000000000000000E-29    0.2504942005182237E+01
    0.1212121212121247E-30    0.1354570022851220E-03    0.1000000000000000E-29
    0.5003221393557218E+01    0.5000000000000016E-30    0.2504942005182237E+01
    0.1212121212121247E-30    0.9645067806302032E-04    0.5000000000000000E-30
    0.5004676757730219E+01    0.1000000000000003E-29    0.1281291415003748E+01
    0.5000000000000225E-30    0.1636229492601449E-03    0.1000000000000000E-29
    0.5004772733265148E+01    0.5000000000000033E-30    0.2775097973138349E-01
    0.1000000000000023E-29    0.1902234218277843E-03    0.5000000000000000E-30
    0.5003581221826500E+01    0.1000000000000000E-29   -0.1225853358120849E+01
    0.5000000000000176E-30    0.1607086259254320E-03    0.1000000000000000E-29
    0.5001952553134515E+01    0.5000000000000000E-30   -0.2496589016202556E+01
    0.1212121212121236E-30    0.1082092371909593E-03    0.5000000000000000E-30
    0.3750348122005903E+01    0.1000000000000000E-29   -0.2496589016202556E+01
    0.1212121212121236E-30    0.1458754878926882E-03    0.1000000000000000E-29
    0.2498611463539534E+01    0.4999999999999985E-30   -0.2496589016202556E+01
    0.1212121212121236E-30    0.1009099575163264E-03    0.5000000000000000E-30
    0.1247175261509345E+01    0.9999999999999969E-30   -0.2496589016202556E+01
    0.1212121212121236E-30    0.1108958281412220E-03    0.1000000000000000E-29
   -0.3383969652505758E-02    0.4999999999999968E-30   -0.2496589016202556E+01
    0.1212121212121236E-30    0.8113625863498397E-04    0.5000000000000000E-30
   -0.4257789880083962E-02    0.9999999999999969E-30   -0.1225734673006506E+01
    0.5000000000000176E-30    0.3418765131224534E-04    0.1000000000000000E-29
   -0.5251625685752881E-02    0.4999999999999952E-30    0.2619501495648065E-01
    0.1000000000000019E-29    0.1038778815052877E-03    0.5000000000000000E-30
   -0.5676101163537783E-02    0.9999999999999936E-30    0.1278221743531552E+01
    0.5000000000000209E-30    0.8222052785172851E-04    0.1000000000000000E-29
    0.9003209217918744E+00    0.4999999999999952E-30    0.1608979307788059E+01
    0.1000000000000023E-29    0.8697986548433789E-04    0.5000000000000000E-30
    0.3983172228635397E+01    0.1000000000000000E-29   -0.1561211762270739E+01
    0.5000000000000161E-30    0.1756748276819931E-03    0.1000000000000000E-29
    0.4035602079387497E+01    0.5000000000000000E-30    0.1486760266126256E+01
    0.1000000000000023E-29    0.1711707047749034E-03    0.5000000000000000E-30
    0.1036613706197667E+01    0.9999999999999969E-30   -0.1455626287809795E+01
    0.5000000000000176E-30    0.1047334602207739E-03    0.1000000000000000E-29
    0.1094353449885713E+01    0.4999999999999952E-30   -0.2964620398744432E+00
    0.1000000000000029E-29    0.1260432505361120E-03    0.5000000000000000E-30
    0.7298399877477202E+00    0.9999999999999969E-30    0.6874686505129548E+00
    0.5000000000000370E-30    0.1044287519396114E-03    0.1000000000000000E-29
    0.1617018623563139E+01    0.4999999999999952E-30    0.8553209978666024E+00
    0.1000000000000058E-29    0.1529204880539314E-03    0.5000000000000000E-30
    0.2143199653243216E+01    0.9999999999999969E-30   -0.1627128369725139E+01
    0.5000000000000161E-30    0.1606130269572459E-03    0.1000000000000000E-29
    0.4088840479725206E+01    0.5000000000000016E-30   -0.4351046111829278E+00
    0.1000000000000029E-29    0.2719113083121671E-03    0.5000000000000000E-30
    0.2977916509313599E+01    0.1000000000000000E-29   -0.8334989944101466E+00
    0.5000000000000354E-30    0.2245152651590421E-03    0.1000000000000000E-29
    0.3044093243998181E+01    0.4999999999999985E-30   -0.1814361085633255E+01
    0.1000000000000019E-29    0.1616866806658512E-03    0.5000000000000000E-30
    0.3427866629114899E+01    0.1000000000000000E-29    0.3813906924713181E+00
    0.5000000000000289E-30    0.2935982523095126E-03    0.1000000000000000E-29
    0.4313225407775678E+01    0.5000000000000016E-30    0.5489135452820468E+00
    0.1000000000000061E-29    0.2311713600814391E-03    0.5000000000000000E-30
    0.1823032713305475E+01    0.9999999999999969E-30    0.1771265414466481E+01
    0.5000000000000257E-30    0.1835256528172624E-03    0.1000000000000000E-29
    0.2806311149527428E+01    0.4999999999999985E-30    0.1358629605767851E+01
    0.1000000000000023E-29    0.1942351855950819E-03    0.5000000000000000E-30
    0.1891860854168224E+01    0.9999999999999969E-30   -0.8481308814147378E+00
    0.5000000000000564E-30    0.1670436487611893E-03    0.1000000000000000E-29
    0.2268769174863770E+01    0.4999999999999952E-30    0.7723710290210216E-01
    0.1000000000000023E-29    0.2071744628142080E-03    0.5000000000000000E-30
    0.5000000000000000E+01    0.2834627810693449E-46    0.2504942005182237E+01
    0.1212121212121247E-30    0.1250000000000000E+01    0.2834627810693449E-46
    0.5000000000000000E+01    0.2834627810693449E-46    0.2504942005182237E+01
    0.1212121212121247E-30    0.2500000000000000E+01    0.2834627810693449E-46
    0.5000000000000000E+01    0.2834627810693449E-46    0.2504942005182237E+01
    0.1212121212121247E-30    0.3750000000000000E+01    0.2834627810693449E-46
    0.5000000000000000E+01    0.2834627810693449E-46    0.2504942005182237E+01
    0.1212121212121247E-30    0.5000000000000000E+01    0.2834627810693449E-46
    0.3750000000000000E+01    0.2834627810693449E-46    0.2504942005182237E+01
    0.1212121212121247E-30    0.5000000000000000E+01    0.2834627810693449E-46
    0.2500000000000000E+01    0.2834627810693449E-46    0.2504942005182237E+01
    0.1212121212121247E-30    0.5000000000000000E+01    0.2834627810693449E-46
    0.1250000000000000E+01    0.2834627810693449E-46    0.2504942005182237E+01
    0.1212121212121247E-30    0.5000000000000000E+01    0.2834627810693449E-46
    0.1703100959499590E-18    0.2834627810693449E-46    0.2504942005182237E+01
    0.1212121212121247E-30    0.5000000000000000E+01    0.2834627810693449E-46
    0.1703100959499590E-18    0.2834627810693449E-46    0.2504942005182237E+01
    0.1212121212121247E-30    0.3750000000000000E+01    0.2834627810693449E-46
    0.1703100959499590E-18    0.2834627810693449E-46    0.2504942005182237E+01
    0.1212121212121247E-30    0.2500000000000000E+01    0.2834627810693449E-46
    0.1703100959499590E-18    0.2834627810693449E-46    0.2504942005182237E+01
    0.1212121212121247E-30    0.1250000000000000E+01    0.2834627810693449E-46
    0.9588956281582821E+00    0.4088323204881281E-30    0.2504942005182237E+01
    0.1212121212121247E-30    0.9696525381778107E+00    0.8253355966552498E-30
    0.3981953078740101E+01    0.7369699780722045E-31    0.2504942005182237E+01
    0.1212121212121247E-30    0.4070563842691149E+01    0.1516277355832375E-30
    0.4036122227630506E+01    0.5331184872988657E-30    0.2504942005182237E+01
    0.1212121212121247E-30    0.1017567397338643E+01    0.8139234257758402E-30
    0.9637572814407707E+00   -0.9331067766358955E-32    0.2504942005182237E+01
    0.1212121212121247E-30    0.3973598195308711E+01    0.1306014370163886E-30
    0.1546540145185356E+01    0.8002905657955380E-31    0.2504942005182237E+01
    0.1212121212121247E-30    0.2931570146934813E+01    0.3996885550965429E-30
    0.6973799555312562E+00    0.3481309068743746E-32    0.2504942005182237E+01
    0.1212121212121247E-30    0.3070319941818703E+01    0.2100037182691448E-30
    0.8903742131161809E+00    0.7712488796410399E-31    0.2504942005182237E+01
    0.1212121212121247E-30    0.2056562221935373E+01    0.4294668085397611E-30
    0.2183042000952687E+01    0.3782461580942031E-31    0.2504942005182237E+01
    0.1212121212121247E-30    0.3960694433674115E+01    0.2259705361716843E-30
    0.3855844876676128E+01    0.1784932175603648E-30    0.2504942005182237E+01
    0.1212121212121247E-30    0.2933250553352366E+01    0.3558534735539762E-30
    0.3152611372410319E+01    0.1115283363376558E-30    0.2504942005182237E+01
    0.1212121212121247E-30    0.3637668364457151E+01    0.2959845527163513E-30
    0.3103307387204183E+01    0.5185271477180576E-31    0.2504942005182237E+01
    0.1212121212121247E-30    0.4332607801667730E+01    0.1521436499780297E-30
    0.3266711063327834E+01    0.3601961362742569E-30    0.2504942005182237E+01
    0.1212121212121247E-30    0.1889656537948559E+01    0.6353768785675696E-30
    0.4232537560711024E+01    0.2580489315429559E-30    0.2504942005182237E+01
    0.1212121212121247E-30    0.1918626923091980E+01    0.4090791405811979E-30
    0.1905522367559471E+01    0.6572817491140711E-30    0.2504942005182237E+01
    0.1212121212121247E-30    0.7226290083262537E+00    0.8977306600900350E-30
    0.2879767751810978E+01    0.6107141644547112E-30    0.2504942005182237E+01
    0.1212121212121247E-30    0.9080944621009355E+00    0.8180347387425781E-30
    0.2012711380865118E+01    0.3615868018467563E-30    0.2504942005182237E+01
    0.1212121212121247E-30    0.1767082331652570E+01    0.7060364642887016E-30
    0.2669681485317436E+01    0.1849800474544915E-30    0.2504942005182237E+01
    0.1212121212121247E-30    0.2853394290333895E+01    0.4820509466873958E-30
    0.5000000000000000E+01    0.2834627810693449E-46    0.1250000000000000E+01
    0.2834627810693449E-46    0.5000000000000000E+01    0.2834627810693449E-46
    0.5000000000000000E+01    0.2834627810693449E-46    0.1703100959499590E-18
[...]
POINT_DATA 213
SCALARS rho double 1
LOOKUP_TABLE default
   0.1000013398958355E+01
  -0.4579150529964206E-32
   0.1000006897157904E+01
   0.4446124983935659E-31
   0.9999877166124403E+00
  -0.2439314760914116E-31
   0.9999949102638274E+00
   0.2191660929022375E-31
   0.1000003751993223E+01
  -0.5075934299443061E-32
   0.1000005486352349E+01
   0.1490518106730588E-30
   0.9999935158230264E+00
   0.8252178398874693E-31
   0.9999980374641906E+00
   0.5298018120511247E-31
   0.9999991048258080E+00
  -0.8552515218132112E-31
   0.9999957846194528E+00
   0.4323036291301906E-31
   0.9999944099870814E+00
  -0.3568837421069709E-31
   0.9999994176369075E+00
  -0.2912529192325548E-31
   0.1000020903627199E+01
   0.6613033620659574E-31
   0.1000027312184456E+01
  -0.1629581627395619E-31
   0.1000020564061946E+01
   0.2787884255677933E-31
   0.1000014939723559E+01
  -0.4405458739652411E-31
   0.1000016746907716E+01
   0.1660737977628915E-31
   0.9999901510471686E+00
  -0.7396295686980018E-33
   0.9999910316505509E+00
   0.6094012208355292E-32
   0.1000010232173083E+01
   0.1700478600654981E-31
   0.1000010730906087E+01
  -0.7595491909713880E-32
   0.1000011996586387E+01
  -0.5301406636661106E-31
   0.1000006612931124E+01
  -0.1450918226796422E-31
   0.9999953583361877E+00
  -0.7100174942592079E-31
   0.9999822723919360E+00
  -0.3611189050937082E-31
   0.9999917765021094E+00
  -0.2854282590111200E-31
   0.9999938357775756E+00
   0.6166130311264945E-31
   0.9999886455272596E+00
  -0.3141284740615363E-31
   0.9999818683364878E+00
   0.7383617027230670E-32
   0.9999993735309348E+00
  -0.3009546213261014E-31
   0.9999907325358912E+00
   0.3037793907986729E-31
   0.1000001566931194E+01
   0.2082934900440345E-31
   0.1000001340636723E+01
   0.7751656771210235E-31
   0.1000001768791819E+01
   0.4740458009493568E-32
   0.1000001232716503E+01
   0.8535549985549574E-33
   0.1000000849176175E+01
   0.3257258575220812E-33
   0.1000000683690712E+01
   0.1585338503772059E-33
   0.1000001186221046E+01
   0.2403296015530990E-33
   0.1000001662998467E+01
   0.2177363209291793E-33
   0.1000001781498881E+01
   0.5592879902331074E-34
   0.1000001431693158E+01
  -0.5064480727525536E-34
   0.1000002375075079E+01
  -0.7607550892755808E-34
   0.1000004126381788E+01
  -0.1259449300801088E-32
   0.1000007792335752E+01
  -0.2518539984681091E-32
   0.1000005984687519E+01
   0.4606780369652200E-32
   0.1000000960841179E+01
   0.4666192431299721E-33
   0.9999988582130358E+00
   0.7745945408943912E-32
   0.1000002125169308E+01
   0.6588301244319884E-34
   0.1000002434997268E+01
   0.4793640538511859E-33
   0.1000002896384324E+01
  -0.1435676739664180E-33
   0.1000003533559759E+01
  -0.2626752508227386E-33
   0.1000001712268671E+01
   0.2746926585054835E-33
   0.1000000714375051E+01
   0.1203667478649134E-32
   0.1000001155770255E+01
   0.5084022530071367E-33
   0.1000001329192363E+01
   0.3788978138666418E-33
   0.9999997358602503E+00
   0.2682272472232770E-32
   0.1000000117794005E+01
   0.3166711965800434E-32
   0.1000000159830451E+01
  -0.2320826953014516E-32
   0.9999979904241127E+00
   0.5734322048430253E-32
   0.1000001506208746E+01
   0.5791027531905280E-33
   0.1000001177953676E+01
   0.1102663036433510E-32
   0.1000000667053741E+01
   0.1349751064022498E-33
   0.1000000663300951E+01
   0.5880896807951941E-34
   0.1000000660403086E+01
  -0.6047497594467334E-35
   0.1000000735180339E+01
  -0.2461897087192331E-34
   0.1000000960213489E+01
   0.1894067277723401E-33
   0.1000001530666299E+01
  -0.9624490196837542E-34
   0.1000002261940127E+01
   0.3951294222789471E-33
   0.1000001916056013E+01
   0.7262697125482503E-32
   0.1000000725401995E+01
   0.8043473080821570E-34
   0.1000000688578963E+01
   0.3254523954342396E-33
   0.1000002655040704E+01
   0.9270435656322799E-33
   0.1000005619499653E+01
   0.1295449428458432E-31
   0.1000004750539211E+01
   0.1690340768146634E-31
   0.1000000861455924E+01
   0.4875832337677912E-32
   0.1000001952405397E+01
   0.1144125200743351E-32
   0.1000000655756090E+01
   0.1608494748393166E-33
   0.1000001413388255E+01
   0.6583131610482227E-33
   0.1000001276437160E+01
   0.2978818157534668E-33
   0.1000000944522073E+01
   0.3829641647661675E-33
   0.1000000637855033E+01
   0.7999861985183889E-34
   0.1000001436271816E+01
   0.3866185014855069E-32
   0.1000000995862192E+01
   0.1177110846117839E-32
   0.1000002320961677E+01
   0.1659380436375551E-32
   0.1000001385231336E+01
   0.1869248985323762E-32
   0.1000001361387610E+01
  -0.4839134411019280E-34
   0.1000001331831522E+01
  -0.5578881737438073E-34
   0.1000001398032760E+01
  -0.6152618320194755E-35
   0.1000001474789458E+01
  -0.9956177947021877E-38
   0.1000001847186238E+01
  -0.3841898648328057E-34
   0.1000001705647018E+01
  -0.3754295341450375E-34
   0.1000001252212213E+01
  -0.2519335239778510E-34
   0.1000001081874847E+01
   0.2249470974080158E-33
   0.1000001634553869E+01
  -0.2291732635290046E-34
   0.1000001636207628E+01
   0.2391559160831702E-34
   0.1000001123574480E+01
  -0.3204977518867286E-34
   0.1000001124393269E+01
   0.9650457410946408E-34
   0.1000001014107775E+01
   0.1503883099944630E-33
   0.1000001432263569E+01
   0.1497675006510608E-33
   0.1000001608257907E+01
   0.7837298662380576E-35
   0.1000001506592719E+01
  -0.3271456936089462E-34
   0.1000001875031360E+01
   0.5988763207509179E-35
   0.1000001860939448E+01
  -0.4340390260091731E-34
   0.1000001554459581E+01
  -0.9012294737987681E-36
   0.1000001439053781E+01
   0.2204585744446826E-33
   0.1000001728969716E+01
   0.1568189558306130E-33
   0.1000001769139800E+01
   0.6991068939476427E-34
   0.1000001546768791E+01
   0.4567099405826128E-34
   0.1000009251186698E+01
   0.7538981466934668E-32
   0.1000004424621831E+01
   0.1430085806267126E-32
   0.1000002511311535E+01
   0.2497597268606198E-33
   0.1000002103338496E+01
  -0.6674299336078551E-34
   0.1000011247228619E+01
   0.5544607349887666E-32
   0.1000009105465123E+01
  -0.5482075433705861E-32
   0.1000002286795137E+01
   0.7955278654973780E-34
   0.1000002163658891E+01
  -0.3039460502770983E-34
   0.1000001942399931E+01
  -0.1931819067560234E-34
   0.1000003119548136E+01
  -0.1646187334236333E-33
   0.1000003789190067E+01
   0.8181151786228301E-33
   0.1000012788201557E+01
   0.1964914407144148E-32
   0.1000006774135410E+01
   0.3214916815169440E-32
   0.1000006444291613E+01
   0.2552291566633829E-32
   0.1000010072185807E+01
   0.4819485566448541E-33
   0.1000003206496747E+01
  -0.3978714673818561E-33
   0.1000004884506806E+01
  -0.1644873719971065E-32
   0.1000005652559354E+01
  -0.1082435803471912E-32
   0.1000003590396211E+01
   0.9246121752405091E-34
   0.1000005472240816E+01
  -0.3692680174703369E-32
   0.1000001047925819E+01
   0.1055633333753344E-34
   0.9999986505639625E+00
   0.7002055034461934E-33
   0.1000002268209287E+01
   0.4981202674236640E-34
   0.1000002423575822E+01
  -0.1888682779704214E-33
   0.1000003168751546E+01
   0.8313062615415741E-35
   0.1000004081254066E+01
  -0.3105140144286786E-33
   0.1000001763159780E+01
  -0.8581610890184640E-34
   0.1000000809656790E+01
  -0.9248730543799363E-35
   0.1000001216469564E+01
   0.5549222290843618E-34
   0.1000001395374988E+01
   0.1888875201824823E-34
   0.9999995455352669E+00
  -0.1184010612785079E-34
   0.1000000492323774E+01
   0.1677094770165764E-33
   0.1000000041664228E+01
  -0.2008139409443511E-31
   0.9999982226418939E+00
   0.5771354308365804E-32
   0.1000001629063527E+01
  -0.8245705210876948E-33
   0.1000001331601081E+01
  -0.2453306169131414E-34
   0.1000001307428740E+01
  -0.1874784867206984E-34
   0.1000002036248493E+01
   0.1855777044972327E-33
   0.1000002295369599E+01
   0.8965698061033252E-34
   0.1000002824706044E+01
   0.7756789444887745E-33
   0.1000003788481527E+01
   0.2848970089100113E-33
   0.1000006333335058E+01
   0.4168024542308171E-34
   0.1000003075099877E+01
   0.2430249153534216E-32
   0.1000002610280876E+01
  -0.8206248752527500E-34
   0.1000002153610396E+01
   0.2059425764867275E-33
   0.1000002888356461E+01
  -0.9579541922162849E-35
   0.1000002896592860E+01
   0.6331423503483421E-33
   0.1000005883414631E+01
  -0.2150187987595317E-32
   0.1000001879149161E+01
  -0.2370903201543352E-34
   0.1000001358644909E+01
   0.4719399122742170E-33
   0.1000000166570640E+01
   0.2141876753062335E-32
   0.1000000598980553E+01
   0.1165057608608494E-32
   0.1000001103038877E+01
   0.3152685968622860E-33
   0.1000000584782937E+01
   0.1240475790865267E-32
   0.1000001543238893E+01
   0.9581008215627638E-34
   0.1000001718859078E+01
   0.1770885840406882E-33
   0.1000001226815786E+01
   0.2925822967834881E-33
   0.1000000793594801E+01
   0.3948711099491168E-33
   0.1000001466697868E+01
   0.1870535357914235E-33
   0.1000002039136883E+01
   0.1428028343433623E-35
   0.1000004196062678E+01
   0.2556839569597310E-33
   0.1000003196060468E+01
  -0.5045506632265567E-33
   0.1000001500539077E+01
  -0.5904069950397577E-34
   0.1000002008057954E+01
  -0.1543781614460023E-34
   0.1000003004278785E+01
   0.2326511638534811E-33
   0.9999987262110476E+00
   0.2262517615898827E-32
   0.1000003443775260E+01
   0.4128494738227597E-32
   0.1000000215453990E+01
  -0.1361256864634528E-33
   0.1000000919997005E+01
   0.8166361783384966E-33
   0.9999996470331781E+00
   0.4021333958117562E-32
   0.1000000217339213E+01
   0.7342389969125760E-33
   0.1000007150733030E+01
  -0.4152899290505318E-32
   0.1000005152064679E+01
  -0.8940637196595832E-33
   0.1000007010425263E+01
  -0.4845066581826495E-33
   0.1000000968244730E+01
   0.2550585842640762E-33
   0.1000001464148397E+01
   0.3237612621570675E-33
   0.1000000720647590E+01
   0.3747512495357093E-33
   0.1000000422453126E+01
  -0.2042038761710759E-33
   0.9999999975768655E+00
   0.1556755130069525E-33
   0.1000000824641304E+01
   0.3409057327156161E-33
   0.1000001079338644E+01
   0.2001395965769417E-33
   0.1000000956043151E+01
   0.1830844919655709E-33
   0.1000001362835491E+01
   0.1951014110833307E-33
   0.9999994188162775E+00
   0.5329582169170519E-32
   0.9999992369353143E+00
   0.1056830818423016E-31
   0.9999993317192999E+00
   0.4217947925170556E-32
   0.9999999715916252E+00
   0.9458941142305683E-34
   0.9999980421720743E+00
  -0.1975801388443472E-32
   0.9999985732014747E+00
   0.1995970057614478E-32
   0.1000000629623137E+01
   0.3648326868612243E-32
   0.9999997617636631E+00
   0.2014618944168139E-32
   0.9999936953728614E+00
  -0.1462848325807198E-32
   0.1000002060349779E+01
  -0.3779039996713442E-34
   0.1000001743618455E+01
   0.5569371834605936E-34
   0.1000001110505466E+01
   0.1874516498201247E-33
   0.1000000888140897E+01
   0.5933529744504772E-33
   0.9999957231235793E+00
   0.5944487074831863E-32
   0.9999938673215429E+00
   0.6064969277872017E-32
   0.9999969715242549E+00
   0.3495800467209014E-32
   0.1000001564513930E+01
   0.6056464038595763E-34
   0.1000001219325803E+01
   0.8047476304200681E-34
   0.1000000929975998E+01
   0.6181767575979960E-33
   0.1000000838752763E+01
   0.3806222101645558E-35
   0.1000001762288889E+01
  -0.6128283214988668E-32
   0.9999946525437720E+00
  -0.2631699533334782E-32
SCALARS u double 1
LOOKUP_TABLE default
   0.4999825459983923E+00
  -0.1713990544098482E-31
   0.5000062048656051E+00
   0.2499041397903723E-34
   0.5000311908372698E+00
  -0.3145723605531947E-32
   0.5000259195178607E+00
  -0.3965489782381311E-31
   0.5000072377305059E+00
  -0.2382174430342238E-31
   0.5000050927627961E+00
  -0.1293359356788335E-30
   0.5000129641895305E+00
  -0.8960914539988770E-31
   0.5000124662827949E+00
  -0.4750860502451479E-31
   0.5000135873418674E+00
   0.8671707635859055E-31
   0.5000303024970107E+00
  -0.3224842722752154E-33
   0.5000272405181417E+00
   0.4420605381379054E-32
   0.5000153271484942E+00
   0.1049445553387291E-30
   0.4999841396786192E+00
  -0.2766830615013858E-31
   0.4999807667028028E+00
  -0.2444595807845562E-32
   0.4999820908643142E+00
   0.9129140584854735E-32
   0.4999827244217912E+00
   0.1985136898800610E-31
   0.4999933630300598E+00
  -0.2221576871434748E-31
   0.5000361481419927E+00
   0.2746355041578170E-31
   0.5000295111931473E+00
  -0.4066225810162593E-31
   0.5000088173835016E+00
   0.3127685616201134E-31
   0.5000020067912738E+00
  -0.1388479620770035E-31
   0.4999923074884474E+00
   0.2456439050772318E-31
   0.5000115330270928E+00
  -0.4810681689321608E-31
   0.5000277437758007E+00
   0.6051131098548646E-31
   0.5000416467780302E+00
  -0.2208462652741046E-31
   0.5000391836540353E+00
   0.2504774257705771E-31
   0.5000334083840257E+00
  -0.4716720504552198E-31
   0.5000435468509338E+00
   0.3099926495076393E-31
   0.5000363555811883E+00
  -0.8175402112215041E-31
   0.5000212336755069E+00
   0.1460317912559075E-31
   0.5000320202796464E+00
  -0.4313144713771431E-31
   0.5000217536526930E+00
   0.1279306547643884E-31
   0.5000270004167926E+00
  -0.3974969969615628E-31
   0.5000039108728924E+00
  -0.5158190402375847E-32
   0.5000016691344178E+00
  -0.1445768364544000E-32
   0.5000006259706145E+00
  -0.2535266301745163E-33
   0.5000001292450826E+00
   0.5635174931537388E-34
   0.4999988053000292E+00
  -0.2578934998369536E-33
   0.4999979267321991E+00
  -0.2908938351478324E-33
   0.4999975730546607E+00
  -0.1456448594318018E-33
   0.4999983477399137E+00
   0.8906818434476941E-34
   0.4999975389729460E+00
   0.1582876596781088E-33
   0.4999957127243191E+00
   0.1278444445354829E-32
   0.4999918975639777E+00
   0.2715814497443078E-32
   0.4999965936509627E+00
  -0.9031140521714808E-32
   0.4999999348008782E+00
  -0.7774823913241101E-33
   0.5000125616351986E+00
  -0.1702263382197215E-31
   0.4999978493335075E+00
  -0.2309475659553157E-33
   0.4999987508074236E+00
  -0.8296085995862110E-33
   0.4999973899093958E+00
  -0.2489658422657075E-33
   0.4999974741909499E+00
  -0.5693238013357814E-33
   0.4999987278027859E+00
  -0.5665721772526417E-33
   0.5000018474779911E+00
  -0.2915033227496129E-32
   0.5000000255720097E+00
  -0.9715149459313583E-33
   0.4999990622858806E+00
  -0.5981924400732952E-33
   0.5000067822233147E+00
  -0.7415263028341952E-32
   0.5000053748855591E+00
  -0.8183293043502376E-32
   0.5000111323591193E+00
   0.5303950304850810E-32
   0.5000165897391949E+00
  -0.1429624695784705E-31
   0.5000031315391845E+00
  -0.1946522148532458E-32
   0.5000011848503190E+00
  -0.1780523838091839E-32
   0.5000001476270258E+00
  -0.1581690489478403E-34
   0.5000001375127572E+00
  -0.5717927303080763E-34
   0.5000000066640060E+00
  -0.1549551861182732E-33
   0.5000001436224443E+00
  -0.2687293785006266E-33
   0.5000005230493514E+00
  -0.2958793273450728E-33
   0.5000016276004147E+00
   0.7208734990836718E-33
   0.5000047180409901E+00
   0.8521458551215263E-32
   0.5000056305958330E+00
  -0.1114817579408855E-31
   0.5000005534406561E+00
  -0.1223588823543501E-33
   0.5000005595067702E+00
  -0.2823814088147037E-33
   0.5000061815131815E+00
   0.7994385687174785E-32
   0.5000032762439386E+00
  -0.1720086584662842E-31
   0.5000042125760092E+00
  -0.3061404039488174E-31
   0.5000046184457403E+00
  -0.6384695585573318E-32
   0.5000022151085004E+00
   0.9391559332929557E-33
   0.5000004840363000E+00
  -0.7069996332409383E-34
   0.5000010384465874E+00
  -0.2788483025852225E-33
   0.5000009580552351E+00
  -0.1052174770329715E-33
   0.5000007431057200E+00
  -0.2901017701497751E-33
   0.5000004531785999E+00
  -0.1481867845981448E-34
   0.5000027870339790E+00
  -0.4020371004018940E-32
   0.5000014322141882E+00
  -0.1422308876285464E-32
   0.5000032405115481E+00
   0.9597058346899590E-33
   0.5000024897656384E+00
  -0.6299293623938096E-33
   0.4999985758186372E+00
   0.3678371716627060E-34
   0.4999986029474048E+00
   0.7007987167814677E-34
   0.4999984676852390E+00
   0.4628919224844280E-34
   0.4999983049084112E+00
   0.3090468853767767E-35
   0.4999975343390885E+00
   0.2666781026934200E-34
   0.4999978388835462E+00
  -0.2136334623617347E-33
   0.4999987867682752E+00
  -0.3630613512613822E-33
   0.4999990062551368E+00
  -0.2443730931670783E-33
   0.4999978285694490E+00
  -0.9079920813830014E-35
   0.4999977772249559E+00
  -0.6923930172932502E-34
   0.4999989719812515E+00
  -0.3284439976931363E-33
   0.4999990045306532E+00
  -0.2999105985708279E-33
   0.4999992102594014E+00
  -0.2788631540241943E-33
   0.4999983483166548E+00
  -0.3184162183599212E-33
   0.4999980885546335E+00
  -0.3791605531890661E-33
   0.4999980845651800E+00
   0.2028640849979260E-34
   0.4999976138866162E+00
  -0.1971959623010876E-33
   0.4999975734941385E+00
  -0.8447437404778491E-34
   0.4999979666986845E+00
  -0.3557892130747590E-34
   0.4999983057486094E+00
  -0.2370418978489771E-33
   0.4999977869112076E+00
  -0.2262542525853702E-33
   0.4999977230470350E+00
  -0.2156102892701441E-33
   0.4999981936315228E+00
  -0.3244299330407577E-33
   0.4999906568807809E+00
  -0.8484781422947295E-32
   0.4999953900380871E+00
  -0.1291323986157847E-32
   0.4999973539608274E+00
  -0.2484931259102274E-33
   0.4999976993613721E+00
   0.1430585463520909E-33
   0.4999865759630900E+00
  -0.1258815999728785E-31
   0.4999898091253861E+00
   0.5968869620350902E-32
   0.4999975202583545E+00
  -0.2584154364964863E-33
   0.4999977524510349E+00
  -0.7283497134125849E-34
   0.4999979987333428E+00
   0.8711426091859735E-34
   0.4999968038854057E+00
   0.1634144168384944E-33
   0.4999957289446371E+00
  -0.8766599645674408E-33
   0.4999860958990638E+00
   0.9199487123800670E-32
   0.4999923506696035E+00
   0.1949218914832343E-33
   0.4999936554998272E+00
  -0.1743622593868178E-32
   0.4999878973160586E+00
   0.1425901250794311E-31
   0.4999967418512528E+00
   0.4036203490334532E-33
   0.4999947824256104E+00
   0.1400163710041935E-32
   0.4999940393775402E+00
   0.1107924892128048E-32
   0.4999961716020218E+00
  -0.1198485173090784E-33
   0.4999998550647743E+00
   0.1969408903824788E-31
   0.5000000164890454E+00
  -0.2642889170053752E-33
   0.5000156248431148E+00
   0.2641575572197953E-31
   0.4999977345959676E+00
  -0.2830169607137054E-34
   0.4999986819302855E+00
   0.8471836549564340E-33
   0.4999971383517052E+00
   0.3775563801787108E-33
   0.4999974136384220E+00
   0.2572336690741390E-32
   0.4999987133782645E+00
  -0.1434318337457379E-33
   0.5000018152557081E+00
   0.3861130883031357E-34
   0.5000001671013652E+00
  -0.1289063047988815E-34
   0.4999990891216824E+00
  -0.2649109424289827E-33
   0.5000072970187723E+00
   0.1833911392377024E-32
   0.5000058271329532E+00
   0.3950110722883558E-32
   0.5000145429147232E+00
   0.6433755390488566E-31
   0.5000173446174676E+00
  -0.1895285656409031E-32
   0.5000038273528916E+00
   0.9983780406431457E-32
   0.5000013561517274E+00
   0.1068326088302049E-32
   0.5000010898992790E+00
  -0.8405789770028880E-33
   0.4999985415382502E+00
   0.3897909203907469E-33
   0.4999987918491582E+00
  -0.2653439536423850E-33
   0.4999998930631137E+00
  -0.6267535493271946E-33
   0.4999963903798315E+00
   0.1351503299146936E-33
   0.4999950158883454E+00
   0.1542281544387428E-32
   0.5000006452238122E+00
  -0.5149596471900491E-32
   0.4999973651620794E+00
   0.8993285989196038E-36
   0.4999982670013071E+00
  -0.4812854903141053E-33
   0.4999972233047369E+00
  -0.2182447938964403E-33
   0.4999994053922935E+00
  -0.2393847080774373E-32
   0.4999988412483139E+00
  -0.6080023709230095E-32
   0.4999980481390645E+00
  -0.1776945345000510E-33
   0.5000004059747135E+00
  -0.1521145226560420E-32
   0.5000056896794015E+00
  -0.3976445155215780E-32
   0.5000025936189675E+00
  -0.3413875647657190E-32
   0.5000004255504104E+00
  -0.8464604818122458E-33
   0.5000033044506088E+00
  -0.3322012801721310E-32
   0.4999988024248332E+00
  -0.2528735940733023E-33
   0.4999984719243176E+00
  -0.2246981887204356E-33
   0.4999992378721744E+00
  -0.5135722888634433E-33
   0.5000020033594199E+00
  -0.4122858720425611E-33
   0.5000003793759665E+00
   0.2432901033967117E-33
   0.4999979582845671E+00
  -0.1411567480479694E-33
   0.4999960952371497E+00
   0.1868731147270088E-32
   0.4999990100693633E+00