# vtk DataFile Version 2.0
FUN3D:global_image_vtk
ASCII
DATASET UNSTRUCTURED_GRID
POINTS 213 double
   -0.5474724527720465E-02    0.4999999999999965E-30    0.2504942005182237E+01
    0.1212121212121231E-30    0.8032169247834675E-04    0.5000000000000000E-30
    0.1245419076928181E+01    0.9999999999999978E-30    0.2504942005182237E+01
    0.1212121212121231E-30    0.1038423978844127E-03    0.1000000000000000E-29
    0.2497696090161273E+01    0.4999999999999989E-30    0.2504942005182237E+01
    0.1212121212121231E-30    0.1099836378041785E-03    0.5000000000000000E-30
    0.3750591000219316E+01    0.1000000000000000E-29    0.2504942005182237E+01
    0.1212121212121231E-30    0.1354570022851220E-03    0.1000000000000000E-29
    0.5003221393557218E+01    0.5000000000000012E-30    0.2504942005182237E+01
    0.1212121212121231E-30    0.9645067806302032E-04    0.5000000000000000E-30
    0.5004676757730219E+01    0.1000000000000002E-29    0.1281291415003748E+01
    0.5000000000000128E-30    0.1636229492601449E-03    0.1000000000000000E-29
    0.5004772733265148E+01    0.5000000000000012E-30    0.2775097973138349E-01
    0.1000000000000012E-29    0.1902234218277843E-03    0.5000000000000000E-30
    0.5003581221826500E+01    0.1000000000000000E-29   -0.1225853358120849E+01
    0.5000000000000093E-30    0.1607086259254320E-03    0.1000000000000000E-29
    0.5001952553134515E+01    0.5000000000000000E-30   -0.2496589016202556E+01
    0.1212121212121225E-30    0.1082092371909593E-03    0.5000000000000000E-30
    0.3750348122005903E+01    0.1000000000000000E-29   -0.2496589016202556E+01
    0.1212121212121225E-30    0.1458754878926882E-03    0.1000000000000000E-29
    0.2498611463539534E+01    0.4999999999999989E-30   -0.2496589016202556E+01
    0.1212121212121225E-30    0.1009099575163264E-03    0.5000000000000000E-30
    0.1247175261509345E+01    0.9999999999999978E-30   -0.2496589016202556E+01
    0.1212121212121225E-30    0.1108958281412220E-03    0.1000000000000000E-29
   -0.3383969652505758E-02    0.4999999999999989E-30   -0.2496589016202556E+01
    0.1212121212121225E-30    0.8113625863498397E-04    0.5000000000000000E-30
   -0.4257789880083962E-02    0.9999999999999978E-30   -0.1225734673006506E+01
    0.5000000000000093E-30    0.3418765131224530E-04    0.1000000000000000E-29
   -0.5251625685752881E-02    0.4999999999999965E-30    0.2619501495648065E-01
    0.1000000000000009E-29    0.1038778815052877E-03    0.5000000000000000E-30
   -0.5676101163537783E-02    0.9999999999999978E-30    0.1278221743531552E+01
    0.5000000000000117E-30    0.8222052785172851E-04    0.1000000000000000E-29
    0.9003209217918744E+00    0.4999999999999965E-30    0.1608979307788059E+01
    0.1000000000000012E-29    0.8697986548433789E-04    0.5000000000000000E-30
    0.3983172228635397E+01    0.1000000000000000E-29   -0.1561211762270739E+01
    0.5000000000000093E-30    0.1756748276819931E-03    0.1000000000000000E-29
    0.4035602079387497E+01    0.5000000000000000E-30    0.1486760266126256E+01
    0.1000000000000012E-29    0.1711707047749034E-03    0.5000000000000000E-30
    0.1036613706197667E+01    0.9999999999999978E-30   -0.1455626287809795E+01
    0.5000000000000093E-30    0.1047334602207739E-03    0.1000000000000000E-29
    0.1094353449885713E+01    0.4999999999999965E-30   -0.2964620398744432E+00
    0.1000000000000016E-29    0.1260432505361120E-03    0.5000000000000000E-30
    0.7298399877477202E+00    0.9999999999999978E-30    0.6874686505129548E+00
    0.5000000000000384E-30    0.1044287519396114E-03    0.1000000000000000E-29
    0.1617018623563139E+01    0.4999999999999965E-30    0.8553209978666024E+00
    0.1000000000000051E-29    0.1529204880539314E-03    0.5000000000000000E-30
    0.2143199653243216E+01    0.9999999999999978E-30   -0.1627128369725139E+01
    0.5000000000000093E-30    0.1606130269572459E-03    0.1000000000000000E-29
    0.4088840479725206E+01    0.5000000000000012E-30   -0.4351046111829278E+00
    0.1000000000000016E-29    0.2719113083121671E-03    0.5000000000000000E-30
    0.2977916509313599E+01    0.1000000000000000E-29   -0.8334989944101466E+00
    0.5000000000000373E-30    0.2245152651590421E-03    0.1000000000000000E-29
    0.3044093243998181E+01    0.4999999999999989E-30   -0.1814361085633255E+01
    0.1000000000000009E-29    0.1616866806658512E-03    0.5000000000000000E-30
    0.3427866629114899E+01    0.1000000000000000E-29    0.3813906924713181E+00
    0.5000000000000163E-30    0.2935982523095126E-03    0.1000000000000000E-29
    0.4313225407775678E+01    0.5000000000000012E-30    0.5489135452820472E+00
    0.1000000000000980E-29    0.2311713600814391E-03    0.5000000000000000E-30
    0.1823032713305475E+01    0.9999999999999978E-30    0.1771265414466481E+01
    0.5000000000000140E-30    0.1835256528172624E-03    0.1000000000000000E-29
    0.2806311149527428E+01    0.4999999999999989E-30    0.1358629605767851E+01
    0.1000000000000012E-29    0.1942351855950819E-03    0.5000000000000000E-30
    0.1891860854168224E+01    0.9999999999999978E-30   -0.8481308814147375E+00
    0.5000000000009770E-30    0.1670436487611893E-03    0.1000000000000000E-29
    0.2268769174863770E+01    0.4999999999999965E-30    0.7723710290210216E-01
    0.1000000000000012E-29    0.2071744628142080E-03    0.5000000000000000E-30
    0.5000000000000000E+01   -0.6016594658826145E-46    0.2504942005182237E+01
    0.1212121212121231E-30    0.1250000000000000E+01   -0.6016594658826145E-46
    0.5000000000000000E+01   -0.6016594658826145E-46    0.2504942005182237E+01
    0.1212121212121231E-30    0.2500000000000000E+01   -0.6016594658826145E-46
    0.5000000000000000E+01   -0.6016594658826145E-46    0.2504942005182237E+01
    0.1212121212121231E-30    0.3750000000000000E+01   -0.6016594658826145E-46
    0.5000000000000000E+01   -0.6016594658826145E-46    0.2504942005182237E+01
    0.1212121212121231E-30    0.5000000000000000E+01   -0.6016594658826145E-46
    0.3750000000000000E+01   -0.6016594658826145E-46    0.2504942005182237E+01
    0.1212121212121231E-30    0.5000000000000000E+01   -0.6016594658826145E-46
    0.2500000000000000E+01   -0.6016594658826145E-46    0.2504942005182237E+01
    0.1212121212121231E-30    0.5000000000000000E+01   -0.6016594658826145E-46
    0.1250000000000000E+01   -0.6016594658826145E-46    0.2504942005182237E+01
    0.1212121212121231E-30    0.5000000000000000E+01   -0.6016594658826145E-46
    0.9627213662044706E-19   -0.6016594658826145E-46    0.2504942005182237E+01
    0.1212121212121231E-30    0.5000000000000000E+01   -0.6016594658826145E-46
    0.9627213662044706E-19   -0.6016594658826145E-46    0.2504942005182237E+01
    0.1212121212121231E-30    0.3750000000000000E+01   -0.6016594658826145E-46
    0.9627213662044706E-19   -0.6016594658826145E-46    0.2504942005182237E+01
    0.1212121212121231E-30    0.2500000000000000E+01   -0.6016594658826145E-46
    0.9627213662044706E-19   -0.6016594658826145E-46    0.2504942005182237E+01
    0.1212121212121231E-30    0.1250000000000000E+01   -0.6016594658826145E-46
    0.9588956281582823E+00    0.4088323204878255E-30    0.2504942005182237E+01
    0.1212121212121231E-30    0.9696525381778107E+00    0.8253355966551724E-30
    0.3981953078740100E+01    0.7369699780794777E-31    0.2504942005182237E+01
    0.1212121212121231E-30    0.4070563842691150E+01    0.1516277355819122E-30
    0.4036122227630506E+01    0.5331184872985167E-30    0.2504942005182237E+01
    0.1212121212121231E-30    0.1017567397338643E+01    0.8139234257757971E-30
    0.9637572814407697E+00   -0.9331067766250501E-32    0.2504942005182237E+01
    0.1212121212121231E-30    0.3973598195308711E+01    0.1306014370161145E-30
    0.1546540145185355E+01    0.8002905657907329E-31    0.2504942005182237E+01
    0.1212121212121231E-30    0.2931570146934813E+01    0.3996885550960727E-30
    0.6973799555312559E+00    0.3481309068221358E-32    0.2504942005182237E+01
    0.1212121212121231E-30    0.3070319941818703E+01    0.2100037182689658E-30
    0.8903742131161814E+00    0.7712488796289881E-31    0.2504942005182237E+01
    0.1212121212121231E-30    0.2056562221935372E+01    0.4294668085394614E-30
    0.2183042000952685E+01    0.3782461580999110E-31    0.2504942005182237E+01
    0.1212121212121231E-30    0.3960694433674115E+01    0.2259705361707614E-30
    0.3855844876676127E+01    0.1784932175605052E-30    0.2504942005182237E+01
    0.1212121212121231E-30    0.2933250553352366E+01    0.3558534735527556E-30
    0.3152611372410317E+01    0.1115283363383060E-30    0.2504942005182237E+01
    0.1212121212121231E-30    0.3637668364457151E+01    0.2959845527137916E-30
    0.3103307387204181E+01    0.5185271477248524E-31    0.2504942005182237E+01
    0.1212121212121231E-30    0.4332607801667730E+01    0.1521436499769843E-30
    0.3266711063327834E+01    0.3601961362731321E-30    0.2504942005182237E+01
    0.1212121212121231E-30    0.1889656537948559E+01    0.6353768785668606E-30
    0.4232537560711024E+01    0.2580489315425749E-30    0.2504942005182237E+01
    0.1212121212121231E-30    0.1918626923091980E+01    0.4090791405804037E-30
    0.1905522367559471E+01    0.6572817491136677E-30    0.2504942005182237E+01
    0.1212121212121231E-30    0.7226290083262537E+00    0.8977306600900052E-30
    0.2879767751810979E+01    0.6107141644543376E-30    0.2504942005182237E+01
    0.1212121212121231E-30    0.9080944621009355E+00    0.8180347387425704E-30
    0.2012711380865118E+01    0.3615868018455268E-30    0.2504942005182237E+01
    0.1212121212121231E-30    0.1767082331652570E+01    0.7060364642884531E-30
    0.2669681485317435E+01    0.1849800474539012E-30    0.2504942005182237E+01
    0.1212121212121231E-30    0.2853394290333895E+01    0.4820509466862380E-30
    0.5000000000000000E+01   -0.6016594658826145E-46    0.1250000000000000E+01
   -0.6016594658826145E-46    0.5000000000000000E+01   -0.6016594658826145E-46
    0.5000000000000000E+01   -0.6016594658826145E-46    0.9627213662044706E-19
[...]
POINT_DATA 213
SCALARS rho double 1
LOOKUP_TABLE default
   0.1000013398958359E+01
  -0.4579150599053284E-32
   0.1000006897157892E+01
   0.4446124985301813E-31
   0.9999877166123726E+00
  -0.2439314756276741E-31
   0.9999949102637889E+00
   0.2191660890793218E-31
   0.1000003751993209E+01
  -0.5075935023160420E-32
   0.1000005486352678E+01
   0.1490518097413598E-30
   0.9999935158232039E+00
   0.8252178433058959E-31
   0.9999980374642531E+00
   0.5298018129936978E-31
   0.9999991048258609E+00
  -0.8552515257092330E-31
   0.9999957846194660E+00
   0.4323036252482551E-31
   0.9999944099871541E+00
  -0.3568837427957341E-31
   0.9999994176369297E+00
  -0.2912529192677382E-31
   0.1000020903627220E+01
   0.6613033619523134E-31
   0.1000027312184485E+01
  -0.1629581641927926E-31
   0.1000020564061968E+01
   0.2787884265526436E-31
   0.1000014939723540E+01
  -0.4405458732460193E-31
   0.1000016746907702E+01
   0.1660737972754342E-31
   0.9999901510472146E+00
  -0.7396295763755075E-33
   0.9999910316505517E+00
   0.6094011850177880E-32
   0.1000010232173121E+01
   0.1700478593474006E-31
   0.1000010730906063E+01
  -0.7595492029817036E-32
   0.1000011996586387E+01
  -0.5301406642752318E-31
   0.1000006612931111E+01
  -0.1450918210155562E-31
   0.9999953583362358E+00
  -0.7100174947948844E-31
   0.9999822723920058E+00
  -0.3611189004978506E-31
   0.9999917765020643E+00
  -0.2854282577846504E-31
   0.9999938357776714E+00
   0.6166130318799263E-31
   0.9999886455272904E+00
  -0.3141284654344242E-31
   0.9999818683367604E+00
   0.7383617516365100E-32
   0.9999993735308917E+00
  -0.3009546204563810E-31
   0.9999907325358489E+00
   0.3037793934335502E-31
   0.1000001566931186E+01
   0.2082934894813282E-31
   0.1000001340636689E+01
   0.7751656790702710E-31
   0.1000001768791754E+01
   0.4740458531103271E-32
   0.1000001232716485E+01
   0.8535550174007437E-33
   0.1000000849176180E+01
   0.3257259541086795E-33
   0.1000000683690696E+01
   0.1585334667553900E-33
   0.1000001186221045E+01
   0.2403293249361497E-33
   0.1000001662998455E+01
   0.2177362710934768E-33
   0.1000001781498877E+01
   0.5592874952296671E-34
   0.1000001431693141E+01
  -0.5064490497139498E-34
   0.1000002375075073E+01
  -0.7607559338065914E-34
   0.1000004126381794E+01
  -0.1259449352601306E-32
   0.1000007792335750E+01
  -0.2518540029800756E-32
   0.1000005984687513E+01
   0.4606780398453742E-32
   0.1000000960841176E+01
   0.4666192730612069E-33
   0.9999988582129791E+00
   0.7745946067793967E-32
   0.1000002125169310E+01
   0.6588295855382285E-34
   0.1000002434997271E+01
   0.4793639832850288E-33
   0.1000002896384324E+01
  -0.1435677466772112E-33
   0.1000003533559765E+01
  -0.2626753030304828E-33
   0.1000001712268680E+01
   0.2746926087894658E-33
   0.1000000714375050E+01
   0.1203667350493365E-32
   0.1000001155770256E+01
   0.5084022344855280E-33
   0.1000001329192377E+01
   0.3788977869390421E-33
   0.9999997358602591E+00
   0.2682272412426199E-32
   0.1000000117793961E+01
   0.3166712108534706E-32
   0.1000000159830440E+01
  -0.2320826949058288E-32
   0.9999979904240625E+00
   0.5734322611473301E-32
   0.1000001506208757E+01
   0.5791026292469532E-33
   0.1000001177953656E+01
   0.1102663126646649E-32
   0.1000000667053697E+01
   0.1349747235233838E-33
   0.1000000663300910E+01
   0.5880886818712552E-34
   0.1000000660403100E+01
  -0.6047735077983979E-35
   0.1000000735180388E+01
  -0.2461912934379457E-34
   0.1000000960213457E+01
   0.1894067938434357E-33
   0.1000001530666272E+01
  -0.9624506943181116E-34
   0.1000002261940126E+01
   0.3951295099324922E-33
   0.1000001916055968E+01
   0.7262697301624903E-32
   0.1000000725401991E+01
   0.8043470654325239E-34
   0.1000000688578935E+01
   0.3254523618197709E-33
   0.1000002655040671E+01
   0.9270437197581319E-33
   0.1000005619499567E+01
   0.1295449391051880E-31
   0.1000004750539223E+01
   0.1690340702386520E-31
   0.1000000861455933E+01
   0.4875832218913364E-32
   0.1000001952405398E+01
   0.1144125028521609E-32
   0.1000000655756068E+01
   0.1608493640953123E-33
   0.1000001413388283E+01
   0.6583132429938195E-33
   0.1000001276437143E+01
   0.2978818382044686E-33
   0.1000000944522080E+01
   0.3829641158103023E-33
   0.1000000637854983E+01
   0.7999839185923800E-34
   0.1000001436271760E+01
   0.3866185255836500E-32
   0.1000000995862211E+01
   0.1177110853841878E-32
   0.1000002320961689E+01
   0.1659380285450891E-32
   0.1000001385231414E+01
   0.1869248970164396E-32
   0.1000001361387605E+01
  -0.4839143124946289E-34
   0.1000001331831518E+01
  -0.5578884243552794E-34
   0.1000001398032760E+01
  -0.6152643399810456E-35
   0.1000001474789456E+01
  -0.9970058234972325E-38
   0.1000001847186246E+01
  -0.3841902244724524E-34
   0.1000001705647023E+01
  -0.3754293268805494E-34
   0.1000001252212252E+01
  -0.2519345273844351E-34
   0.1000001081874854E+01
   0.2249467239462894E-33
   0.1000001634553879E+01
  -0.2291734395375584E-34
   0.1000001636207621E+01
   0.2391554625473788E-34
   0.1000001123574489E+01
  -0.3204984053326785E-34
   0.1000001124393294E+01
   0.9650451430410616E-34
   0.1000001014107738E+01
   0.1503883145281923E-33
   0.1000001432263585E+01
   0.1497674943890213E-33
   0.1000001608257926E+01
   0.7837299456087511E-35
   0.1000001506592724E+01
  -0.3271459361091021E-34
   0.1000001875031356E+01
   0.5988786828600543E-35
   0.1000001860939444E+01
  -0.4340390266550044E-34
   0.1000001554459580E+01
  -0.9012584524660343E-36
   0.1000001439053756E+01
   0.2204584344979442E-33
   0.1000001728969721E+01
   0.1568188718539272E-33
   0.1000001769139810E+01
   0.6991058821245207E-34
   0.1000001546768794E+01
   0.4567095744976530E-34
   0.1000009251186746E+01
   0.7538981289953937E-32
   0.1000004424621818E+01
   0.1430085848223182E-32
   0.1000002511311531E+01
   0.2497596801160621E-33
   0.1000002103338500E+01
  -0.6674298847617153E-34
   0.1000011247228578E+01
   0.5544607378729102E-32
   0.1000009105465114E+01
  -0.5482075403111676E-32
   0.1000002286795137E+01
   0.7955273882350714E-34
   0.1000002163658898E+01
  -0.3039462550050949E-34
   0.1000001942399939E+01
  -0.1931819356796814E-34
   0.1000003119548144E+01
  -0.1646188048826410E-33
   0.1000003789190067E+01
   0.8181151771011633E-33
   0.1000012788201603E+01
   0.1964914415859137E-32
   0.1000006774135412E+01
   0.3214916773099306E-32
   0.1000006444291616E+01
   0.2552291566969999E-32
   0.1000010072185854E+01
   0.4819485394507204E-33
   0.1000003206496748E+01
  -0.3978715114794830E-33
   0.1000004884506820E+01
  -0.1644873798946653E-32
   0.1000005652559340E+01
  -0.1082435896177178E-32
   0.1000003590396209E+01
   0.9246115359427792E-34
   0.1000005472240815E+01
  -0.3692680244084167E-32
   0.1000001047925818E+01
   0.1055637915676003E-34
   0.9999986505639795E+00
   0.7002057098235853E-33
   0.1000002268209290E+01
   0.4981200292248530E-34
   0.1000002423575834E+01
  -0.1888683213404223E-33
   0.1000003168751546E+01
   0.8313057381237537E-35
   0.1000004081254069E+01
  -0.3105140573261105E-33
   0.1000001763159773E+01
  -0.8581611047038833E-34
   0.1000000809656781E+01
  -0.9248815599849088E-35
   0.1000001216469564E+01
   0.5549221764658003E-34
   0.1000001395374988E+01
   0.1888871729189389E-34
   0.9999995455352413E+00
  -0.1184018855549294E-34
   0.1000000492323757E+01
   0.1677094025938521E-33
   0.1000000041664231E+01
  -0.2008139410362586E-31
   0.9999982226418732E+00
   0.5771354324045015E-32
   0.1000001629063525E+01
  -0.8245705552029814E-33
   0.1000001331601107E+01
  -0.2453312404267456E-34
   0.1000001307428743E+01
  -0.1874785619850733E-34
   0.1000002036248497E+01
   0.1855776764974358E-33
   0.1000002295369595E+01
   0.8965693598425386E-34
   0.1000002824706052E+01
   0.7756788998707294E-33
   0.1000003788481523E+01
   0.2848969491238683E-33
   0.1000006333335073E+01
   0.4168023469834109E-34
   0.1000003075099896E+01
   0.2430249129648694E-32
   0.1000002610280877E+01
  -0.8206252771505693E-34
   0.1000002153610401E+01
   0.2059425320799426E-33
   0.1000002888356467E+01
  -0.9579614059903217E-35
   0.1000002896592857E+01
   0.6331423065681527E-33
   0.1000005883414628E+01
  -0.2150187964886516E-32
   0.1000001879149163E+01
  -0.2370904861828605E-34
   0.1000001358644904E+01
   0.4719399265281597E-33
   0.1000000166570653E+01
   0.2141876754311478E-32
   0.1000000598980553E+01
   0.1165057532799245E-32
   0.1000001103038875E+01
   0.3152685726965886E-33
   0.1000000584782961E+01
   0.1240475766208195E-32
   0.1000001543238893E+01
   0.9581004036099663E-34
   0.1000001718859083E+01
   0.1770885699487751E-33
   0.1000001226815792E+01
   0.2925822408358193E-33
   0.1000000793594809E+01
   0.3948711132166280E-33
   0.1000001466697863E+01
   0.1870534919579136E-33
   0.1000002039136889E+01
   0.1427992981563695E-35
   0.1000004196062680E+01
   0.2556839477492162E-33
   0.1000003196060467E+01
  -0.5045506807546762E-33
   0.1000001500539074E+01
  -0.5904068072503176E-34
   0.1000002008057957E+01
  -0.1543784822013973E-34
   0.1000003004278789E+01
   0.2326511347982506E-33
   0.9999987262110441E+00
   0.2262517483516202E-32
   0.1000003443775259E+01
   0.4128494739682252E-32
   0.1000000215454015E+01
  -0.1361256482982783E-33
   0.1000000919996998E+01
   0.8166361986548515E-33
   0.9999996470331677E+00
   0.4021334035577323E-32
   0.1000000217339221E+01
   0.7342389819680715E-33
   0.1000007150733040E+01
  -0.4152899258069698E-32
   0.1000005152064672E+01
  -0.8940637183231377E-33
   0.1000007010425270E+01
  -0.4845066536057147E-33
   0.1000000968244708E+01
   0.2550584336903137E-33
   0.1000001464148404E+01
   0.3237611869806913E-33
   0.1000000720647638E+01
   0.3747512463792035E-33
   0.1000000422453143E+01
  -0.2042038982526020E-33
   0.9999999975768413E+00
   0.1556754519985140E-33
   0.1000000824641312E+01
   0.3409056721835429E-33
   0.1000001079338644E+01
   0.2001395708398363E-33
   0.1000000956043141E+01
   0.1830844270524322E-33
   0.1000001362835489E+01
   0.1951014091550634E-33
   0.9999994188162827E+00
   0.5329582148620173E-32
   0.9999992369352816E+00
   0.1056830798385666E-31
   0.9999993317193113E+00
   0.4217947860036278E-32
   0.9999999715916359E+00
   0.9458943673302941E-34
   0.9999980421720852E+00
  -0.1975801459896916E-32
   0.9999985732014633E+00
   0.1995970000211296E-32
   0.1000000629623154E+01
   0.3648326742602961E-32
   0.9999997617636149E+00
   0.2014618895768391E-32
   0.9999936953728458E+00
  -0.1462848372182455E-32
   0.1000002060349773E+01
  -0.3779038741693605E-34
   0.1000001743618456E+01
   0.5569369611873481E-34
   0.1000001110505454E+01
   0.1874515646774712E-33
   0.1000000888140893E+01
   0.5933529328716323E-33
   0.9999957231235173E+00
   0.5944487125193552E-32
   0.9999938673214875E+00
   0.6064969019218466E-32
   0.9999969715242968E+00
   0.3495800567725117E-32
   0.1000001564513920E+01
   0.6056465320914254E-34
   0.1000001219325794E+01
   0.8047478569395429E-34
   0.1000000929976014E+01
   0.6181767737233864E-33
   0.1000000838752767E+01
   0.3806217022296832E-35
   0.1000001762288881E+01
  -0.6128283216525066E-32
   0.9999946525437576E+00
  -0.2631699623603314E-32
SCALARS u double 1
LOOKUP_TABLE default
   0.4999825459983628E+00
  -0.1713990527298543E-31
   0.5000062048655831E+00
   0.2499062181809826E-34
   0.5000311908373759E+00
  -0.3145724295789592E-32
   0.5000259195182096E+00
  -0.3965489982792515E-31
   0.5000072377308331E+00
  -0.2382174540511178E-31
   0.5000050927628940E+00
  -0.1293359381379776E-30
   0.5000129641894095E+00
  -0.8960914750080515E-31
   0.5000124662824181E+00
  -0.4750860395249875E-31
   0.5000135873415140E+00
   0.8671707834100497E-31
   0.5000303024964561E+00
  -0.3224828131093482E-33
   0.5000272405179701E+00
   0.4420605190147879E-32
   0.5000153271485129E+00
   0.1049445548249433E-30
   0.4999841396786210E+00
  -0.2766830633186019E-31
   0.4999807667028098E+00
  -0.2444595521561332E-32
   0.4999820908643270E+00
   0.9129140454957337E-32
   0.4999827244218015E+00
   0.1985136896175137E-31
   0.4999933630300520E+00
  -0.2221576858997353E-31
   0.5000361481415814E+00
   0.2746355207564686E-31
   0.5000295111937089E+00
  -0.4066226170791928E-31
   0.5000088173834969E+00
   0.3127685651618705E-31
   0.5000020067912060E+00
  -0.1388479600120878E-31
   0.4999923074884431E+00
   0.2456439056397006E-31
   0.5000115330271109E+00
  -0.4810681713888511E-31
   0.5000277437757147E+00
   0.6051131167338875E-31
   0.5000416467778253E+00
  -0.2208462660893855E-31
   0.5000391836538741E+00
   0.2504774333554226E-31
   0.5000334083838719E+00
  -0.4716720432302654E-31
   0.5000435468511064E+00
   0.3099926302707083E-31
   0.5000363555816277E+00
  -0.8175402575325131E-31
   0.5000212336755001E+00
   0.1460317922863068E-31
   0.5000320202797732E+00
  -0.4313144810001456E-31
   0.5000217536525972E+00
   0.1279306604900753E-31
   0.5000270004167593E+00
  -0.3974970000587471E-31
   0.5000039108726803E+00
  -0.5158188784639975E-32
   0.5000016691344035E+00
  -0.1445768436469794E-32
   0.5000006259706335E+00
  -0.2535266526893071E-33
   0.5000001292451094E+00
   0.5635165719415972E-34
   0.4999988053001267E+00
  -0.2578943345310408E-33
   0.4999979267322834E+00
  -0.2908941664489308E-33
   0.4999975730546719E+00
  -0.1456447782909780E-33
   0.4999983477399130E+00
   0.8906850642634654E-34
   0.4999975389729521E+00
   0.1582877046077607E-33
   0.4999957127243148E+00
   0.1278444476719058E-32
   0.4999918975639817E+00
   0.2715814530103013E-32
   0.4999965936509726E+00
  -0.9031140585500868E-32
   0.4999999348008939E+00
  -0.7774819888534558E-33
   0.5000125616347926E+00
  -0.1702263064391830E-31
   0.4999978493334985E+00
  -0.2309474695652827E-33
   0.4999987508074110E+00
  -0.8296084521869573E-33
   0.4999973899093925E+00
  -0.2489657712022249E-33
   0.4999974741909451E+00
  -0.5693237309873368E-33
   0.4999987278027866E+00
  -0.5665719735285850E-33
   0.5000018474780125E+00
  -0.2915033739582377E-32
   0.5000000255719983E+00
  -0.9715146356604185E-33
   0.4999990622859086E+00
  -0.5981922065394842E-33
   0.5000067822232190E+00
  -0.7415262682001052E-32
   0.5000053748854004E+00
  -0.8183292199260394E-32
   0.5000111323591475E+00
   0.5303950200933597E-32
   0.5000165897389516E+00
  -0.1429624490037153E-31
   0.5000031315391554E+00
  -0.1946522189935746E-32
   0.5000011848503075E+00
  -0.1780523823925177E-32
   0.5000001476269221E+00
  -0.1581724994496727E-34
   0.5000001375126192E+00
  -0.5717980452665130E-34
   0.5000000066641184E+00
  -0.1549554075842497E-33
   0.5000001436225422E+00
  -0.2687296875771708E-33
   0.5000005230492782E+00
  -0.2958790799073815E-33
   0.5000016276004495E+00
   0.7208736172686467E-33
   0.5000047180411927E+00
   0.8521457664413768E-32
   0.5000056305957559E+00
  -0.1114817481511354E-31
   0.5000005534406334E+00
  -0.1223587302229820E-33
   0.5000005595068213E+00
  -0.2823812113669017E-33
   0.5000061815133182E+00
   0.7994385136720451E-32
   0.5000032762440044E+00
  -0.1720086531707518E-31
   0.5000042125759354E+00
  -0.3061403950456791E-31
   0.5000046184456853E+00
  -0.6384694893692689E-32
   0.5000022151085555E+00
   0.9391558475421719E-33
   0.5000004840363629E+00
  -0.7069975104408407E-34
   0.5000010384465576E+00
  -0.2788483190829816E-33
   0.5000009580551947E+00
  -0.1052173068338918E-33
   0.5000007431057500E+00
  -0.2901017331959554E-33
   0.5000004531786233E+00
  -0.1481848877295589E-34
   0.5000027870339606E+00
  -0.4020370690805887E-32
   0.5000014322142059E+00
  -0.1422309086212348E-32
   0.5000032405116027E+00
   0.9597057393995396E-33
   0.5000024897656139E+00
  -0.6299295881159842E-33
   0.4999985758186555E+00
   0.3678391875790573E-34
   0.4999986029474122E+00
   0.7007994927882661E-34
   0.4999984676852361E+00
   0.4628921086984922E-34
   0.4999983049084117E+00
   0.3090561691952179E-35
   0.4999975343390720E+00
   0.2666781851667488E-34
   0.4999978388834934E+00
  -0.2136335738331949E-33
   0.4999987867683929E+00
  -0.3630619769194053E-33
   0.4999990062550402E+00
  -0.2443740946935085E-33
   0.4999978285694320E+00
  -0.9079907452987989E-35
   0.4999977772249545E+00
  -0.6923929464657660E-34
   0.4999989719814023E+00
  -0.3284447042833177E-33
   0.4999990045304940E+00
  -0.2999113487126388E-33
   0.4999992102590199E+00
  -0.2788642014319790E-33
   0.4999983483164304E+00
  -0.3184170807420812E-33
   0.4999980885546554E+00
  -0.3791609026221022E-33
   0.4999980845651702E+00
   0.2028634800052089E-34
   0.4999976138865745E+00
  -0.1971961382510965E-33
   0.4999975734941072E+00
  -0.8447442844666752E-34
   0.4999979666986857E+00
  -0.3557899051380376E-34
   0.4999983057486785E+00
  -0.2370425161030282E-33
   0.4999977869112235E+00
  -0.2262545711317389E-33
   0.4999977230469643E+00
  -0.2156106192823351E-33
   0.4999981936314570E+00
  -0.3244304367641031E-33
   0.4999906568807070E+00
  -0.8484780822414023E-32
   0.4999953900381006E+00
  -0.1291324062646648E-32
   0.4999973539608301E+00
  -0.2484930683911843E-33
   0.4999976993613681E+00
   0.1430584849750006E-33
   0.4999865759631643E+00
  -0.1258816036418282E-31
   0.4999898091253981E+00
   0.5968869487800378E-32
   0.4999975202583553E+00
  -0.2584153979591343E-33
   0.4999977524510436E+00
  -0.7283485231972877E-34
   0.4999979987333404E+00
   0.8711432606180308E-34
   0.4999968038853962E+00
   0.1634144658762414E-33
   0.4999957289446345E+00
  -0.8766599791092914E-33
   0.4999860958990395E+00
   0.9199487161548459E-32
   0.4999923506695809E+00
   0.1949219199003934E-33
   0.4999936554998232E+00
  -0.1743622533716385E-32
   0.4999878973160211E+00
   0.1425901272138931E-31
   0.4999967418512516E+00
   0.4036203904537099E-33
   0.4999947824256050E+00
   0.1400163818065453E-32
   0.4999940393775515E+00
   0.1107924935793393E-32
   0.4999961716020254E+00
  -0.1198484110953390E-33
   0.4999998550647758E+00
   0.1969408909379635E-31
   0.5000000164889454E+00
  -0.2642885826114476E-33
   0.5000156248433969E+00
   0.2641575477448708E-31
   0.4999977345959677E+00
  -0.2830169281031658E-34
   0.4999986819302948E+00
   0.8471836766455335E-33
   0.4999971383517071E+00
   0.3775563572225737E-33
   0.4999974136384146E+00
   0.2572336811926864E-32
   0.4999987133782516E+00
  -0.1434317164618065E-33
   0.5000018152556273E+00
   0.3861158085895434E-34
   0.5000001671013269E+00
  -0.1289041300980302E-34
   0.4999990891216422E+00
  -0.2649108353190611E-33
   0.5000072970188739E+00
   0.1833911070612846E-32
   0.5000058271331062E+00
   0.3950110197234862E-32
   0.5000145429147872E+00
   0.6433755381887857E-31
   0.5000173446176253E+00
  -0.1895286062106603E-32
   0.5000038273529012E+00
   0.9983780445828432E-32
   0.5000013561517184E+00
   0.1068326172042071E-32
   0.5000010898992866E+00
  -0.8405789619828265E-33
   0.4999985415382534E+00
   0.3897909952154155E-33
   0.4999987918491550E+00
  -0.2653438849841477E-33
   0.4999998930631154E+00
  -0.6267536067029322E-33
   0.4999963903798287E+00
   0.1351503880874073E-33
   0.4999950158883488E+00
   0.1542281559136602E-32
   0.5000006452238186E+00
  -0.5149596401987753E-32
   0.4999973651620801E+00
   0.8994288481021268E-36
   0.4999982670013005E+00
  -0.4812853412164347E-33
   0.4999972233047333E+00
  -0.2182447272154856E-33
   0.4999994053922897E+00
  -0.2393847062457284E-32
   0.4999988412483280E+00
  -0.6080023763654496E-32
   0.4999980481390605E+00
  -0.1776944991728074E-33
   0.5000004059747089E+00
  -0.1521145154335463E-32
   0.5000056896794417E+00
  -0.3976445293994008E-32
   0.5000025936190055E+00
  -0.3413876049998338E-32
   0.5000004255504173E+00
  -0.8464603358761733E-33
   0.5000033044507123E+00
  -0.3322013398446367E-32
   0.4999988024248331E+00
  -0.2528735035591428E-33
   0.4999984719243094E+00
  -0.2246981152611580E-33
   0.4999992378721492E+00
  -0.5135721840497127E-33
   0.5000020033594398E+00
  -0.4122858917247478E-33
   0.5000003793759757E+00
   0.2432902017702665E-33
   0.4999979582845662E+00
  -0.1411566445844690E-33
   0.4999960952371477E+00
   0.1868731093532597E-32
   0.4999990100693592E+00