# vtk DataFile Version 2.0
FUN3D:global_image_vtk
ASCII
DATASET UNSTRUCTURED_GRID
POINTS 213 double
   -0.5474724527720465E-02    0.4999999999999992E-30    0.2504942005182237E+01
    0.1212121212121217E-30    0.8032169247834675E-04    0.5000000000000000E-30
    0.1245419076928181E+01    0.9999999999999996E-30    0.2504942005182237E+01
    0.1212121212121217E-30    0.1038423978844127E-03    0.1000000000000000E-29
    0.2497696090161273E+01    0.4999999999999998E-30    0.2504942005182237E+01
    0.1212121212121217E-30    0.1099836378041785E-03    0.5000000000000000E-30
    0.3750591000219316E+01    0.1000000000000000E-29    0.2504942005182237E+01
    0.1212121212121217E-30    0.1354570022851220E-03    0.1000000000000000E-29
    0.5003221393557218E+01    0.5000000000000003E-30    0.2504942005182237E+01
    0.1212121212121217E-30    0.9645067806302032E-04    0.5000000000000000E-30
    0.5004676757730219E+01    0.1000000000000001E-29    0.1281291415003748E+01
    0.5000000000000032E-30    0.1636229492601449E-03    0.1000000000000000E-29
    0.5004772733265148E+01    0.5000000000000003E-30    0.2775097973138349E-01
    0.1000000000000003E-29    0.1902234218277843E-03    0.5000000000000000E-30
    0.5003581221826500E+01    0.1000000000000000E-29   -0.1225853358120849E+01
    0.5000000000000023E-30    0.1607086259254320E-03    0.1000000000000000E-29
    0.5001952553134515E+01    0.5000000000000000E-30   -0.2496589016202556E+01
    0.1212121212121215E-30    0.1082092371909593E-03    0.5000000000000000E-30
    0.3750348122005903E+01    0.1000000000000000E-29   -0.2496589016202556E+01
    0.1212121212121215E-30    0.1458754878926882E-03    0.1000000000000000E-29
    0.2498611463539534E+01    0.4999999999999998E-30   -0.2496589016202556E+01
    0.1212121212121215E-30    0.1009099575163264E-03    0.5000000000000000E-30
    0.1247175261509345E+01    0.9999999999999996E-30   -0.2496589016202556E+01
    0.1212121212121215E-30    0.1108958281412220E-03    0.1000000000000000E-29
   -0.3383969652505758E-02    0.4999999999999998E-30   -0.2496589016202556E+01
    0.1212121212121215E-30    0.8113625863498397E-04    0.5000000000000000E-30
   -0.4257789880083962E-02    0.9999999999999996E-30   -0.1225734673006506E+01
    0.5000000000000023E-30    0.3418765131224524E-04    0.1000000000000000E-29
   -0.5251625685752881E-02    0.4999999999999992E-30    0.2619501495648065E-01
    0.1000000000000002E-29    0.1038778815052877E-03    0.5000000000000000E-30
   -0.5676101163537783E-02    0.9999999999999996E-30    0.1278221743531552E+01
    0.5000000000000029E-30    0.8222052785172851E-04    0.1000000000000000E-29
    0.9003209217918744E+00    0.4999999999999992E-30    0.1608979307788059E+01
    0.1000000000000003E-29    0.8697986548433789E-04    0.5000000000000000E-30
    0.3983172228635397E+01    0.1000000000000000E-29   -0.1561211762270739E+01
    0.5000000000000023E-30    0.1756748276819931E-03    0.1000000000000000E-29
    0.4035602079387497E+01    0.5000000000000000E-30    0.1486760266126256E+01
    0.1000000000000003E-29    0.1711707047749034E-03    0.5000000000000000E-30
    0.1036613706197667E+01    0.9999999999999996E-30   -0.1455626287809795E+01
    0.5000000000000023E-30    0.1047334602207739E-03    0.1000000000000000E-29
    0.1094353449885713E+01    0.4999999999999992E-30   -0.2964620398744432E+00
    0.1000000000000004E-29    0.1260432505361120E-03    0.5000000000000000E-30
    0.7298399877477202E+00    0.9999999999999996E-30    0.6874686505129548E+00
    0.5000000000000095E-30    0.1044287519396114E-03    0.1000000000000000E-29
    0.1617018623563139E+01    0.4999999999999992E-30    0.8553209978666024E+00
    0.1000000000000013E-29    0.1529204880539314E-03    0.5000000000000000E-30
    0.2143199653243216E+01    0.9999999999999996E-30   -0.1627128369725139E+01
    0.5000000000000023E-30    0.1606130269572459E-03    0.1000000000000000E-29
    0.4088840479725206E+01    0.5000000000000003E-30   -0.4351046111829278E+00
    0.1000000000000004E-29    0.2719113083121671E-03    0.5000000000000000E-30
    0.2977916509313599E+01    0.1000000000000000E-29   -0.8334989944101466E+00
    0.5000000000000092E-30    0.2245152651590421E-03    0.1000000000000000E-29
    0.3044093243998181E+01    0.4999999999999998E-30   -0.1814361085633255E+01
    0.1000000000000002E-29    0.1616866806658512E-03    0.5000000000000000E-30
    0.3427866629114899E+01    0.1000000000000000E-29    0.3813906924713181E+00
    0.5000000000000041E-30    0.2935982523095126E-03    0.1000000000000000E-29
    0.4313225407775678E+01    0.5000000000000003E-30    0.5489135452820485E+00
    0.1000000000000243E-29    0.2311713600814391E-03    0.5000000000000000E-30
    0.1823032713305475E+01    0.9999999999999996E-30    0.1771265414466481E+01
    0.5000000000000035E-30    0.1835256528172624E-03    0.1000000000000000E-29
    0.2806311149527428E+01    0.4999999999999998E-30    0.1358629605767851E+01
    0.1000000000000003E-29    0.1942351855950819E-03    0.5000000000000000E-30
    0.1891860854168224E+01    0.9999999999999996E-30   -0.8481308814147361E+00
    0.5000000000002422E-30    0.1670436487611893E-03    0.1000000000000000E-29
    0.2268769174863770E+01    0.4999999999999992E-30    0.7723710290210216E-01
    0.1000000000000003E-29    0.2071744628142080E-03    0.5000000000000000E-30
    0.5000000000000000E+01   -0.1493192282459942E-46    0.2504942005182237E+01
    0.1212121212121217E-30    0.1250000000000000E+01   -0.1493192282459942E-46
    0.5000000000000000E+01   -0.1493192282459942E-46    0.2504942005182237E+01
    0.1212121212121217E-30    0.2500000000000000E+01   -0.1493192282459942E-46
    0.5000000000000000E+01   -0.1493192282459942E-46    0.2504942005182237E+01
    0.1212121212121217E-30    0.3750000000000000E+01   -0.1493192282459942E-46
    0.5000000000000000E+01   -0.1493192282459942E-46    0.2504942005182237E+01
    0.1212121212121217E-30    0.5000000000000000E+01   -0.1493192282459942E-46
    0.3750000000000000E+01   -0.1493192282459942E-46    0.2504942005182237E+01
    0.1212121212121217E-30    0.5000000000000000E+01   -0.1493192282459942E-46
    0.2500000000000000E+01   -0.1493192282459942E-46    0.2504942005182237E+01
    0.1212121212121217E-30    0.5000000000000000E+01   -0.1493192282459942E-46
    0.1250000000000000E+01   -0.1493192282459942E-46    0.2504942005182237E+01
    0.1212121212121217E-30    0.5000000000000000E+01   -0.1493192282459942E-46
    0.2370925440194518E-19   -0.1493192282459942E-46    0.2504942005182237E+01
    0.1212121212121217E-30    0.5000000000000000E+01   -0.1493192282459942E-46
    0.2370925440194518E-19   -0.1493192282459942E-46    0.2504942005182237E+01
    0.1212121212121217E-30    0.3750000000000000E+01   -0.1493192282459942E-46
    0.2370925440194518E-19   -0.1493192282459942E-46    0.2504942005182237E+01
    0.1212121212121217E-30    0.2500000000000000E+01   -0.1493192282459942E-46
    0.2370925440194518E-19   -0.1493192282459942E-46    0.2504942005182237E+01
    0.1212121212121217E-30    0.1250000000000000E+01   -0.1493192282459942E-46
    0.9588956281582822E+00    0.4088323204879201E-30    0.2504942005182237E+01
    0.1212121212121217E-30    0.9696525381778107E+00    0.8253355966551724E-30
    0.3981953078740100E+01    0.7369699780768262E-31    0.2504942005182237E+01
    0.1212121212121217E-30    0.4070563842691149E+01    0.1516277355826319E-30
    0.4036122227630506E+01    0.5331184872986848E-30    0.2504942005182237E+01
    0.1212121212121217E-30    0.1017567397338644E+01    0.8139234257758006E-30
    0.9637572814407702E+00   -0.9331067766394462E-32    0.2504942005182237E+01
    0.1212121212121217E-30    0.3973598195308711E+01    0.1306014370160217E-30
    0.1546540145185356E+01    0.8002905657920270E-31    0.2504942005182237E+01
    0.1212121212121217E-30    0.2931570146934813E+01    0.3996885550961130E-30
    0.6973799555312561E+00    0.3481309068378149E-32    0.2504942005182237E+01
    0.1212121212121217E-30    0.3070319941818703E+01    0.2100037182688331E-30
    0.8903742131161811E+00    0.7712488796339364E-31    0.2504942005182237E+01
    0.1212121212121217E-30    0.2056562221935373E+01    0.4294668085394001E-30
    0.2183042000952686E+01    0.3782461580962830E-31    0.2504942005182237E+01
    0.1212121212121217E-30    0.3960694433674115E+01    0.2259705361711367E-30
    0.3855844876676127E+01    0.1784932175604647E-30    0.2504942005182237E+01
    0.1212121212121217E-30    0.2933250553352366E+01    0.3558534735533240E-30
    0.3152611372410318E+01    0.1115283363380483E-30    0.2504942005182237E+01
    0.1212121212121217E-30    0.3637668364457151E+01    0.2959845527150689E-30
    0.3103307387204181E+01    0.5185271477220213E-31    0.2504942005182237E+01
    0.1212121212121217E-30    0.4332607801667730E+01    0.1521436499775199E-30
    0.3266711063327834E+01    0.3601961362736567E-30    0.2504942005182237E+01
    0.1212121212121217E-30    0.1889656537948559E+01    0.6353768785671627E-30
    0.4232537560711024E+01    0.2580489315427562E-30    0.2504942005182237E+01
    0.1212121212121217E-30    0.1918626923091980E+01    0.4090791405807506E-30
    0.1905522367559471E+01    0.6572817491138079E-30    0.2504942005182237E+01
    0.1212121212121217E-30    0.7226290083262537E+00    0.8977306600900034E-30
    0.2879767751810979E+01    0.6107141644545084E-30    0.2504942005182237E+01
    0.1212121212121217E-30    0.9080944621009355E+00    0.8180347387425739E-30
    0.2012711380865118E+01    0.3615868018460549E-30    0.2504942005182237E+01
    0.1212121212121217E-30    0.1767082331652570E+01    0.7060364642884715E-30
    0.2669681485317436E+01    0.1849800474541495E-30    0.2504942005182237E+01
    0.1212121212121217E-30    0.2853394290333895E+01    0.4820509466867039E-30
    0.5000000000000000E+01   -0.1493192282459942E-46    0.1250000000000000E+01
   -0.1493192282459942E-46    0.5000000000000000E+01   -0.1493192282459942E-46
    0.5000000000000000E+01   -0.1493192282459942E-46    0.2370925440194518E-19
[...]
POINT_DATA 213
SCALARS rho double 1
LOOKUP_TABLE default
   0.1000013398958359E+01
  -0.4579150599053461E-32
   0.1000006897157893E+01
   0.4446124985301783E-31
   0.9999877166123733E+00
  -0.2439314756276680E-31
   0.9999949102637896E+00
   0.2191660890793321E-31
   0.1000003751993210E+01
  -0.5075935023158175E-32
   0.1000005486352678E+01
   0.1490518097413625E-30
   0.9999935158232042E+00
   0.8252178433058977E-31
   0.9999980374642529E+00
   0.5298018129937006E-31
   0.9999991048258612E+00
  -0.8552515257092364E-31
   0.9999957846194663E+00
   0.4323036252482489E-31
   0.9999944099871546E+00
  -0.3568837427957377E-31
   0.9999994176369298E+00
  -0.2912529192677395E-31
   0.1000020903627220E+01
   0.6613033619523197E-31
   0.1000027312184485E+01
  -0.1629581641927921E-31
   0.1000020564061969E+01
   0.2787884265526462E-31
   0.1000014939723541E+01
  -0.4405458732460225E-31
   0.1000016746907702E+01
   0.1660737972754399E-31
   0.9999901510472148E+00
  -0.7396295763756411E-33
   0.9999910316505519E+00
   0.6094011850179305E-32
   0.1000010232173121E+01
   0.1700478593474001E-31
   0.1000010730906064E+01
  -0.7595492029816928E-32
   0.1000011996586387E+01
  -0.5301406642752223E-31
   0.1000006612931112E+01
  -0.1450918210155514E-31
   0.9999953583362362E+00
  -0.7100174947948864E-31
   0.9999822723920061E+00
  -0.3611189004978480E-31
   0.9999917765020649E+00
  -0.2854282577846516E-31
   0.9999938357776716E+00
   0.6166130318799240E-31
   0.9999886455272908E+00
  -0.3141284654344207E-31
   0.9999818683367608E+00
   0.7383617516366303E-32
   0.9999993735308920E+00
  -0.3009546204563784E-31
   0.9999907325358491E+00
   0.3037793934335522E-31
   0.1000001566931187E+01
   0.2082934894813272E-31
   0.1000001340636690E+01
   0.7751656790702713E-31
   0.1000001768791755E+01
   0.4740458531102108E-32
   0.1000001232716485E+01
   0.8535550174008262E-33
   0.1000000849176180E+01
   0.3257259541091241E-33
   0.1000000683690696E+01
   0.1585334667550986E-33
   0.1000001186221045E+01
   0.2403293249363427E-33
   0.1000001662998455E+01
   0.2177362710936421E-33
   0.1000001781498877E+01
   0.5592874952301580E-34
   0.1000001431693141E+01
  -0.5064490497134942E-34
   0.1000002375075073E+01
  -0.7607559338083784E-34
   0.1000004126381794E+01
  -0.1259449352601399E-32
   0.1000007792335751E+01
  -0.2518540029800471E-32
   0.1000005984687513E+01
   0.4606780398453782E-32
   0.1000000960841176E+01
   0.4666192730614658E-33
   0.9999988582129790E+00
   0.7745946067792742E-32
   0.1000002125169310E+01
   0.6588295855381107E-34
   0.1000002434997271E+01
   0.4793639832850408E-33
   0.1000002896384324E+01
  -0.1435677466771878E-33
   0.1000003533559766E+01
  -0.2626753030304959E-33
   0.1000001712268681E+01
   0.2746926087895572E-33
   0.1000000714375050E+01
   0.1203667350493735E-32
   0.1000001155770256E+01
   0.5084022344856852E-33
   0.1000001329192377E+01
   0.3788977869392253E-33
   0.9999997358602591E+00
   0.2682272412426673E-32
   0.1000000117793961E+01
   0.3166712108534883E-32
   0.1000000159830440E+01
  -0.2320826949058099E-32
   0.9999979904240630E+00
   0.5734322611472863E-32
   0.1000001506208757E+01
   0.5791026292471280E-33
   0.1000001177953656E+01
   0.1102663126646777E-32
   0.1000000667053697E+01
   0.1349747235229337E-33
   0.1000000663300910E+01
   0.5880886818663258E-34
   0.1000000660403100E+01
  -0.6047735078192579E-35
   0.1000000735180389E+01
  -0.2461912934405927E-34
   0.1000000960213457E+01
   0.1894067938436235E-33
   0.1000001530666272E+01
  -0.9624506943166703E-34
   0.1000002261940125E+01
   0.3951295099331760E-33
   0.1000001916055969E+01
   0.7262697301625103E-32
   0.1000000725401992E+01
   0.8043470654332469E-34
   0.1000000688578935E+01
   0.3254523618198441E-33
   0.1000002655040671E+01
   0.9270437197585921E-33
   0.1000005619499567E+01
   0.1295449391051912E-31
   0.1000004750539224E+01
   0.1690340702386588E-31
   0.1000000861455933E+01
   0.4875832218913915E-32
   0.1000001952405397E+01
   0.1144125028521723E-32
   0.1000000655756067E+01
   0.1608493640953594E-33
   0.1000001413388282E+01
   0.6583132429939909E-33
   0.1000001276437142E+01
   0.2978818382046849E-33
   0.1000000944522080E+01
   0.3829641158106951E-33
   0.1000000637854984E+01
   0.7999839185913044E-34
   0.1000001436271760E+01
   0.3866185255836942E-32
   0.1000000995862211E+01
   0.1177110853842166E-32
   0.1000002320961688E+01
   0.1659380285451124E-32
   0.1000001385231415E+01
   0.1869248970164831E-32
   0.1000001361387604E+01
  -0.4839143124942073E-34
   0.1000001331831520E+01
  -0.5578884243550715E-34
   0.1000001398032760E+01
  -0.6152643399807337E-35
   0.1000001474789456E+01
  -0.9970058087715755E-38
   0.1000001847186246E+01
  -0.3841902244728211E-34
   0.1000001705647023E+01
  -0.3754293268799598E-34
   0.1000001252212253E+01
  -0.2519345273842969E-34
   0.1000001081874855E+01
   0.2249467239462265E-33
   0.1000001634553879E+01
  -0.2291734395369843E-34
   0.1000001636207621E+01
   0.2391554625473161E-34
   0.1000001123574489E+01
  -0.3204984053324906E-34
   0.1000001124393295E+01
   0.9650451430392086E-34
   0.1000001014107740E+01
   0.1503883145280208E-33
   0.1000001432263585E+01
   0.1497674943892070E-33
   0.1000001608257926E+01
   0.7837299456112158E-35
   0.1000001506592724E+01
  -0.3271459361085198E-34
   0.1000001875031355E+01
   0.5988786828680937E-35
   0.1000001860939444E+01
  -0.4340390266545287E-34
   0.1000001554459580E+01
  -0.9012584523967295E-36
   0.1000001439053756E+01
   0.2204584344981658E-33
   0.1000001728969721E+01
   0.1568188718540026E-33
   0.1000001769139810E+01
   0.6991058821265501E-34
   0.1000001546768794E+01
   0.4567095744993223E-34
   0.1000009251186747E+01
   0.7538981289954019E-32
   0.1000004424621818E+01
   0.1430085848223287E-32
   0.1000002511311531E+01
   0.2497596801161834E-33
   0.1000002103338501E+01
  -0.6674298847624301E-34
   0.1000011247228578E+01
   0.5544607378729417E-32
   0.1000009105465115E+01
  -0.5482075403111363E-32
   0.1000002286795136E+01
   0.7955273882354214E-34
   0.1000002163658898E+01
  -0.3039462550050530E-34
   0.1000001942399939E+01
  -0.1931819356799222E-34
   0.1000003119548145E+01
  -0.1646188048826836E-33
   0.1000003789190068E+01
   0.8181151771011913E-33
   0.1000012788201603E+01
   0.1964914415859320E-32
   0.1000006774135411E+01
   0.3214916773099490E-32
   0.1000006444291615E+01
   0.2552291566970149E-32
   0.1000010072185854E+01
   0.4819485394504513E-33
   0.1000003206496748E+01
  -0.3978715114793791E-33
   0.1000004884506820E+01
  -0.1644873798946637E-32
   0.1000005652559341E+01
  -0.1082435896177090E-32
   0.1000003590396210E+01
   0.9246115359417452E-34
   0.1000005472240815E+01
  -0.3692680244084206E-32
   0.1000001047925819E+01
   0.1055637915698333E-34
   0.9999986505639797E+00
   0.7002057098238868E-33
   0.1000002268209290E+01
   0.4981200292252113E-34
   0.1000002423575834E+01
  -0.1888683213404972E-33
   0.1000003168751546E+01
   0.8313057381198986E-35
   0.1000004081254069E+01
  -0.3105140573261035E-33
   0.1000001763159773E+01
  -0.8581611047035847E-34
   0.1000000809656781E+01
  -0.9248815599717091E-35
   0.1000001216469565E+01
   0.5549221764673027E-34
   0.1000001395374988E+01
   0.1888871729194023E-34
   0.9999995455352413E+00
  -0.1184018855538396E-34
   0.1000000492323758E+01
   0.1677094025941103E-33
   0.1000000041664231E+01
  -0.2008139410362572E-31
   0.9999982226418734E+00
   0.5771354324045090E-32
   0.1000001629063525E+01
  -0.8245705552029369E-33
   0.1000001331601107E+01
  -0.2453312404265312E-34
   0.1000001307428743E+01
  -0.1874785619829133E-34
   0.1000002036248497E+01
   0.1855776764974831E-33
   0.1000002295369595E+01
   0.8965693598439195E-34
   0.1000002824706052E+01
   0.7756788998708247E-33
   0.1000003788481523E+01
   0.2848969491238179E-33
   0.1000006333335073E+01
   0.4168023469855095E-34
   0.1000003075099896E+01
   0.2430249129648783E-32
   0.1000002610280878E+01
  -0.8206252771510206E-34
   0.1000002153610401E+01
   0.2059425320799835E-33
   0.1000002888356467E+01
  -0.9579614059883711E-35
   0.1000002896592857E+01
   0.6331423065681893E-33
   0.1000005883414629E+01
  -0.2150187964886320E-32
   0.1000001879149164E+01
  -0.2370904861823105E-34
   0.1000001358644904E+01
   0.4719399265283560E-33
   0.1000000166570653E+01
   0.2141876754311779E-32
   0.1000000598980553E+01
   0.1165057532799553E-32
   0.1000001103038875E+01
   0.3152685726967773E-33
   0.1000000584782962E+01
   0.1240475766208602E-32
   0.1000001543238893E+01
   0.9581004036109129E-34
   0.1000001718859083E+01
   0.1770885699489613E-33
   0.1000001226815793E+01
   0.2925822408360538E-33
   0.1000000793594809E+01
   0.3948711132169397E-33
   0.1000001466697863E+01
   0.1870534919580814E-33
   0.1000002039136889E+01
   0.1427992981598509E-35
   0.1000004196062680E+01
   0.2556839477492826E-33
   0.1000003196060467E+01
  -0.5045506807546217E-33
   0.1000001500539074E+01
  -0.5904068072502994E-34
   0.1000002008057957E+01
  -0.1543784822011438E-34
   0.1000003004278789E+01
   0.2326511347982915E-33
   0.9999987262110445E+00
   0.2262517483516318E-32
   0.1000003443775260E+01
   0.4128494739682201E-32
   0.1000000215454015E+01
  -0.1361256482981527E-33
   0.1000000919996998E+01
   0.8166361986550026E-33
   0.9999996470331679E+00
   0.4021334035577532E-32
   0.1000000217339222E+01
   0.7342389819683260E-33
   0.1000007150733040E+01
  -0.4152899258069577E-32
   0.1000005152064672E+01
  -0.8940637183231049E-33
   0.1000007010425270E+01
  -0.4845066536057196E-33
   0.1000000968244708E+01
   0.2550584336903257E-33
   0.1000001464148404E+01
   0.3237611869808508E-33
   0.1000000720647639E+01
   0.3747512463794195E-33
   0.1000000422453143E+01
  -0.2042038982525150E-33
   0.9999999975768415E+00
   0.1556754519988086E-33
   0.1000000824641312E+01
   0.3409056721836230E-33
   0.1000001079338644E+01
   0.2001395708400356E-33
   0.1000000956043141E+01
   0.1830844270525835E-33
   0.1000001362835490E+01
   0.1951014091551584E-33
   0.9999994188162827E+00
   0.5329582148620687E-32
   0.9999992369352820E+00
   0.1056830798385708E-31
   0.9999993317193114E+00
   0.4217947860036755E-32
   0.9999999715916360E+00
   0.9458943673315186E-34
   0.9999980421720854E+00
  -0.1975801459897078E-32
   0.9999985732014637E+00
   0.1995970000211332E-32
   0.1000000629623154E+01
   0.3648326742603094E-32
   0.9999997617636153E+00
   0.2014618895768571E-32
   0.9999936953728462E+00
  -0.1462848372182401E-32
   0.1000002060349773E+01
  -0.3779038741687496E-34
   0.1000001743618456E+01
   0.5569369611877228E-34
   0.1000001110505454E+01
   0.1874515646775853E-33
   0.1000000888140893E+01
   0.5933529328718037E-33
   0.9999957231235177E+00
   0.5944487125193737E-32
   0.9999938673214880E+00
   0.6064969019218857E-32
   0.9999969715242973E+00
   0.3495800567725039E-32
   0.1000001564513920E+01
   0.6056465320924604E-34
   0.1000001219325794E+01
   0.8047478569418700E-34
   0.1000000929976014E+01
   0.6181767737236040E-33
   0.1000000838752768E+01
   0.3806217022321915E-35
   0.1000001762288881E+01
  -0.6128283216525055E-32
   0.9999946525437580E+00
  -0.2631699623603266E-32
SCALARS u double 1
LOOKUP_TABLE default
   0.4999825459983641E+00
  -0.1713990527298537E-31
   0.5000062048655836E+00
   0.2499062181828164E-34
   0.5000311908373761E+00
  -0.3145724295788556E-32
   0.5000259195182095E+00
  -0.3965489982792310E-31
   0.5000072377308322E+00
  -0.2382174540511159E-31
   0.5000050927628942E+00
  -0.1293359381379775E-30
   0.5000129641894091E+00
  -0.8960914750080478E-31
   0.5000124662824179E+00
  -0.4750860395249909E-31
   0.5000135873415144E+00
   0.8671707834100591E-31
   0.5000303024964565E+00
  -0.3224828131089459E-33
   0.5000272405179701E+00
   0.4420605190148196E-32
   0.5000153271485130E+00
   0.1049445548249432E-30
   0.4999841396786210E+00
  -0.2766830633186059E-31
   0.4999807667028106E+00
  -0.2444595521561580E-32
   0.4999820908643261E+00
   0.9129140454956428E-32
   0.4999827244218013E+00
   0.1985136896175142E-31
   0.4999933630300522E+00
  -0.2221576858997332E-31
   0.5000361481415817E+00
   0.2746355207564678E-31
   0.5000295111937084E+00
  -0.4066226170791668E-31
   0.5000088173834969E+00
   0.3127685651618665E-31
   0.5000020067912059E+00
  -0.1388479600120884E-31
   0.4999923074884426E+00
   0.2456439056396996E-31
   0.5000115330271110E+00
  -0.4810681713888500E-31
   0.5000277437757146E+00
   0.6051131167338836E-31
   0.5000416467778250E+00
  -0.2208462660893936E-31
   0.5000391836538742E+00
   0.2504774333554197E-31
   0.5000334083838722E+00
  -0.4716720432302665E-31
   0.5000435468511057E+00
   0.3099926302707088E-31
   0.5000363555816276E+00
  -0.8175402575325033E-31
   0.5000212336755002E+00
   0.1460317922863094E-31
   0.5000320202797730E+00
  -0.4313144810001383E-31
   0.5000217536525969E+00
   0.1279306604900734E-31
   0.5000270004167591E+00
  -0.3974970000587469E-31
   0.5000039108726810E+00
  -0.5158188784640150E-32
   0.5000016691344042E+00
  -0.1445768436469756E-32
   0.5000006259706334E+00
  -0.2535266526889125E-33
   0.5000001292451097E+00
   0.5635165719353716E-34
   0.4999988053001266E+00
  -0.2578943345320860E-33
   0.4999979267322832E+00
  -0.2908941664490215E-33
   0.4999975730546715E+00
  -0.1456447782909690E-33
   0.4999983477399130E+00
   0.8906850642649633E-34
   0.4999975389729518E+00
   0.1582877046077331E-33
   0.4999957127243144E+00
   0.1278444476719106E-32
   0.4999918975639807E+00
   0.2715814530102836E-32
   0.4999965936509727E+00
  -0.9031140585500872E-32
   0.4999999348008936E+00
  -0.7774819888525326E-33
   0.5000125616347927E+00
  -0.1702263064392088E-31
   0.4999978493334982E+00
  -0.2309474695653011E-33
   0.4999987508074108E+00
  -0.8296084521869897E-33
   0.4999973899093926E+00
  -0.2489657712022514E-33
   0.4999974741909450E+00
  -0.5693237309873123E-33
   0.4999987278027861E+00
  -0.5665719735284995E-33
   0.5000018474780126E+00
  -0.2915033739582196E-32
   0.5000000255719980E+00
  -0.9715146356603431E-33
   0.4999990622859084E+00
  -0.5981922065391744E-33
   0.5000067822232193E+00
  -0.7415262682001486E-32
   0.5000053748854011E+00
  -0.8183292199261280E-32
   0.5000111323591475E+00
   0.5303950200933810E-32
   0.5000165897389512E+00
  -0.1429624490037326E-31
   0.5000031315391555E+00
  -0.1946522189935760E-32
   0.5000011848503074E+00
  -0.1780523823925123E-32
   0.5000001476269216E+00
  -0.1581724994596888E-34
   0.5000001375126190E+00
  -0.5717980452760182E-34
   0.5000000066641186E+00
  -0.1549554075848117E-33
   0.5000001436225416E+00
  -0.2687296875775289E-33
   0.5000005230492782E+00
  -0.2958790799074191E-33
   0.5000016276004499E+00
   0.7208736172683849E-33
   0.5000047180411925E+00
   0.8521457664413571E-32
   0.5000056305957555E+00
  -0.1114817481511395E-31
   0.5000005534406338E+00
  -0.1223587302229587E-33
   0.5000005595068213E+00
  -0.2823812113662652E-33
   0.5000061815133183E+00
   0.7994385136720482E-32
   0.5000032762440035E+00
  -0.1720086531707499E-31
   0.5000042125759353E+00
  -0.3061403950456799E-31
   0.5000046184456857E+00
  -0.6384694893693075E-32
   0.5000022151085554E+00
   0.9391558475421914E-33
   0.5000004840363625E+00
  -0.7069975104374586E-34
   0.5000010384465572E+00
  -0.2788483190830116E-33
   0.5000009580551946E+00
  -0.1052173068340458E-33
   0.5000007431057505E+00
  -0.2901017331957266E-33
   0.5000004531786237E+00
  -0.1481848877262035E-34
   0.5000027870339611E+00
  -0.4020370690806336E-32
   0.5000014322142058E+00
  -0.1422309086212234E-32
   0.5000032405116025E+00
   0.9597057393997353E-33
   0.5000024897656142E+00
  -0.6299295881159905E-33
   0.4999985758186558E+00
   0.3678391875793791E-34
   0.4999986029474118E+00
   0.7007994927888480E-34
   0.4999984676852377E+00
   0.4628921086988177E-34
   0.4999983049084120E+00
   0.3090561692009049E-35
   0.4999975343390725E+00
   0.2666781851670658E-34
   0.4999978388834930E+00
  -0.2136335738335687E-33
   0.4999987867683921E+00
  -0.3630619769204145E-33
   0.4999990062550398E+00
  -0.2443740946953608E-33
   0.4999978285694327E+00
  -0.9079907452946809E-35
   0.4999977772249545E+00
  -0.6923929464669692E-34
   0.4999989719814019E+00
  -0.3284447042844377E-33
   0.4999990045304935E+00
  -0.2999113487144577E-33
   0.4999992102590197E+00
  -0.2788642014340858E-33
   0.4999983483164298E+00
  -0.3184170807433731E-33
   0.4999980885546548E+00
  -0.3791609026227333E-33
   0.4999980845651709E+00
   0.2028634800048348E-34
   0.4999976138865748E+00
  -0.1971961382513066E-33
   0.4999975734941071E+00
  -0.8447442844679875E-34
   0.4999979666986860E+00
  -0.3557899051398723E-34
   0.4999983057486784E+00
  -0.2370425161034846E-33
   0.4999977869112234E+00
  -0.2262545711320810E-33
   0.4999977230469640E+00
  -0.2156106192829994E-33
   0.4999981936314565E+00
  -0.3244304367650516E-33
   0.4999906568807063E+00
  -0.8484780822413871E-32
   0.4999953900381004E+00
  -0.1291324062646754E-32
   0.4999973539608301E+00
  -0.2484930683912466E-33
   0.4999976993613675E+00
   0.1430584849750075E-33
   0.4999865759631640E+00
  -0.1258816036418341E-31
   0.4999898091253981E+00
   0.5968869487800043E-32
   0.4999975202583561E+00
  -0.2584153979590848E-33
   0.4999977524510434E+00
  -0.7283485231966068E-34
   0.4999979987333404E+00
   0.8711432606190930E-34
   0.4999968038853957E+00
   0.1634144658762570E-33
   0.4999957289446340E+00
  -0.8766599791093181E-33
   0.4999860958990404E+00
   0.9199487161548435E-32
   0.4999923506695809E+00
   0.1949219199003037E-33
   0.4999936554998233E+00
  -0.1743622533716481E-32
   0.4999878973160215E+00
   0.1425901272138952E-31
   0.4999967418512512E+00
   0.4036203904536139E-33
   0.4999947824256050E+00
   0.1400163818065458E-32
   0.4999940393775510E+00
   0.1107924935793407E-32
   0.4999961716020240E+00
  -0.1198484110952717E-33
   0.4999998550647756E+00
   0.1969408909379635E-31
   0.5000000164889452E+00
  -0.2642885826113324E-33
   0.5000156248433968E+00
   0.2641575477448717E-31
   0.4999977345959680E+00
  -0.2830169281030700E-34
   0.4999986819302946E+00
   0.8471836766453805E-33
   0.4999971383517067E+00
   0.3775563572224866E-33
   0.4999974136384144E+00
   0.2572336811926915E-32
   0.4999987133782516E+00
  -0.1434317164616106E-33
   0.5000018152556271E+00
   0.3861158085880896E-34
   0.5000001671013268E+00
  -0.1289041300969070E-34
   0.4999990891216416E+00
  -0.2649108353191207E-33
   0.5000072970188738E+00
   0.1833911070612775E-32
   0.5000058271331062E+00
   0.3950110197234667E-32
   0.5000145429147869E+00
   0.6433755381887850E-31
   0.5000173446176251E+00
  -0.1895286062106506E-32
   0.5000038273529008E+00
   0.9983780445828495E-32
   0.5000013561517180E+00
   0.1068326172041841E-32
   0.5000010898992864E+00
  -0.8405789619829355E-33
   0.4999985415382531E+00
   0.3897909952154498E-33
   0.4999987918491547E+00
  -0.2653438849841548E-33
   0.4999998930631153E+00
  -0.6267536067030229E-33
   0.4999963903798283E+00
   0.1351503880873869E-33
   0.4999950158883487E+00
   0.1542281559136716E-32
   0.5000006452238185E+00
  -0.5149596401987707E-32
   0.4999973651620798E+00
   0.8994288481507283E-36
   0.4999982670013002E+00
  -0.4812853412163665E-33
   0.4999972233047331E+00
  -0.2182447272155130E-33
   0.4999994053922896E+00
  -0.2393847062457302E-32
   0.4999988412483281E+00
  -0.6080023763654467E-32
   0.4999980481390603E+00
  -0.1776944991727507E-33
   0.5000004059747082E+00
  -0.1521145154335520E-32
   0.5000056896794418E+00
  -0.3976445293994005E-32
   0.5000025936190052E+00
  -0.3413876049998149E-32
   0.5000004255504172E+00
  -0.8464603358760385E-33
   0.5000033044507122E+00
  -0.3322013398445936E-32
   0.4999988024248325E+00
  -0.2528735035590145E-33
   0.4999984719243090E+00
  -0.2246981152611453E-33
   0.4999992378721486E+00
  -0.5135721840496160E-33
   0.5000020033594396E+00
  -0.4122858917247201E-33
   0.5000003793759754E+00
   0.2432902017703591E-33
   0.4999979582845662E+00
  -0.1411566445843868E-33
   0.4999960952371477E+00
   0.1868731093532665E-32
   0.4999990100693589E+00