title="tecplot geometry and solution file"
variables = x y z rho u v w p mach temperature
zone t="boundary 1 bc-1", solutiontime= 0.2000000E+02, strandid=1001, i=32, j=46, f=feblock
 -0.547472452772E-02 -0.148255987659E-17 -0.567610116354E-02 -0.148255987659E-17 -0.148255987659E-17 -0.148255987659E-17 -0.525162568575E-02
 -0.425778988008E-02 -0.148255987659E-17 -0.148255987659E-17 -0.148255987659E-17 -0.148255987659E-17 -0.148255987659E-17 -0.148255987659E-17
 -0.148255987659E-17 -0.148255987659E-17 -0.338396965251E-02 -0.148255987659E-17 -0.148255987659E-17 -0.148255987659E-17 -0.148255987659E-17
 -0.148255987659E-17 -0.148255987659E-17 -0.148255987659E-17 -0.148255987659E-17 -0.148255987659E-17 -0.148255987659E-17 -0.148255987659E-17
 -0.148255987659E-17 -0.148255987659E-17 -0.148255987659E-17 -0.148255987659E-17
  0.250494200518E+01  0.250494200518E+01  0.127822174353E+01  0.146289271009E+01  0.157686156160E+01  0.308372018325E+00  0.261950149565E-01
 -0.122573467301E+01 -0.600232012419E+00  0.250494200518E+01  0.477386199275E+00  0.742988685424E+00 -0.739814786992E+00  0.177790177481E+01
  0.155830813274E+01  0.250494200518E+01 -0.249658901620E+01 -0.154800130438E+01 -0.487811078581E+00  0.250494200518E+01  0.627766083140E+00
 -0.345533899378E+00 -0.178862290564E+01 -0.158811787973E+01  0.125000000000E+01 -0.249658901620E+01 -0.144524380962E+01 -0.148255987659E-17
 -0.125000000000E+01 -0.249658901620E+01 -0.249658901620E+01 -0.249658901620E+01
  0.803216924783E-04  0.125000000000E+01  0.822205278517E-04  0.103724302461E+01  0.219251206392E+01  0.922061490191E+00  0.103877881505E-03
  0.341876513122E-04  0.715990576545E+00  0.250000000000E+01  0.202479342020E+01  0.324151231464E+01  0.175434191980E+01  0.310152362409E+01
  0.404200324774E+01  0.375000000000E+01  0.811362586350E-04  0.930412228790E+00  0.299062775774E+01  0.500000000000E+01  0.429310310915E+01
  0.409252726285E+01  0.187029682677E+01  0.284428995242E+01  0.500000000000E+01  0.125000000000E+01  0.394624082883E+01  0.500000000000E+01
  0.500000000000E+01  0.250000000000E+01  0.375000000000E+01  0.500000000000E+01
  0.100001340029E+01  0.100000779260E+01  0.100001494089E+01  0.100000910548E+01  0.100000488436E+01  0.100001007367E+01  0.100002056628E+01
  0.100002731614E+01  0.100001278994E+01  0.100000412639E+01  0.100000565208E+01  0.100000311958E+01  0.100000677386E+01  0.100000320648E+01
  0.100000210348E+01  0.100000237525E+01  0.100002090563E+01  0.100001124740E+01  0.100000359066E+01  0.100000143090E+01  0.100000194248E+01
  0.100000216385E+01  0.100000644444E+01  0.100000378930E+01  0.100000136114E+01  0.100000925261E+01  0.100000228687E+01  0.100000133204E+01
  0.100000139825E+01  0.100000442426E+01  0.100000251142E+01  0.100000147495E+01
  0.499982546294E+00  0.499991897325E+00  0.499982722812E+00  0.499989807825E+00  0.499994782654E+00  0.499987897438E+00  0.499982091611E+00
  0.499980765908E+00  0.499986095208E+00  0.499995712552E+00  0.499994039503E+00  0.499996803807E+00  0.499992348255E+00  0.499996741610E+00
  0.499997699241E+00  0.499997538597E+00  0.499984140374E+00  0.499986578028E+00  0.499996171809E+00  0.499998346458E+00  0.499997998343E+00
  0.499997752552E+00  0.499993656064E+00  0.499995729513E+00  0.499998575835E+00  0.499990654231E+00  0.499997520004E+00  0.499998602775E+00
  0.499998467699E+00  0.499995390423E+00  0.499997353646E+00  0.499998303867E+00
  0.000000000000E+00  0.000000000000E+00  0.141669528710E-05  0.439431710438E-06  0.673714872775E-07  0.170310752581E-05  0.362838157802E-05
  0.340783011714E-06  0.265454921882E-05  0.000000000000E+00 -0.158500953694E-06 -0.166705684370E-07  0.440992869282E-06  0.695882054681E-07
  0.739213276770E-07  0.000000000000E+00  0.000000000000E+00  0.685008288872E-07 -0.217671523031E-06  0.000000000000E+00 -0.700703405933E-08
 -0.120415304384E-07  0.313436027454E-07 -0.100554074671E-06 -0.781468300850E-07  0.000000000000E+00 -0.265978749341E-07 -0.142035974658E-07
  0.647075705129E-07  0.000000000000E+00  0.000000000000E+00  0.000000000000E+00
  0.441209616752E-05  0.923204340994E-06  0.503089529760E-05  0.147385853308E-05  0.728981889568E-06  0.187713295972E-06  0.490411250029E-05
  0.145249628681E-04  0.422574021322E-05  0.150279909414E-06  0.240339269342E-06  0.656392767135E-07 -0.310957054607E-06  0.185551211463E-06
  0.340588459301E-06  0.558785855773E-07  0.102194977515E-04  0.525428002342E-05  0.121554894433E-06  0.901486451501E-06  0.350566509653E-06
  0.300384999626E-06  0.743163391256E-06 -0.400138211539E-07  0.948214881986E-06  0.296430184877E-05  0.337255848894E-06  0.821869833392E-06
  0.781597833881E-06  0.189126337302E-06  0.266282601780E-07  0.833560504456E-06
  0.714299114353E+00  0.714293506999E+00  0.714300655313E+00  0.714294819691E+00  0.714290598742E+00  0.714295787463E+00  0.714306280571E+00
  0.714313030431E+00  0.714298503996E+00  0.714289840654E+00  0.714291366682E+00  0.714288833807E+00  0.714292488146E+00  0.714288920764E+00
  0.714287817591E+00  0.714288089442E+00  0.714306620280E+00  0.714296962360E+00  0.714289304924E+00  0.714287145595E+00  0.714287656734E+00
  0.714287878076E+00  0.714292158702E+00  0.714289503628E+00  0.714287075581E+00  0.714294966017E+00  0.714288001198E+00  0.714287046368E+00
  0.714287112512E+00  0.714290138699E+00  0.714288225649E+00  0.714287189231E+00
  0.499981206434E+00  0.499991118046E+00  0.499981228783E+00  0.499988897334E+00  0.499994294192E+00  0.499986890285E+00  0.499980035148E+00
  0.499978034705E+00  0.499984816376E+00  0.499995299927E+00  0.499993474195E+00  0.499996491873E+00  0.499991670886E+00  0.499996420966E+00
  0.499997488956E+00  0.499997301105E+00  0.499982049912E+00  0.499985453126E+00  0.499995812756E+00  0.499998203227E+00  0.499997804109E+00
  0.499997536191E+00  0.499993011642E+00  0.499995350574E+00  0.499998439667E+00  0.499989729315E+00  0.499997291304E+00  0.499998469558E+00
  0.499998327883E+00  0.499994947949E+00  0.499997102527E+00  0.499998156374E+00
  0.100000535973E+01  0.100000311718E+01  0.100000597646E+01  0.100000364206E+01  0.100000195387E+01  0.100000402873E+01  0.100000822635E+01
  0.100001092617E+01  0.100000511559E+01  0.100000165051E+01  0.100000226126E+01  0.100000124775E+01  0.100000270953E+01  0.100000128259E+01
  0.100000084115E+01  0.100000094997E+01  0.100000836258E+01  0.100000449985E+01  0.100000143623E+01  0.100000057293E+01  0.100000077694E+01
  0.100000086545E+01  0.100000257773E+01  0.100000151577E+01  0.100000054468E+01  0.100000369978E+01  0.100000091480E+01  0.100000053287E+01
  0.100000055927E+01  0.100000176991E+01  0.100000100448E+01  0.100000058998E+01
        12        19        11        11
        11         5        12        12
        10        14         5         5
        19        13        11        11
        19        24        13        13
        30        23        24        24
        19        12        22        22
        28        22        21        21
        11        13         6         6
         7         6         9         9
        15        12        14        14
        18        13        23        23
        15        25        21        21
        27        19        22        22
        18         8         9         9
        27        31        24        24
         4        11         6         6
         5        14        12        12
         4         2         5         5
        21        12        15        15
        14        16        15        15
        24        19        27        27
        22        29        27        27
        23        26        18        18
        17         8        18        18
         5        11         4         4
         6         3         4         4
        26        23        30        30
         5         2        10        10
        16        14        10        10
         3         6         7         7
        21        25        28        28
        29        22        28        28
         6        13         9         9
         2         4         1         1
        31        27        32        32
        25        15        20        20
        24        23        13        13
         8         7         9         9
        13        18         9         9
        31        30        24        24
        12        21        22        22
        29        32        27        27
         3         1         4         4
        26        17        18        18
        16        20        15        15
zone t="boundary 2 bc-2", solutiontime= 0.2000000E+02, strandid=1002, i=33, j=48, f=feblock
  0.500195255313E+01  0.375034812201E+01  0.249861146354E+01  0.288036675733E+01  0.124717526151E+01  0.190856699606E+01  0.326577190793E+01
  0.201394857590E+01 -0.338396965251E-02  0.962374261034E+00  0.500000000000E+01  0.403430190133E+01  0.423029563300E+01  0.500000000000E+01
  0.385439188555E+01  0.500000000000E+01  0.398133432910E+01  0.315200081434E+01  0.266958029510E+01  0.154798030854E+01  0.218327860925E+01
  0.893688451288E+00 -0.148255987659E-17  0.699009769630E+00  0.964460904435E+00  0.310303671669E+01 -0.148255987659E-17 -0.148255987659E-17
  0.125000000000E+01  0.500000000000E+01  0.375000000000E+01  0.250000000000E+01 -0.148255987659E-17
 -0.249658901620E+01 -0.249658901620E+01 -0.249658901620E+01 -0.249658901620E+01 -0.249658901620E+01 -0.249658901620E+01 -0.249658901620E+01
 -0.249658901620E+01 -0.249658901620E+01 -0.249658901620E+01 -0.249658901620E+01 -0.249658901620E+01 -0.249658901620E+01 -0.249658901620E+01
 -0.249658901620E+01 -0.249658901620E+01 -0.249658901620E+01 -0.249658901620E+01 -0.249658901620E+01 -0.249658901620E+01 -0.249658901620E+01
 -0.249658901620E+01 -0.249658901620E+01 -0.249658901620E+01 -0.249658901620E+01 -0.249658901620E+01 -0.249658901620E+01 -0.249658901620E+01
 -0.249658901620E+01 -0.249658901620E+01 -0.249658901620E+01 -0.249658901620E+01 -0.249658901620E+01
  0.108209237191E-03  0.145875487893E-03  0.100909957516E-03  0.901663357824E+00  0.110895828141E-03  0.714928325670E+00  0.188140643916E+01
  0.175892163457E+01  0.811362586350E-04  0.957504305816E+00  0.125000000000E+01  0.100596693416E+01  0.191313516265E+01  0.250000000000E+01
  0.292898094244E+01  0.375000000000E+01  0.406883368474E+01  0.363389287837E+01  0.284756858001E+01  0.292582306272E+01  0.395754053293E+01
  0.205027256174E+01  0.125000000000E+01  0.306703271839E+01  0.397155765835E+01  0.433068621090E+01  0.250000000000E+01  0.375000000000E+01
  0.500000000000E+01  0.500000000000E+01  0.500000000000E+01  0.500000000000E+01  0.500000000000E+01
  0.999999100524E+00  0.999995782606E+00  0.999994411035E+00  0.999998224585E+00  0.999999420179E+00  0.100000004381E+01  0.999999545647E+00
  0.100000162826E+01  0.100002090563E+01  0.100000547332E+01  0.100000226309E+01  0.999998650142E+00  0.100000049261E+01  0.100000153012E+01
  0.100000080928E+01  0.100000095973E+01  0.100000104846E+01  0.100000121646E+01  0.100000133197E+01  0.100000242391E+01  0.100000176327E+01
  0.100000408173E+01  0.100000925261E+01  0.100000316869E+01  0.100000226804E+01  0.100000139577E+01  0.100000442426E+01  0.100000251142E+01
  0.100000184714E+01  0.100000073866E+01  0.100000125266E+01  0.100000170498E+01  0.100000147495E+01
  0.500013570641E+00  0.500030273880E+00  0.500027241249E+00  0.500017355978E+00  0.500015335308E+00  0.500014545684E+00  0.500007302466E+00
  0.500003824463E+00  0.499984140374E+00  0.499999853451E+00  0.500004732526E+00  0.500015646694E+00  0.500005838092E+00  0.500001627241E+00
  0.500001808667E+00  0.500000518765E+00  0.500000014686E+00  0.500000164947E+00  0.500001353384E+00  0.499998681998E+00  0.499998712889E+00
  0.499997412751E+00  0.499990654231E+00  0.499997138912E+00  0.499997734592E+00  0.499999090169E+00  0.499995390423E+00  0.499997353646E+00
  0.499997534011E+00  0.500000150279E+00  0.499998799386E+00  0.499997842202E+00  0.499998303867E+00
  0.000000000000E+00  0.000000000000E+00  0.000000000000E+00  0.000000000000E+00  0.000000000000E+00  0.000000000000E+00  0.000000000000E+00
  0.000000000000E+00  0.000000000000E+00  0.000000000000E+00  0.000000000000E+00  0.000000000000E+00  0.000000000000E+00  0.000000000000E+00
  0.000000000000E+00  0.000000000000E+00  0.000000000000E+00  0.000000000000E+00  0.000000000000E+00  0.000000000000E+00  0.000000000000E+00
  0.000000000000E+00  0.000000000000E+00  0.000000000000E+00  0.000000000000E+00  0.000000000000E+00  0.000000000000E+00  0.000000000000E+00
  0.000000000000E+00  0.000000000000E+00  0.000000000000E+00  0.000000000000E+00  0.000000000000E+00
 -0.143678115103E-04 -0.144168190182E-05  0.641944895316E-05  0.437089781493E-05  0.121721727850E-04  0.100759605765E-04  0.235724500011E-05
  0.613619883917E-05  0.102194977515E-04  0.104212158517E-04 -0.386547084697E-05 -0.177192806979E-05  0.878729622909E-07  0.133065901062E-05
  0.154896317726E-05  0.192654825915E-05  0.167959026813E-05  0.224017143861E-05  0.312092875348E-05  0.381232244647E-05  0.239962914319E-05
  0.447176992328E-05  0.296430184877E-05  0.187574270503E-05  0.182918153351E-05  0.195067221126E-05  0.189126337302E-06  0.266282601780E-07
  0.177141478217E-05  0.112439371260E-05  0.132837365034E-05  0.170083104594E-05  0.833560504456E-06
  0.714284813638E+00  0.714281495450E+00  0.714280123721E+00  0.714283938874E+00  0.714285132847E+00  0.714285758377E+00  0.714285260390E+00
  0.714287342825E+00  0.714306620280E+00  0.714291187948E+00  0.714287977654E+00  0.714284364243E+00  0.714286207339E+00  0.714287244883E+00
  0.714286523889E+00  0.714286673858E+00  0.714286762358E+00  0.714286930793E+00  0.714287046209E+00  0.714288137870E+00  0.714287477574E+00
  0.714289795730E+00  0.714294966017E+00  0.714288883015E+00  0.714287982439E+00  0.714287110076E+00  0.714290138699E+00  0.714288225649E+00
  0.714287561393E+00  0.714286452802E+00  0.714286966756E+00  0.714287419133E+00  0.714287189231E+00
  0.500013661208E+00  0.500030696154E+00  0.500027800781E+00  0.500017533544E+00  0.500015394007E+00  0.500014541305E+00  0.500007347748E+00
  0.500003661576E+00  0.499982049912E+00  0.499999306112E+00  0.500004506131E+00  0.500015781752E+00  0.500005788675E+00  0.500001474062E+00
  0.500001727628E+00  0.500000422851E+00  0.499999909979E+00  0.500000043289E+00  0.500001220214E+00  0.499998439737E+00  0.499998536562E+00
  0.499997004703E+00  0.499989729315E+00  0.499996822035E+00  0.499997507754E+00  0.499998950590E+00  0.499994947949E+00  0.499997102527E+00
  0.499997349313E+00  0.500000076465E+00  0.499998674190E+00  0.499997671754E+00  0.499998156374E+00
  0.999999638570E+00  0.999998311016E+00  0.999997762162E+00  0.999999289838E+00  0.999999765806E+00  0.100000001792E+01  0.999999818898E+00
  0.100000065170E+01  0.100000836258E+01  0.100000218980E+01  0.100000090563E+01  0.999999459797E+00  0.100000019766E+01  0.100000061272E+01
  0.100000032417E+01  0.100000038367E+01  0.100000041884E+01  0.100000048665E+01  0.100000053272E+01  0.100000096911E+01  0.100000070533E+01
  0.100000163228E+01  0.100000369978E+01  0.100000126753E+01  0.100000090737E+01  0.100000055833E+01  0.100000176991E+01  0.100000100448E+01
  0.100000073881E+01  0.100000029526E+01  0.100000050079E+01  0.100000068181E+01  0.100000058998E+01
        15         7        19        19
         8        20        19        19
        18        19        21        21
         7         4         8         8
         3         6         4         4
        19         7         8         8
        19        18        15        15
        14        13        15        15
         8        22        20        20
        27        24        22        22
        19        20        21        21
        32        26        21        21
        17        18        26        26
        17        16        15        15
        25        29        21        21
        12         7        13        13
        10         8         6         6
        25        20        24        24
         4         6         8         8
        12         2         4         4
        10        23        22        22
        26        31        17        17
        30        16        17        17
         4         7        12        12
        13        11        12        12
        21        20        25        25
        24        28        25        25
        22         8        10        10
         6         5        10        10
        31        26        32        32
         4         2         3         3
         5         6         3         3
        11        13        14        14
        22        23        27        27
        28        24        27        27
        15        13         7         7
         2        12         1         1
        29        25        33        33
        23        10         9         9
        21        26        18        18
        16        14        15        15
        18        17        15        15
        29        32        21        21
        22        24        20        20
        28        33        25        25
        11         1        12        12
        31        30        17        17
         5         9        10        10
zone t="boundary 3 bc-3", solutiontime= 0.2000000E+02, strandid=1003, i=33, j=48, f=feblock
  0.375059100022E+01  0.249769609016E+01  0.500322139356E+01  0.403612222763E+01  0.287976775181E+01  0.124541907693E+01  0.190552236756E+01
  0.500000000000E+01  0.326671106333E+01  0.423253756071E+01  0.201271138087E+01 -0.547472452772E-02  0.958895628158E+00  0.500000000000E+01
  0.266968148532E+01  0.385584487668E+01  0.890374213116E+00  0.154654014519E+01 -0.148255987659E-17  0.500000000000E+01  0.315261137241E+01
  0.218304200095E+01  0.398195307874E+01 -0.148255987659E-17  0.697379955531E+00  0.963757281441E+00  0.125000000000E+01 -0.148255987659E-17
  0.500000000000E+01  0.310330738720E+01  0.250000000000E+01  0.375000000000E+01 -0.148255987659E-17
  0.250494200518E+01  0.250494200518E+01  0.250494200518E+01  0.250494200518E+01  0.250494200518E+01  0.250494200518E+01  0.250494200518E+01
  0.250494200518E+01  0.250494200518E+01  0.250494200518E+01  0.250494200518E+01  0.250494200518E+01  0.250494200518E+01  0.250494200518E+01
  0.250494200518E+01  0.250494200518E+01  0.250494200518E+01  0.250494200518E+01  0.250494200518E+01  0.250494200518E+01  0.250494200518E+01
  0.250494200518E+01  0.250494200518E+01  0.250494200518E+01  0.250494200518E+01  0.250494200518E+01  0.250494200518E+01  0.250494200518E+01
  0.250494200518E+01  0.250494200518E+01  0.250494200518E+01  0.250494200518E+01  0.250494200518E+01
  0.135457002285E-03  0.109983637804E-03  0.964506780630E-04  0.101756739734E+01  0.908094462101E+00  0.103842397884E-03  0.722629008326E+00
  0.125000000000E+01  0.188965653795E+01  0.191862692309E+01  0.176708233165E+01  0.803216924783E-04  0.969652538178E+00  0.250000000000E+01
  0.285339429033E+01  0.293325055335E+01  0.205656222194E+01  0.293157014693E+01  0.125000000000E+01  0.375000000000E+01  0.363766836446E+01
  0.396069443367E+01  0.407056384269E+01  0.250000000000E+01  0.307031994182E+01  0.397359819531E+01  0.500000000000E+01  0.375000000000E+01
  0.500000000000E+01  0.433260780167E+01  0.500000000000E+01  0.500000000000E+01  0.500000000000E+01
  0.999994908921E+00  0.999987717464E+00  0.100000374991E+01  0.999998860744E+00  0.999997993647E+00  0.100000689768E+01  0.100000016067E+01
  0.100000177090E+01  0.999999735617E+00  0.100000011807E+01  0.100000150599E+01  0.100001340029E+01  0.100000598561E+01  0.100000123150E+01
  0.100000117874E+01  0.100000071353E+01  0.100000353373E+01  0.100000243496E+01  0.100000779260E+01  0.100000084842E+01  0.100000115556E+01
  0.100000171223E+01  0.100000096149E+01  0.100000412639E+01  0.100000289644E+01  0.100000212539E+01  0.100000178151E+01  0.100000237525E+01
  0.100000068738E+01  0.100000132932E+01  0.100000166283E+01  0.100000118690E+01  0.100000143090E+01
  0.500025910500E+00  0.500031185269E+00  0.500007233408E+00  0.500012581120E+00  0.500016599677E+00  0.500006204300E+00  0.500011130468E+00
  0.500003921544E+00  0.500006782757E+00  0.500005377898E+00  0.500003130222E+00  0.499982546294E+00  0.499996592588E+00  0.500001667503E+00
  0.500001185171E+00  0.500001838331E+00  0.499997474290E+00  0.499998752592E+00  0.499991897325E+00  0.500000621309E+00  0.500000026524E+00
  0.499998727387E+00  0.499999930852E+00  0.499995712552E+00  0.499997389888E+00  0.499997848672E+00  0.499997570983E+00  0.499997538597E+00
  0.500000138773E+00  0.499999061906E+00  0.499997928729E+00  0.499998821991E+00  0.499998346458E+00
  0.000000000000E+00  0.000000000000E+00  0.000000000000E+00  0.000000000000E+00  0.000000000000E+00  0.000000000000E+00  0.000000000000E+00
  0.000000000000E+00  0.000000000000E+00  0.000000000000E+00  0.000000000000E+00  0.000000000000E+00  0.000000000000E+00  0.000000000000E+00
  0.000000000000E+00  0.000000000000E+00  0.000000000000E+00  0.000000000000E+00  0.000000000000E+00  0.000000000000E+00  0.000000000000E+00
  0.000000000000E+00  0.000000000000E+00  0.000000000000E+00  0.000000000000E+00  0.000000000000E+00  0.000000000000E+00  0.000000000000E+00
  0.000000000000E+00  0.000000000000E+00  0.000000000000E+00  0.000000000000E+00  0.000000000000E+00
 -0.335077070678E-05  0.593699819363E-05 -0.105773946589E-04 -0.495606823059E-05  0.139481521945E-05  0.196084102111E-04  0.107093628359E-04
 -0.392333997808E-05  0.165622651954E-05 -0.726318086174E-06  0.495741015975E-05  0.441209616752E-05  0.767457767755E-05  0.423764706978E-06
  0.272455907698E-05  0.122790372980E-05  0.375940718387E-05  0.312131593579E-05  0.923204340994E-06  0.154451084003E-05  0.197936345441E-05
  0.233156090265E-05  0.150346635128E-05  0.150279909414E-06  0.165905680959E-05  0.166010535564E-05  0.171959179433E-05  0.558785855773E-07
  0.106060537288E-05  0.181689088421E-05  0.166883642960E-05  0.123702758510E-05  0.901486451501E-06
  0.714280623895E+00  0.714273432543E+00  0.714289464826E+00  0.714284574833E+00  0.714283708564E+00  0.714292612512E+00  0.714285874976E+00
  0.714287485094E+00  0.714285449717E+00  0.714285832708E+00  0.714287220126E+00  0.714299114353E+00  0.714291699782E+00  0.714286946176E+00
  0.714286892784E+00  0.714286428278E+00  0.714289248109E+00  0.714288149222E+00  0.714293506999E+00  0.714286562808E+00  0.714286869690E+00
  0.714287426665E+00  0.714286675771E+00  0.714289840654E+00  0.714288610683E+00  0.714287839675E+00  0.714287495946E+00  0.714288089442E+00
  0.714286401027E+00  0.714287043899E+00  0.714287376772E+00  0.714286900267E+00  0.714287145595E+00
  0.500026419408E+00  0.500032413376E+00  0.500006858305E+00  0.500012695143E+00  0.500016800100E+00  0.500005514724E+00  0.500011114509E+00
  0.500003744501E+00  0.500006809263E+00  0.500005365969E+00  0.500002979700E+00  0.499981206434E+00  0.499995994134E+00  0.500001544217E+00
  0.500001067388E+00  0.500001766817E+00  0.499997120901E+00  0.499998509115E+00  0.499991118046E+00  0.500000536434E+00  0.499999911027E+00
  0.499998556117E+00  0.499999834708E+00  0.499995299927E+00  0.499997100266E+00  0.499997636138E+00  0.499997392784E+00  0.499997301105E+00
  0.500000070260E+00  0.499998928875E+00  0.499997762572E+00  0.499998703625E+00  0.499998203227E+00
  0.999997964521E+00  0.999995088036E+00  0.100000150084E+01  0.999999544022E+00  0.999999198342E+00  0.100000275981E+01  0.100000006429E+01
  0.100000070823E+01  0.999999893987E+00  0.100000004772E+01  0.100000060218E+01  0.100000535973E+01  0.100000239407E+01  0.100000049314E+01
  0.100000047116E+01  0.100000028606E+01  0.100000141362E+01  0.100000097395E+01  0.100000311718E+01  0.100000033951E+01  0.100000046200E+01
  0.100000068510E+01  0.100000038459E+01  0.100000165051E+01  0.100000115851E+01  0.100000085015E+01  0.100000071281E+01  0.100000094997E+01
  0.100000027406E+01  0.100000053214E+01  0.100000066464E+01  0.100000047347E+01  0.100000057293E+01
        15         9        16        16
        15        18        11        11
        22        15        21        21
        11         5         9         9
         5         7         2         2
        11         9        15        15
        16        21        15        15
        16        10        14        14
        18        17        11        11
        17        25        24        24
        22        18        15        15
        22        30        31        31
        30        21        23        23
        16        20        23        23
        22        27        26        26
        10         9         4         4
         7        11        13        13
        25        18        26        26
        11         7         5         5
         5         1         4         4
        17        19        13        13
        23        32        30        30
        23        20        29        29
         4         9         5         5
         4         8        10        10
        26        18        22        22
        26        28        25        25
        13        11        17        17
        13         6         7         7
        31        30        32        32
         2         1         5         5
         2         7         6         6
        14        10         8         8
        24        19        17        17
        24        25        28        28
         9        10        16        16
         3         4         1         1
        33        26        27        27
        12        13        19        19
        21        30        22        22
        16        14        20        20
        16        23        21        21
        22        31        27        27
        18        25        17        17
        26        33        28        28
         4         3         8         8
        23        29        32        32
        13        12         6         6
zone t="boundary 4 bc-4", solutiontime= 0.2000000E+02, strandid=1004, i=32, j=46, f=feblock
  0.125000000000E+01  0.219251206392E+01  0.103724302461E+01  0.500000000000E+01  0.250000000000E+01  0.375000000000E+01  0.404200324774E+01
  0.500000000000E+01 -0.148255987659E-17  0.310152362409E+01  0.202479342020E+01  0.324151231464E+01  0.922061490191E+00 -0.148255987659E-17
  0.299062775774E+01  0.394624082883E+01  0.500000000000E+01  0.409252726285E+01  0.500000000000E+01  0.429310310915E+01  0.175434191980E+01
  0.284428995242E+01 -0.148255987659E-17 -0.148255987659E-17  0.715990576545E+00  0.930412228790E+00  0.125000000000E+01  0.187029682677E+01
  0.500000000000E+01  0.375000000000E+01  0.250000000000E+01 -0.148255987659E-17
  0.250494200518E+01  0.157686156160E+01  0.146289271009E+01  0.250494200518E+01  0.250494200518E+01  0.250494200518E+01  0.155830813274E+01
  0.125000000000E+01  0.250494200518E+01  0.177790177481E+01  0.477386199275E+00  0.742988685424E+00  0.308372018325E+00  0.125000000000E+01
 -0.487811078581E+00 -0.144524380962E+01 -0.125000000000E+01 -0.345533899378E+00 -0.148255987659E-17  0.627766083140E+00 -0.739814786992E+00
 -0.158811787973E+01 -0.148255987659E-17 -0.125000000000E+01 -0.600232012419E+00 -0.154800130438E+01 -0.249658901620E+01 -0.178862290564E+01
 -0.249658901620E+01 -0.249658901620E+01 -0.249658901620E+01 -0.249658901620E+01
  0.500000000000E+01  0.500000000000E+01  0.500000000000E+01  0.500000000000E+01  0.500000000000E+01  0.500000000000E+01  0.500000000000E+01
  0.500000000000E+01  0.500000000000E+01  0.500000000000E+01  0.500000000000E+01  0.500000000000E+01  0.500000000000E+01  0.500000000000E+01
  0.500000000000E+01  0.500000000000E+01  0.500000000000E+01  0.500000000000E+01  0.500000000000E+01  0.500000000000E+01  0.500000000000E+01
  0.500000000000E+01  0.500000000000E+01  0.500000000000E+01  0.500000000000E+01  0.500000000000E+01  0.500000000000E+01  0.500000000000E+01
  0.500000000000E+01  0.500000000000E+01  0.500000000000E+01  0.500000000000E+01
  0.100000178151E+01  0.100000172893E+01  0.100000163631E+01  0.100000068738E+01  0.100000166283E+01  0.100000118690E+01  0.100000108327E+01
  0.100000067027E+01  0.100000143090E+01  0.100000143859E+01  0.100000176878E+01  0.100000143203E+01  0.100000155417E+01  0.100000136114E+01
  0.100000154665E+01  0.100000112430E+01  0.100000066268E+01  0.100000112546E+01  0.100000066506E+01  0.100000101576E+01  0.100000187444E+01
  0.100000160737E+01  0.100000133204E+01  0.100000139825E+01  0.100000150637E+01  0.100000163446E+01  0.100000184714E+01  0.100000186041E+01
  0.100000073866E+01  0.100000125266E+01  0.100000170498E+01  0.100000147495E+01
  0.499997570983E+00  0.499997787940E+00  0.499997777026E+00  0.500000138773E+00  0.499997928729E+00  0.499998821991E+00  0.499999022916E+00
  0.500000154833E+00  0.499998346458E+00  0.499998312221E+00  0.499997724850E+00  0.499998351723E+00  0.499997966898E+00  0.499998575835E+00
  0.499998198883E+00  0.499998985286E+00  0.500000012617E+00  0.499999010914E+00  0.500000140440E+00  0.499999217429E+00  0.499997614971E+00
  0.499998095819E+00  0.499998602775E+00  0.499998467699E+00  0.499998084723E+00  0.499997827843E+00  0.499997534011E+00  0.499997574460E+00
  0.500000150279E+00  0.499998799386E+00  0.499997842202E+00  0.499998303867E+00
  0.000000000000E+00 -0.745960186808E-07 -0.825662818202E-07  0.000000000000E+00  0.000000000000E+00  0.000000000000E+00  0.789548171301E-07
  0.859609298885E-07  0.000000000000E+00 -0.131459606551E-07  0.353788933458E-07  0.313322911202E-07  0.395748267469E-07 -0.781468300850E-07
  0.649218663961E-07 -0.133109032177E-07  0.214591893163E-07 -0.120424231332E-07  0.333036163187E-07  0.588513990479E-07  0.134970185382E-06
  0.805107440581E-07 -0.142035974658E-07  0.647075705129E-07  0.868718822945E-07  0.161269295688E-06  0.000000000000E+00  0.107085483319E-06
  0.000000000000E+00  0.000000000000E+00  0.000000000000E+00  0.000000000000E+00