# vtk DataFile Version 2.0
FUN3D:global_image_vtk
ASCII
DATASET UNSTRUCTURED_GRID
POINTS 213 double
   -0.5474724527720465E-02    0.4999999999999998E-30    0.2504942005182237E+01
    0.1212121212121214E-30    0.8032169247834675E-04    0.5000000000000000E-30
    0.1245419076928181E+01    0.9999999999999999E-30    0.2504942005182237E+01
    0.1212121212121214E-30    0.1038423978844127E-03    0.1000000000000000E-29
    0.2497696090161273E+01    0.5000000000000000E-30    0.2504942005182237E+01
    0.1212121212121214E-30    0.1099836378041785E-03    0.5000000000000000E-30
    0.3750591000219316E+01    0.1000000000000000E-29    0.2504942005182237E+01
    0.1212121212121214E-30    0.1354570022851220E-03    0.1000000000000000E-29
    0.5003221393557218E+01    0.5000000000000001E-30    0.2504942005182237E+01
    0.1212121212121214E-30    0.9645067806302032E-04    0.5000000000000000E-30
    0.5004676757730219E+01    0.1000000000000000E-29    0.1281291415003748E+01
    0.5000000000000014E-30    0.1636229492601449E-03    0.1000000000000000E-29
    0.5004772733265148E+01    0.5000000000000002E-30    0.2775097973138349E-01
    0.1000000000000001E-29    0.1902234218277843E-03    0.5000000000000000E-30
    0.5003581221826500E+01    0.1000000000000000E-29   -0.1225853358120849E+01
    0.5000000000000011E-30    0.1607086259254320E-03    0.1000000000000000E-29
    0.5001952553134515E+01    0.5000000000000000E-30   -0.2496589016202556E+01
    0.1212121212121214E-30    0.1082092371909593E-03    0.5000000000000000E-30
    0.3750348122005903E+01    0.1000000000000000E-29   -0.2496589016202556E+01
    0.1212121212121214E-30    0.1458754878926882E-03    0.1000000000000000E-29
    0.2498611463539534E+01    0.5000000000000000E-30   -0.2496589016202556E+01
    0.1212121212121214E-30    0.1009099575163264E-03    0.5000000000000000E-30
    0.1247175261509345E+01    0.9999999999999999E-30   -0.2496589016202556E+01
    0.1212121212121214E-30    0.1108958281412220E-03    0.1000000000000000E-29
   -0.3383969652505758E-02    0.4999999999999999E-30   -0.2496589016202556E+01
    0.1212121212121214E-30    0.8113625863498397E-04    0.5000000000000000E-30
   -0.4257789880083962E-02    0.9999999999999999E-30   -0.1225734673006506E+01
    0.5000000000000011E-30    0.3418765131224522E-04    0.1000000000000000E-29
   -0.5251625685752881E-02    0.4999999999999998E-30    0.2619501495648065E-01
    0.1000000000000001E-29    0.1038778815052877E-03    0.5000000000000000E-30
   -0.5676101163537783E-02    0.9999999999999997E-30    0.1278221743531552E+01
    0.5000000000000013E-30    0.8222052785172851E-04    0.1000000000000000E-29
    0.9003209217918744E+00    0.4999999999999998E-30    0.1608979307788059E+01
    0.1000000000000001E-29    0.8697986548433789E-04    0.5000000000000000E-30
    0.3983172228635397E+01    0.1000000000000000E-29   -0.1561211762270739E+01
    0.5000000000000010E-30    0.1756748276819931E-03    0.1000000000000000E-29
    0.4035602079387497E+01    0.5000000000000000E-30    0.1486760266126256E+01
    0.1000000000000001E-29    0.1711707047749034E-03    0.5000000000000000E-30
    0.1036613706197667E+01    0.9999999999999999E-30   -0.1455626287809795E+01
    0.5000000000000011E-30    0.1047334602207739E-03    0.1000000000000000E-29
    0.1094353449885713E+01    0.4999999999999998E-30   -0.2964620398744432E+00
    0.1000000000000002E-29    0.1260432505361120E-03    0.5000000000000000E-30
    0.7298399877477202E+00    0.9999999999999999E-30    0.6874686505129548E+00
    0.5000000000000035E-30    0.1044287519396114E-03    0.1000000000000000E-29
    0.1617018623563139E+01    0.4999999999999998E-30    0.8553209978666024E+00
    0.1000000000000005E-29    0.1529204880539314E-03    0.5000000000000000E-30
    0.2143199653243216E+01    0.9999999999999999E-30   -0.1627128369725139E+01
    0.5000000000000010E-30    0.1606130269572459E-03    0.1000000000000000E-29
    0.4088840479725206E+01    0.5000000000000001E-30   -0.4351046111829278E+00
    0.1000000000000002E-29    0.2719113083121671E-03    0.5000000000000000E-30
    0.2977916509313599E+01    0.1000000000000000E-29   -0.8334989944101466E+00
    0.5000000000000035E-30    0.2245152651590421E-03    0.1000000000000000E-29
    0.3044093243998181E+01    0.5000000000000000E-30   -0.1814361085633255E+01
    0.1000000000000001E-29    0.1616866806658512E-03    0.5000000000000000E-30
    0.3427866629114899E+01    0.1000000000000000E-29    0.3813906924713181E+00
    0.5000000000000017E-30    0.2935982523095126E-03    0.1000000000000000E-29
    0.4313225407775678E+01    0.5000000000000001E-30    0.5489135452820488E+00
    0.1000000000000069E-29    0.2311713600814391E-03    0.5000000000000000E-30
    0.1823032713305475E+01    0.9999999999999999E-30    0.1771265414466481E+01
    0.5000000000000015E-30    0.1835256528172624E-03    0.1000000000000000E-29
    0.2806311149527428E+01    0.5000000000000000E-30    0.1358629605767851E+01
    0.1000000000000001E-29    0.1942351855950819E-03    0.5000000000000000E-30
    0.1891860854168224E+01    0.9999999999999999E-30   -0.8481308814147358E+00
    0.5000000000000691E-30    0.1670436487611893E-03    0.1000000000000000E-29
    0.2268769174863770E+01    0.4999999999999998E-30    0.7723710290210216E-01
    0.1000000000000001E-29    0.2071744628142080E-03    0.5000000000000000E-30
    0.5000000000000000E+01   -0.3658687815278003E-47    0.2504942005182237E+01
    0.1212121212121214E-30    0.1250000000000000E+01   -0.3658687815278003E-47
    0.5000000000000000E+01   -0.3658687815278003E-47    0.2504942005182237E+01
    0.1212121212121214E-30    0.2500000000000000E+01   -0.3658687815278003E-47
    0.5000000000000000E+01   -0.3658687815278003E-47    0.2504942005182237E+01
    0.1212121212121214E-30    0.3750000000000000E+01   -0.3658687815278003E-47
    0.5000000000000000E+01   -0.3658687815278003E-47    0.2504942005182237E+01
    0.1212121212121214E-30    0.5000000000000000E+01   -0.3658687815278003E-47
    0.3750000000000000E+01   -0.3658687815278003E-47    0.2504942005182237E+01
    0.1212121212121214E-30    0.5000000000000000E+01   -0.3658687815278003E-47
    0.2500000000000000E+01   -0.3658687815278003E-47    0.2504942005182237E+01
    0.1212121212121214E-30    0.5000000000000000E+01   -0.3658687815278003E-47
    0.1250000000000000E+01   -0.3658687815278003E-47    0.2504942005182237E+01
    0.1212121212121214E-30    0.5000000000000000E+01   -0.3658687815278003E-47
    0.9975151425773124E-20   -0.3658687815278003E-47    0.2504942005182237E+01
    0.1212121212121214E-30    0.5000000000000000E+01   -0.3658687815278003E-47
    0.9975151425773124E-20   -0.3658687815278003E-47    0.2504942005182237E+01
    0.1212121212121214E-30    0.3750000000000000E+01   -0.3658687815278003E-47
    0.9975151425773124E-20   -0.3658687815278003E-47    0.2504942005182237E+01
    0.1212121212121214E-30    0.2500000000000000E+01   -0.3658687815278003E-47
    0.9975151425773124E-20   -0.3658687815278003E-47    0.2504942005182237E+01
    0.1212121212121214E-30    0.1250000000000000E+01   -0.3658687815278003E-47
    0.9588956281582822E+00    0.4088323204879494E-30    0.2504942005182237E+01
    0.1212121212121214E-30    0.9696525381778107E+00    0.8253355966551764E-30
    0.3981953078740101E+01    0.7369699780759998E-31    0.2504942005182237E+01
    0.1212121212121214E-30    0.4070563842691149E+01    0.1516277355828208E-30
    0.4036122227630506E+01    0.5331184872987309E-30    0.2504942005182237E+01
    0.1212121212121214E-30    0.1017567397338644E+01    0.8139234257758020E-30
    0.9637572814407703E+00   -0.9331067766425391E-32    0.2504942005182237E+01
    0.1212121212121214E-30    0.3973598195308711E+01    0.1306014370160201E-30
    0.1546540145185356E+01    0.8002905657924826E-31    0.2504942005182237E+01
    0.1212121212121214E-30    0.2931570146934813E+01    0.3996885550961455E-30
    0.6973799555312561E+00    0.3481309068430867E-32    0.2504942005182237E+01
    0.1212121212121214E-30    0.3070319941818703E+01    0.2100037182688212E-30
    0.8903742131161811E+00    0.7712488796353744E-31    0.2504942005182237E+01
    0.1212121212121214E-30    0.2056562221935373E+01    0.4294668085394068E-30
    0.2183042000952686E+01    0.3782461580953660E-31    0.2504942005182237E+01
    0.1212121212121214E-30    0.3960694433674115E+01    0.2259705361712516E-30
    0.3855844876676127E+01    0.1784932175604494E-30    0.2504942005182237E+01
    0.1212121212121214E-30    0.2933250553352366E+01    0.3558534735534790E-30
    0.3152611372410318E+01    0.1115283363379703E-30    0.2504942005182237E+01
    0.1212121212121214E-30    0.3637668364457151E+01    0.2959845527154201E-30
    0.3103307387204182E+01    0.5185271477212007E-31    0.2504942005182237E+01
    0.1212121212121214E-30    0.4332607801667730E+01    0.1521436499776661E-30
    0.3266711063327834E+01    0.3601961362738011E-30    0.2504942005182237E+01
    0.1212121212121214E-30    0.1889656537948559E+01    0.6353768785672471E-30
    0.4232537560711024E+01    0.2580489315428051E-30    0.2504942005182237E+01
    0.1212121212121214E-30    0.1918626923091980E+01    0.4090791405808471E-30
    0.1905522367559471E+01    0.6572817491138494E-30    0.2504942005182237E+01
    0.1212121212121214E-30    0.7226290083262537E+00    0.8977306600900043E-30
    0.2879767751810979E+01    0.6107141644545558E-30    0.2504942005182237E+01
    0.1212121212121214E-30    0.9080944621009355E+00    0.8180347387425740E-30
    0.2012711380865118E+01    0.3615868018462047E-30    0.2504942005182237E+01
    0.1212121212121214E-30    0.1767082331652570E+01    0.7060364642884861E-30
    0.2669681485317436E+01    0.1849800474542207E-30    0.2504942005182237E+01
    0.1212121212121214E-30    0.2853394290333895E+01    0.4820509466868412E-30
    0.5000000000000000E+01   -0.3658687815278003E-47    0.1250000000000000E+01
   -0.3658687815278003E-47    0.5000000000000000E+01   -0.3658687815278003E-47
    0.5000000000000000E+01   -0.3658687815278003E-47    0.9975151425773124E-20
[...]
POINT_DATA 213
SCALARS rho double 1
LOOKUP_TABLE default
   0.1000013398958359E+01
  -0.4579150599055568E-32
   0.1000006897157892E+01
   0.4446124985301356E-31
   0.9999877166123728E+00
  -0.2439314756276768E-31
   0.9999949102637893E+00
   0.2191660890794742E-31
   0.1000003751993209E+01
  -0.5075935023128448E-32
   0.1000005486352678E+01
   0.1490518097413959E-30
   0.9999935158232038E+00
   0.8252178433058023E-31
   0.9999980374642523E+00
   0.5298018129936633E-31
   0.9999991048258609E+00
  -0.8552515257093057E-31
   0.9999957846194660E+00
   0.4323036252481668E-31
   0.9999944099871542E+00
  -0.3568837427958617E-31
   0.9999994176369295E+00
  -0.2912529192677528E-31
   0.1000020903627220E+01
   0.6613033619523360E-31
   0.1000027312184485E+01
  -0.1629581641927668E-31
   0.1000020564061968E+01
   0.2787884265526443E-31
   0.1000014939723540E+01
  -0.4405458732460036E-31
   0.1000016746907702E+01
   0.1660737972754655E-31
   0.9999901510472144E+00
  -0.7396295763809129E-33
   0.9999910316505520E+00
   0.6094011850205764E-32
   0.1000010232173121E+01
   0.1700478593473959E-31
   0.1000010730906064E+01
  -0.7595492029815032E-32
   0.1000011996586387E+01
  -0.5301406642752116E-31
   0.1000006612931111E+01
  -0.1450918210155607E-31
   0.9999953583362360E+00
  -0.7100174947949127E-31
   0.9999822723920059E+00
  -0.3611189004978742E-31
   0.9999917765020646E+00
  -0.2854282577846009E-31
   0.9999938357776713E+00
   0.6166130318798432E-31
   0.9999886455272906E+00
  -0.3141284654344759E-31
   0.9999818683367606E+00
   0.7383617516359393E-32
   0.9999993735308917E+00
  -0.3009546204563993E-31
   0.9999907325358489E+00
   0.3037793934334904E-31
   0.1000001566931187E+01
   0.2082934894813302E-31
   0.1000001340636690E+01
   0.7751656790703242E-31
   0.1000001768791754E+01
   0.4740458531062347E-32
   0.1000001232716485E+01
   0.8535550174015649E-33
   0.1000000849176180E+01
   0.3257259541094283E-33
   0.1000000683690696E+01
   0.1585334667434911E-33
   0.1000001186221045E+01
   0.2403293249386235E-33
   0.1000001662998455E+01
   0.2177362710995589E-33
   0.1000001781498876E+01
   0.5592874952497804E-34
   0.1000001431693141E+01
  -0.5064490496927319E-34
   0.1000002375075073E+01
  -0.7607559337907939E-34
   0.1000004126381794E+01
  -0.1259449352599965E-32
   0.1000007792335750E+01
  -0.2518540029799044E-32
   0.1000005984687513E+01
   0.4606780398453944E-32
   0.1000000960841177E+01
   0.4666192730580614E-33
   0.9999988582129788E+00
   0.7745946067747715E-32
   0.1000002125169310E+01
   0.6588295855499507E-34
   0.1000002434997271E+01
   0.4793639832860515E-33
   0.1000002896384324E+01
  -0.1435677466758793E-33
   0.1000003533559766E+01
  -0.2626753030296916E-33
   0.1000001712268680E+01
   0.2746926087908083E-33
   0.1000000714375050E+01
   0.1203667350497678E-32
   0.1000001155770256E+01
   0.5084022344843992E-33
   0.1000001329192377E+01
   0.3788977869420905E-33
   0.9999997358602593E+00
   0.2682272412431152E-32
   0.1000000117793961E+01
   0.3166712108525899E-32
   0.1000000159830440E+01
  -0.2320826949056843E-32
   0.9999979904240626E+00
   0.5734322611446395E-32
   0.1000001506208757E+01
   0.5791026292521349E-33
   0.1000001177953656E+01
   0.1102663126644863E-32
   0.1000000667053697E+01
   0.1349747235197178E-33
   0.1000000663300910E+01
   0.5880886818827803E-34
   0.1000000660403100E+01
  -0.6047735078414537E-35
   0.1000000735180390E+01
  -0.2461912934740293E-34
   0.1000000960213457E+01
   0.1894067938391381E-33
   0.1000001530666272E+01
  -0.9624506942770348E-34
   0.1000002261940126E+01
   0.3951295099350911E-33
   0.1000001916055969E+01
   0.7262697301610880E-32
   0.1000000725401992E+01
   0.8043470653878773E-34
   0.1000000688578935E+01
   0.3254523618106180E-33
   0.1000002655040672E+01
   0.9270437197566670E-33
   0.1000005619499566E+01
   0.1295449391052318E-31
   0.1000004750539223E+01
   0.1690340702387563E-31
   0.1000000861455933E+01
   0.4875832218912790E-32
   0.1000001952405397E+01
   0.1144125028523726E-32
   0.1000000655756067E+01
   0.1608493640871594E-33
   0.1000001413388281E+01
   0.6583132429952334E-33
   0.1000001276437142E+01
   0.2978818382056321E-33
   0.1000000944522080E+01
   0.3829641158096332E-33
   0.1000000637854984E+01
   0.7999839184641421E-34
   0.1000001436271760E+01
   0.3866185255828665E-32
   0.1000000995862211E+01
   0.1177110853846278E-32
   0.1000002320961688E+01
   0.1659380285451122E-32
   0.1000001385231415E+01
   0.1869248970167521E-32
   0.1000001361387604E+01
  -0.4839143124868435E-34
   0.1000001331831519E+01
  -0.5578884243491270E-34
   0.1000001398032760E+01
  -0.6152643399461529E-35
   0.1000001474789456E+01
  -0.9970058065649365E-38
   0.1000001847186246E+01
  -0.3841902244570263E-34
   0.1000001705647023E+01
  -0.3754293268640497E-34
   0.1000001252212252E+01
  -0.2519345273458989E-34
   0.1000001081874855E+01
   0.2249467239493325E-33
   0.1000001634553879E+01
  -0.2291734395316842E-34
   0.1000001636207620E+01
   0.2391554625836698E-34
   0.1000001123574489E+01
  -0.3204984052873969E-34
   0.1000001124393294E+01
   0.9650451431078954E-34
   0.1000001014107739E+01
   0.1503883145432778E-33
   0.1000001432263584E+01
   0.1497674943990673E-33
   0.1000001608257925E+01
   0.7837299459551071E-35
   0.1000001506592723E+01
  -0.3271459360956502E-34
   0.1000001875031356E+01
   0.5988786832824132E-35
   0.1000001860939443E+01
  -0.4340390266243188E-34
   0.1000001554459580E+01
  -0.9012584507407217E-36
   0.1000001439053756E+01
   0.2204584344986511E-33
   0.1000001728969720E+01
   0.1568188718584576E-33
   0.1000001769139809E+01
   0.6991058821539913E-34
   0.1000001546768794E+01
   0.4567095745319791E-34
   0.1000009251186746E+01
   0.7538981289951465E-32
   0.1000004424621817E+01
   0.1430085848224308E-32
   0.1000002511311531E+01
   0.2497596801155607E-33
   0.1000002103338501E+01
  -0.6674298847513882E-34
   0.1000011247228578E+01
   0.5544607378731598E-32
   0.1000009105465114E+01
  -0.5482075403109515E-32
   0.1000002286795136E+01
   0.7955273882401707E-34
   0.1000002163658898E+01
  -0.3039462549909435E-34
   0.1000001942399939E+01
  -0.1931819356685811E-34
   0.1000003119548145E+01
  -0.1646188048819078E-33
   0.1000003789190067E+01
   0.8181151771009705E-33
   0.1000012788201603E+01
   0.1964914415859028E-32
   0.1000006774135410E+01
   0.3214916773100624E-32
   0.1000006444291615E+01
   0.2552291566970108E-32
   0.1000010072185854E+01
   0.4819485394487232E-33
   0.1000003206496747E+01
  -0.3978715114779498E-33
   0.1000004884506820E+01
  -0.1644873798946136E-32
   0.1000005652559341E+01
  -0.1082435896175929E-32
   0.1000003590396209E+01
   0.9246115359466560E-34
   0.1000005472240815E+01
  -0.3692680244083927E-32
   0.1000001047925819E+01
   0.1055637915400410E-34
   0.9999986505639794E+00
   0.7002057098233057E-33
   0.1000002268209290E+01
   0.4981200292325084E-34
   0.1000002423575834E+01
  -0.1888683213420110E-33
   0.1000003168751546E+01
   0.8313057381693262E-35
   0.1000004081254069E+01
  -0.3105140573257728E-33
   0.1000001763159773E+01
  -0.8581611046854582E-34
   0.1000000809656781E+01
  -0.9248815599152146E-35
   0.1000001216469564E+01
   0.5549221764877129E-34
   0.1000001395374988E+01
   0.1888871729416290E-34
   0.9999995455352413E+00
  -0.1184018855288204E-34
   0.1000000492323758E+01
   0.1677094025971292E-33
   0.1000000041664231E+01
  -0.2008139410362509E-31
   0.9999982226418733E+00
   0.5771354324048547E-32
   0.1000001629063525E+01
  -0.8245705552029186E-33
   0.1000001331601107E+01
  -0.2453312404433476E-34
   0.1000001307428743E+01
  -0.1874785619772097E-34
   0.1000002036248496E+01
   0.1855776764979641E-33
   0.1000002295369595E+01
   0.8965693598574715E-34
   0.1000002824706052E+01
   0.7756788998720722E-33
   0.1000003788481523E+01
   0.2848969491250749E-33
   0.1000006333335073E+01
   0.4168023469905371E-34
   0.1000003075099896E+01
   0.2430249129648136E-32
   0.1000002610280877E+01
  -0.8206252771394664E-34
   0.1000002153610401E+01
   0.2059425320808715E-33
   0.1000002888356467E+01
  -0.9579614059159210E-35
   0.1000002896592857E+01
   0.6331423065691654E-33
   0.1000005883414628E+01
  -0.2150187964885776E-32
   0.1000001879149163E+01
  -0.2370904861670955E-34
   0.1000001358644904E+01
   0.4719399265284793E-33
   0.1000000166570653E+01
   0.2141876754310952E-32
   0.1000000598980553E+01
   0.1165057532800164E-32
   0.1000001103038875E+01
   0.3152685726969551E-33
   0.1000000584782961E+01
   0.1240475766210775E-32
   0.1000001543238893E+01
   0.9581004036290394E-34
   0.1000001718859083E+01
   0.1770885699500345E-33
   0.1000001226815793E+01
   0.2925822408384355E-33
   0.1000000793594809E+01
   0.3948711132178079E-33
   0.1000001466697862E+01
   0.1870534919595280E-33
   0.1000002039136888E+01
   0.1427992982715078E-35
   0.1000004196062680E+01
   0.2556839477499795E-33
   0.1000003196060467E+01
  -0.5045506807542219E-33
   0.1000001500539073E+01
  -0.5904068072476845E-34
   0.1000002008057957E+01
  -0.1543784821894011E-34
   0.1000003004278788E+01
   0.2326511347990072E-33
   0.9999987262110442E+00
   0.2262517483516259E-32
   0.1000003443775259E+01
   0.4128494739682192E-32
   0.1000000215454014E+01
  -0.1361256482986894E-33
   0.1000000919996998E+01
   0.8166361986543221E-33
   0.9999996470331677E+00
   0.4021334035577132E-32
   0.1000000217339221E+01
   0.7342389819678842E-33
   0.1000007150733040E+01
  -0.4152899258069990E-32
   0.1000005152064671E+01
  -0.8940637183215615E-33
   0.1000007010425270E+01
  -0.4845066536051493E-33
   0.1000000968244707E+01
   0.2550584336833687E-33
   0.1000001464148404E+01
   0.3237611869815761E-33
   0.1000000720647638E+01
   0.3747512463790921E-33
   0.1000000422453143E+01
  -0.2042038982522804E-33
   0.9999999975768412E+00
   0.1556754520000040E-33
   0.1000000824641312E+01
   0.3409056721844708E-33
   0.1000001079338644E+01
   0.2001395708395373E-33
   0.1000000956043141E+01
   0.1830844270517911E-33
   0.1000001362835489E+01
   0.1951014091567366E-33
   0.9999994188162828E+00
   0.5329582148622243E-32
   0.9999992369352817E+00
   0.1056830798385562E-31
   0.9999993317193113E+00
   0.4217947860040260E-32
   0.9999999715916356E+00
   0.9458943673308814E-34
   0.9999980421720851E+00
  -0.1975801459900116E-32
   0.9999985732014635E+00
   0.1995970000211078E-32
   0.1000000629623153E+01
   0.3648326742599699E-32
   0.9999997617636146E+00
   0.2014618895767592E-32
   0.9999936953728455E+00
  -0.1462848372182571E-32
   0.1000002060349773E+01
  -0.3779038741528925E-34
   0.1000001743618456E+01
   0.5569369612072406E-34
   0.1000001110505454E+01
   0.1874515646774184E-33
   0.1000000888140893E+01
   0.5933529328708452E-33
   0.9999957231235177E+00
   0.5944487125189438E-32
   0.9999938673214875E+00
   0.6064969019225921E-32
   0.9999969715242970E+00
   0.3495800567720698E-32
   0.1000001564513920E+01
   0.6056465321088096E-34
   0.1000001219325794E+01
   0.8047478569623571E-34
   0.1000000929976014E+01
   0.6181767737250003E-33
   0.1000000838752767E+01
   0.3806217022223659E-35
   0.1000001762288881E+01
  -0.6128283216524683E-32
   0.9999946525437577E+00
  -0.2631699623603824E-32
SCALARS u double 1
LOOKUP_TABLE default
   0.4999825459983632E+00
  -0.1713990527298116E-31
   0.5000062048655831E+00
   0.2499062181873323E-34
   0.5000311908373762E+00
  -0.3145724295768641E-32
   0.5000259195182094E+00
  -0.3965489982786872E-31
   0.5000072377308326E+00
  -0.2382174540509144E-31
   0.5000050927628944E+00
  -0.1293359381379515E-30
   0.5000129641894085E+00
  -0.8960914750078542E-31
   0.5000124662824175E+00
  -0.4750860395251969E-31
   0.5000135873415146E+00
   0.8671707834101500E-31
   0.5000303024964563E+00
  -0.3224828130851375E-33
   0.5000272405179700E+00
   0.4420605190173477E-32
   0.5000153271485130E+00
   0.1049445548249547E-30
   0.4999841396786208E+00
  -0.2766830633186163E-31
   0.4999807667028099E+00
  -0.2444595521565796E-32
   0.4999820908643267E+00
   0.9129140454958098E-32
   0.4999827244218012E+00
   0.1985136896174802E-31
   0.4999933630300520E+00
  -0.2221576858997614E-31
   0.5000361481415814E+00
   0.2746355207563612E-31
   0.5000295111937085E+00
  -0.4066226170782893E-31
   0.5000088173834968E+00
   0.3127685651617995E-31
   0.5000020067912061E+00
  -0.1388479600120833E-31
   0.4999923074884429E+00
   0.2456439056396660E-31
   0.5000115330271110E+00
  -0.4810681713888713E-31
   0.5000277437757147E+00
   0.6051131167338031E-31
   0.5000416467778249E+00
  -0.2208462660896534E-31
   0.5000391836538739E+00
   0.2504774333552994E-31
   0.5000334083838720E+00
  -0.4716720432302910E-31
   0.5000435468511056E+00
   0.3099926302707534E-31
   0.5000363555816276E+00
  -0.8175402575320676E-31
   0.5000212336755000E+00
   0.1460317922862840E-31
   0.5000320202797729E+00
  -0.4313144809999743E-31
   0.5000217536525969E+00
   0.1279306604900139E-31
   0.5000270004167591E+00
  -0.3974970000587297E-31
   0.5000039108726804E+00
  -0.5158188784653333E-32
   0.5000016691344038E+00
  -0.1445768436471367E-32
   0.5000006259706334E+00
  -0.2535266526716676E-33
   0.5000001292451092E+00
   0.5635165716234816E-34
   0.4999988053001265E+00
  -0.2578943345878276E-33
   0.4999979267322834E+00
  -0.2908941664608978E-33
   0.4999975730546720E+00
  -0.1456447782952893E-33
   0.4999983477399128E+00
   0.8906850643106065E-34
   0.4999975389729518E+00
   0.1582877046041523E-33
   0.4999957127243151E+00
   0.1278444476718440E-32
   0.4999918975639810E+00
   0.2715814530101507E-32
   0.4999965936509728E+00
  -0.9031140585500813E-32
   0.4999999348008937E+00
  -0.7774819888372071E-33
   0.5000125616347927E+00
  -0.1702263064399712E-31
   0.4999978493334981E+00
  -0.2309474695649934E-33
   0.4999987508074110E+00
  -0.8296084521889219E-33
   0.4999973899093927E+00
  -0.2489657712047216E-33
   0.4999974741909452E+00
  -0.5693237309888954E-33
   0.4999987278027865E+00
  -0.5665719735273033E-33
   0.5000018474780124E+00
  -0.2915033739569291E-32
   0.5000000255719982E+00
  -0.9715146356581895E-33
   0.4999990622859085E+00
  -0.5981922065366782E-33
   0.5000067822232190E+00
  -0.7415262682012726E-32
   0.5000053748854006E+00
  -0.8183292199286985E-32
   0.5000111323591477E+00
   0.5303950200936583E-32
   0.5000165897389516E+00
  -0.1429624490042757E-31
   0.5000031315391557E+00
  -0.1946522189939340E-32
   0.5000011848503076E+00
  -0.1780523823922258E-32
   0.5000001476269216E+00
  -0.1581724998492053E-34
   0.5000001375126194E+00
  -0.5717980455330824E-34
   0.5000000066641186E+00
  -0.1549554076001803E-33
   0.5000001436225409E+00
  -0.2687296875845061E-33
   0.5000005230492779E+00
  -0.2958790798998229E-33
   0.5000016276004496E+00
   0.7208736172642618E-33
   0.5000047180411930E+00
   0.8521457664413997E-32
   0.5000056305957561E+00
  -0.1114817481512320E-31
   0.5000005534406331E+00
  -0.1223587302175158E-33
   0.5000005595068212E+00
  -0.2823812113443662E-33
   0.5000061815133189E+00
   0.7994385136726993E-32
   0.5000032762440045E+00
  -0.1720086531707797E-31
   0.5000042125759354E+00
  -0.3061403950457835E-31
   0.5000046184456856E+00
  -0.6384694893697600E-32
   0.5000022151085550E+00
   0.9391558475427286E-33
   0.5000004840363627E+00
  -0.7069975103421411E-34
   0.5000010384465575E+00
  -0.2788483190792586E-33
   0.5000009580551947E+00
  -0.1052173068320426E-33
   0.5000007431057499E+00
  -0.2901017331841055E-33
   0.5000004531786238E+00
  -0.1481848876390537E-34
   0.5000027870339605E+00
  -0.4020370690810634E-32
   0.5000014322142058E+00
  -0.1422309086206615E-32
   0.5000032405116028E+00
   0.9597057394062664E-33
   0.5000024897656138E+00
  -0.6299295881092206E-33
   0.4999985758186558E+00
   0.3678391875806001E-34
   0.4999986029474119E+00
   0.7007994927955005E-34
   0.4999984676852376E+00
   0.4628921087022417E-34
   0.4999983049084120E+00
   0.3090561693751424E-35
   0.4999975343390726E+00
   0.2666781851394383E-34
   0.4999978388834935E+00
  -0.2136335738430360E-33
   0.4999987867683924E+00
  -0.3630619769398212E-33
   0.4999990062550399E+00
  -0.2443740947648605E-33
   0.4999978285694328E+00
  -0.9079907455775594E-35
   0.4999977772249551E+00
  -0.6923929465288200E-34
   0.4999989719814019E+00
  -0.3284447043102103E-33
   0.4999990045304938E+00
  -0.2999113487587495E-33
   0.4999992102590197E+00
  -0.2788642014812280E-33
   0.4999983483164303E+00
  -0.3184170807758509E-33
   0.4999980885546553E+00
  -0.3791609026389761E-33
   0.4999980845651710E+00
   0.2028634799765933E-34
   0.4999976138865752E+00
  -0.1971961382580986E-33
   0.4999975734941076E+00
  -0.8447442845294453E-34
   0.4999979666986863E+00
  -0.3557899052128558E-34
   0.4999983057486786E+00
  -0.2370425161303542E-33
   0.4999977869112235E+00
  -0.2262545711473272E-33
   0.4999977230469646E+00
  -0.2156106192993752E-33
   0.4999981936314568E+00
  -0.3244304367909549E-33
   0.4999906568807069E+00
  -0.8484780822413444E-32
   0.4999953900381020E+00
  -0.1291324062647666E-32
   0.4999973539608310E+00
  -0.2484930683911665E-33
   0.4999976993613674E+00
   0.1430584849766056E-33
   0.4999865759631638E+00
  -0.1258816036418271E-31
   0.4999898091253978E+00
   0.5968869487797728E-32
   0.4999975202583570E+00
  -0.2584153979579036E-33
   0.4999977524510442E+00
  -0.7283485231824211E-34
   0.4999979987333406E+00
   0.8711432606479664E-34
   0.4999968038853947E+00
   0.1634144658748974E-33
   0.4999957289446349E+00
  -0.8766599791092828E-33
   0.4999860958990396E+00
   0.9199487161548711E-32
   0.4999923506695810E+00
   0.1949219198960519E-33
   0.4999936554998243E+00
  -0.1743622533716153E-32
   0.4999878973160208E+00
   0.1425901272139333E-31
   0.4999967418512519E+00
   0.4036203904523774E-33
   0.4999947824256060E+00
   0.1400163818066161E-32
   0.4999940393775507E+00
   0.1107924935791641E-32
   0.4999961716020250E+00
  -0.1198484110958370E-33
   0.4999998550647758E+00
   0.1969408909379748E-31
   0.5000000164889451E+00
  -0.2642885826118785E-33
   0.5000156248433969E+00
   0.2641575477448861E-31
   0.4999977345959685E+00
  -0.2830169281072504E-34
   0.4999986819302952E+00
   0.8471836766411105E-33
   0.4999971383517074E+00
   0.3775563572214874E-33
   0.4999974136384152E+00
   0.2572336811926393E-32
   0.4999987133782520E+00
  -0.1434317164599412E-33
   0.5000018152556275E+00
   0.3861158086076208E-34
   0.5000001671013270E+00
  -0.1289041300924959E-34
   0.4999990891216421E+00
  -0.2649108353211332E-33
   0.5000072970188740E+00
   0.1833911070610435E-32
   0.5000058271331062E+00
   0.3950110197233028E-32
   0.5000145429147870E+00
   0.6433755381888013E-31
   0.5000173446176253E+00
  -0.1895286062103706E-32
   0.5000038273529012E+00
   0.9983780445826829E-32
   0.5000013561517185E+00
   0.1068326172037173E-32
   0.5000010898992863E+00
  -0.8405789619831970E-33
   0.4999985415382534E+00
   0.3897909952153076E-33
   0.4999987918491548E+00
  -0.2653438849852609E-33
   0.4999998930631153E+00
  -0.6267536067056459E-33
   0.4999963903798284E+00
   0.1351503880856053E-33
   0.4999950158883484E+00
   0.1542281559135178E-32
   0.5000006452238185E+00
  -0.5149596401989910E-32
   0.4999973651620800E+00
   0.8994288485139891E-36
   0.4999982670013006E+00
  -0.4812853412146827E-33
   0.4999972233047333E+00
  -0.2182447272163148E-33
   0.4999994053922899E+00
  -0.2393847062459160E-32
   0.4999988412483280E+00
  -0.6080023763654292E-32
   0.4999980481390611E+00
  -0.1776944991742517E-33
   0.5000004059747085E+00
  -0.1521145154333579E-32
   0.5000056896794417E+00
  -0.3976445293989443E-32
   0.5000025936190053E+00
  -0.3413876049986594E-32
   0.5000004255504171E+00
  -0.8464603358726387E-33
   0.5000033044507123E+00
  -0.3322013398427621E-32
   0.4999988024248330E+00
  -0.2528735035586905E-33
   0.4999984719243092E+00
  -0.2246981152616017E-33
   0.4999992378721488E+00
  -0.5135721840557563E-33
   0.5000020033594398E+00
  -0.4122858917188785E-33
   0.5000003793759757E+00
   0.2432902017708742E-33
   0.4999979582845663E+00
  -0.1411566445832462E-33
   0.4999960952371477E+00
   0.1868731093529906E-32
   0.4999990100693593E+00