TITLE="fun3d_case_title"
VARIABLES="Iteration" "R_1" "R_2" "R_3" "R_4" "R_5" "C_L" "C_D" "C_M_x" "C_M_y" "C_M_z" "Wall Time" "C_x" "C_y" "C_z" "C_Lp" "C_Dp" "C_Lv" "C_Dv" "C_M_xp" "C_M_yp" "C_M_zp" "C_M_xv" "C_M_yv" "C_M_zv" "C_xp" "C_yp" "C_zp" "C_xv" "C_yv" "C_zv"
ZONE  I=100 F=POINT
1  0.2310221931E-32  0.1155110966E-32  0.7235025687E-48  0.4741627757E-47  0.6064332570E-32 -0.1608539503E-30  0.7976799433E-34 -0.6619762857E-30  0.1348860766E-29 -0.2267919637E-33  0.0000000000E+00  0.7976799433E-34 -0.1446235733E-33 -0.1608539503E-30 -0.1608539503E-30  0.7976799433E-34  0.0000000000E+00  0.0000000000E+00 -0.6619762857E-30  0.1348860766E-29 -0.2267919637E-33  0.0000000000E+00  0.0000000000E+00  0.0000000000E+00  0.7976799433E-34 -0.1446235733E-33 -0.1608539503E-30  0.0000000000E+00  0.0000000000E+00  0.0000000000E+00
2  0.2205673402E-33  0.1052251536E-32  0.1644748817E-32  0.1086981313E-32  0.4947995128E-33 -0.5241645072E-30  0.5642291673E-34 -0.1313443121E-29  0.2908488671E-29 -0.1750683554E-33  0.0000000000E+00  0.5642291673E-34 -0.1126853275E-33 -0.5241645072E-30 -0.5241645072E-30  0.5642291673E-34  0.0000000000E+00  0.0000000000E+00 -0.1313443121E-29  0.2908488671E-29 -0.1750683554E-33  0.0000000000E+00  0.0000000000E+00  0.0000000000E+00  0.5642291673E-34 -0.1126853275E-33 -0.5241645072E-30  0.0000000000E+00  0.0000000000E+00  0.0000000000E+00
3  0.4883281584E-33  0.6916409037E-33  0.6163069282E-33 -0.3999410459E-34  0.1270235640E-32 -0.7437096211E-30  0.4165602346E-34 -0.1542207686E-29  0.3879409934E-29 -0.1316474481E-33  0.0000000000E+00  0.4165602346E-34 -0.8155360281E-34 -0.7437096211E-30 -0.7437096211E-30  0.4165602346E-34  0.0000000000E+00  0.0000000000E+00 -0.1542207686E-29  0.3879409934E-29 -0.1316474481E-33  0.0000000000E+00  0.0000000000E+00  0.0000000000E+00  0.4165602346E-34 -0.8155360281E-34 -0.7437096211E-30  0.0000000000E+00  0.0000000000E+00  0.0000000000E+00
4  0.1993713018E-33  0.6071499310E-35  0.1135951447E-33 -0.3960132092E-35  0.4577283109E-33 -0.8380773699E-30  0.3673516322E-34 -0.1507870132E-29  0.4250625262E-29 -0.1260803334E-33  0.0000000000E+00  0.3673516322E-34 -0.7290641455E-34 -0.8380773699E-30 -0.8380773699E-30  0.3673516322E-34  0.0000000000E+00  0.0000000000E+00 -0.1507870132E-29  0.4250625262E-29 -0.1260803334E-33  0.0000000000E+00  0.0000000000E+00  0.0000000000E+00  0.3673516322E-34 -0.7290641455E-34 -0.8380773699E-30  0.0000000000E+00  0.0000000000E+00  0.0000000000E+00
5  0.6438336769E-34 -0.1605470422E-34  0.1904829933E-33  0.6151151386E-34  0.1255837807E-33 -0.8658905266E-30  0.3833403156E-34 -0.1463672939E-29  0.4288478042E-29 -0.1338905686E-33  0.0000000000E+00  0.3833403156E-34 -0.7499341171E-34 -0.8658905266E-30 -0.8658905266E-30  0.3833403156E-34  0.0000000000E+00  0.0000000000E+00 -0.1463672939E-29  0.4288478042E-29 -0.1338905686E-33  0.0000000000E+00  0.0000000000E+00  0.0000000000E+00  0.3833403156E-34 -0.7499341171E-34 -0.8658905266E-30  0.0000000000E+00  0.0000000000E+00  0.0000000000E+00
6  0.4644107978E-34 -0.5147710050E-34  0.5583207817E-34  0.3456412241E-34  0.8304189344E-34 -0.8630039369E-30  0.3988098199E-34 -0.1437329510E-29  0.4234350076E-29 -0.1361004308E-33  0.0000000000E+00  0.3988098199E-34 -0.7609953928E-34 -0.8630039369E-30 -0.8630039369E-30  0.3988098199E-34  0.0000000000E+00  0.0000000000E+00 -0.1437329510E-29  0.4234350076E-29 -0.1361004308E-33  0.0000000000E+00  0.0000000000E+00  0.0000000000E+00  0.3988098199E-34 -0.7609953928E-34 -0.8630039369E-30  0.0000000000E+00  0.0000000000E+00  0.0000000000E+00
7 -0.2053874642E-35 -0.5441181549E-34  0.3373379057E-34  0.1252115772E-34 -0.2701967588E-34 -0.8535922815E-30  0.4074395682E-34 -0.1418076963E-29  0.4185861839E-29 -0.1336755836E-33  0.0000000000E+00  0.4074395682E-34 -0.7526394791E-34 -0.8535922815E-30 -0.8535922815E-30  0.4074395682E-34  0.0000000000E+00  0.0000000000E+00 -0.1418076963E-29  0.4185861839E-29 -0.1336755836E-33  0.0000000000E+00  0.0000000000E+00  0.0000000000E+00  0.4074395682E-34 -0.7526394791E-34 -0.8535922815E-30  0.0000000000E+00  0.0000000000E+00  0.0000000000E+00
8 -0.1459601550E-34 -0.4203328084E-34  0.2294632116E-34 -0.4965304573E-36 -0.4944335006E-34 -0.8471325684E-30  0.4120177016E-34 -0.1402161468E-29  0.4160867562E-29 -0.1313760574E-33  0.0000000000E+00  0.4120177016E-34 -0.7423829243E-34 -0.8471325684E-30 -0.8471325684E-30  0.4120177016E-34  0.0000000000E+00  0.0000000000E+00 -0.1402161468E-29  0.4160867562E-29 -0.1313760574E-33  0.0000000000E+00  0.0000000000E+00  0.0000000000E+00  0.4120177016E-34 -0.7423829243E-34 -0.8471325684E-30  0.0000000000E+00  0.0000000000E+00  0.0000000000E+00
9 -0.1082485551E-34 -0.3057674364E-34  0.1346302549E-34 -0.7212171378E-35 -0.3624385107E-34 -0.8443647084E-30  0.4155514519E-34 -0.1391505049E-29  0.4150449860E-29 -0.1305913526E-33  0.0000000000E+00  0.4155514519E-34 -0.7376280922E-34 -0.8443647084E-30 -0.8443647084E-30  0.4155514519E-34  0.0000000000E+00  0.0000000000E+00 -0.1391505049E-29  0.4150449860E-29 -0.1305913526E-33  0.0000000000E+00  0.0000000000E+00  0.0000000000E+00  0.4155514519E-34 -0.7376280922E-34 -0.8443647084E-30  0.0000000000E+00  0.0000000000E+00  0.0000000000E+00
10 -0.5720631251E-35 -0.2098085162E-34  0.8633630707E-35 -0.7539126930E-35 -0.1952639846E-34 -0.8434086944E-30  0.4183276049E-34 -0.1386154083E-29  0.4145507817E-29 -0.1307327574E-33  0.0000000000E+00  0.4183276049E-34 -0.7367855142E-34 -0.8434086944E-30 -0.8434086944E-30  0.4183276049E-34  0.0000000000E+00  0.0000000000E+00 -0.1386154083E-29  0.4145507817E-29 -0.1307327574E-33  0.0000000000E+00  0.0000000000E+00  0.0000000000E+00  0.4183276049E-34 -0.7367855142E-34 -0.8434086944E-30  0.0000000000E+00  0.0000000000E+00  0.0000000000E+00
11 -0.2758677999E-35 -0.1522064188E-34  0.5599526414E-35 -0.5670181111E-35 -0.1088598914E-34 -0.8430930496E-30  0.4204970475E-34 -0.1384093092E-29  0.4142390201E-29 -0.1311097617E-33  0.0000000000E+00  0.4204970475E-34 -0.7371962024E-34 -0.8430930496E-30 -0.8430930496E-30  0.4204970475E-34  0.0000000000E+00  0.0000000000E+00 -0.1384093092E-29  0.4142390201E-29 -0.1311097617E-33  0.0000000000E+00  0.0000000000E+00  0.0000000000E+00  0.4204970475E-34 -0.7371962024E-34 -0.8430930496E-30  0.0000000000E+00  0.0000000000E+00  0.0000000000E+00
12 -0.1514293597E-35 -0.1137959213E-34  0.3461082718E-35 -0.4164880779E-35 -0.6889536158E-35 -0.8429550679E-30  0.4221427213E-34 -0.1383370766E-29  0.4140058202E-29 -0.1314455740E-33  0.0000000000E+00  0.4221427213E-34 -0.7376428949E-34 -0.8429550679E-30 -0.8429550679E-30  0.4221427213E-34  0.0000000000E+00  0.0000000000E+00 -0.1383370766E-29  0.4140058202E-29 -0.1314455740E-33  0.0000000000E+00  0.0000000000E+00  0.0000000000E+00  0.4221427213E-34 -0.7376428949E-34 -0.8429550679E-30  0.0000000000E+00  0.0000000000E+00  0.0000000000E+00
13 -0.1217683656E-35 -0.8707327998E-35  0.2005770250E-35 -0.3073808830E-35 -0.5514390761E-35 -0.8428859275E-30  0.4233938422E-34 -0.1382959721E-29  0.4138279988E-29 -0.1316831588E-33  0.0000000000E+00  0.4233938422E-34 -0.7378672185E-34 -0.8428859275E-30 -0.8428859275E-30  0.4233938422E-34  0.0000000000E+00  0.0000000000E+00 -0.1382959721E-29  0.4138279988E-29 -0.1316831588E-33  0.0000000000E+00  0.0000000000E+00  0.0000000000E+00  0.4233938422E-34 -0.7378672185E-34 -0.8428859275E-30  0.0000000000E+00  0.0000000000E+00  0.0000000000E+00
14 -0.9184316568E-36 -0.6664765882E-35  0.9670451864E-36 -0.1971239036E-35 -0.4356459272E-35 -0.8428365708E-30  0.4243264169E-34 -0.1382563376E-29  0.4136875024E-29 -0.1318308076E-33  0.0000000000E+00  0.4243264169E-34 -0.7379090632E-34 -0.8428365708E-30 -0.8428365708E-30  0.4243264169E-34  0.0000000000E+00  0.0000000000E+00 -0.1382563376E-29  0.4136875024E-29 -0.1318308076E-33  0.0000000000E+00  0.0000000000E+00  0.0000000000E+00  0.4243264169E-34 -0.7379090632E-34 -0.8428365708E-30  0.0000000000E+00  0.0000000000E+00  0.0000000000E+00
15 -0.6870819990E-36 -0.5123732522E-35  0.3005253096E-36 -0.8201279420E-36 -0.3483073369E-35 -0.8427875338E-30  0.4250082392E-34 -0.1382176588E-29  0.4135751026E-29 -0.1319114534E-33  0.0000000000E+00  0.4250082392E-34 -0.7378545506E-34 -0.8427875338E-30 -0.8427875338E-30  0.4250082392E-34  0.0000000000E+00  0.0000000000E+00 -0.1382176588E-29  0.4135751026E-29 -0.1319114534E-33  0.0000000000E+00  0.0000000000E+00  0.0000000000E+00  0.4250082392E-34 -0.7378545506E-34 -0.8427875338E-30  0.0000000000E+00  0.0000000000E+00  0.0000000000E+00
16 -0.4878881764E-36 -0.3949946002E-35 -0.8225046963E-37  0.5841674087E-37 -0.2750923693E-35 -0.8427325456E-30  0.4254966239E-34 -0.1381842525E-29  0.4134860133E-29 -0.1319520551E-33  0.0000000000E+00  0.4254966239E-34 -0.7377760680E-34 -0.8427325456E-30 -0.8427325456E-30  0.4254966239E-34  0.0000000000E+00  0.0000000000E+00 -0.1381842525E-29  0.4134860133E-29 -0.1319520551E-33  0.0000000000E+00  0.0000000000E+00  0.0000000000E+00  0.4254966239E-34 -0.7377760680E-34 -0.8427325456E-30  0.0000000000E+00  0.0000000000E+00  0.0000000000E+00
17 -0.3478636978E-36 -0.3077237288E-35 -0.2539381036E-36  0.4863122637E-36 -0.2200602075E-35 -0.8426771605E-30  0.4258438346E-34 -0.1381579564E-29  0.4134177901E-29 -0.1319743162E-33  0.0000000000E+00  0.4258438346E-34 -0.7377148301E-34 -0.8426771605E-30 -0.8426771605E-30  0.4258438346E-34  0.0000000000E+00  0.0000000000E+00 -0.1381579564E-29  0.4134177901E-29 -0.1319743162E-33  0.0000000000E+00  0.0000000000E+00  0.0000000000E+00  0.4258438346E-34 -0.7377148301E-34 -0.8426771605E-30  0.0000000000E+00  0.0000000000E+00  0.0000000000E+00
18 -0.2510971917E-36 -0.2435013838E-35 -0.2963042861E-36  0.5638852662E-36 -0.1774500499E-35 -0.8426273262E-30  0.4260917828E-34 -0.1381382823E-29  0.4133667897E-29 -0.1319904946E-33  0.0000000000E+00  0.4260917828E-34 -0.7376818214E-34 -0.8426273262E-30 -0.8426273262E-30  0.4260917828E-34  0.0000000000E+00  0.0000000000E+00 -0.1381382823E-29  0.4133667897E-29 -0.1319904946E-33  0.0000000000E+00  0.0000000000E+00  0.0000000000E+00  0.4260917828E-34 -0.7376818214E-34 -0.8426273262E-30  0.0000000000E+00  0.0000000000E+00  0.0000000000E+00
19 -0.1905431240E-36 -0.1965658768E-35 -0.2726869528E-36  0.4791274686E-36 -0.1450965188E-35 -0.8425867598E-30  0.4262720669E-34 -0.1381237600E-29  0.4133288710E-29 -0.1320048543E-33  0.0000000000E+00  0.4262720669E-34 -0.7376703372E-34 -0.8425867598E-30 -0.8425867598E-30  0.4262720669E-34  0.0000000000E+00  0.0000000000E+00 -0.1381237600E-29  0.4133288710E-29 -0.1320048543E-33  0.0000000000E+00  0.0000000000E+00  0.0000000000E+00  0.4262720669E-34 -0.7376703372E-34 -0.8425867598E-30  0.0000000000E+00  0.0000000000E+00  0.0000000000E+00
20 -0.1513758635E-36 -0.1615382736E-35 -0.2281058897E-36  0.3521862646E-36 -0.1194190858E-35 -0.8425561726E-30  0.4264063146E-34 -0.1381128859E-29  0.4133002793E-29 -0.1320175992E-33  0.0000000000E+00  0.4264063146E-34 -0.7376692362E-34 -0.8425561726E-30 -0.8425561726E-30  0.4264063146E-34  0.0000000000E+00  0.0000000000E+00 -0.1381128859E-29  0.4133002793E-29 -0.1320175992E-33  0.0000000000E+00  0.0000000000E+00  0.0000000000E+00  0.4264063146E-34 -0.7376692362E-34 -0.8425561726E-30  0.0000000000E+00  0.0000000000E+00  0.0000000000E+00
21 -0.1247960201E-36 -0.1342763617E-35 -0.1839452391E-36  0.2300997055E-36 -0.9846460792E-36 -0.8425347411E-30  0.4265084982E-34 -0.1381045330E-29  0.4132783908E-29 -0.1320279248E-33  0.0000000000E+00  0.4265084982E-34 -0.7376702499E-34 -0.8425347411E-30 -0.8425347411E-30  0.4265084982E-34  0.0000000000E+00  0.0000000000E+00 -0.1381045330E-29  0.4132783908E-29 -0.1320279248E-33  0.0000000000E+00  0.0000000000E+00  0.0000000000E+00  0.4265084982E-34 -0.7376702499E-34 -0.8425347411E-30  0.0000000000E+00  0.0000000000E+00  0.0000000000E+00
22 -0.1048313663E-36 -0.1118948922E-35 -0.1465782750E-36  0.1272808075E-36 -0.8084289302E-36 -0.8425208534E-30  0.4265872848E-34 -0.1380980134E-29  0.4132615578E-29 -0.1320354326E-33  0.0000000000E+00  0.4265872848E-34 -0.7376696275E-34 -0.8425208534E-30 -0.8425208534E-30  0.4265872848E-34  0.0000000000E+00  0.0000000000E+00 -0.1380980134E-29  0.4132615578E-29 -0.1320354326E-33  0.0000000000E+00  0.0000000000E+00  0.0000000000E+00  0.4265872848E-34 -0.7376696275E-34 -0.8425208534E-30  0.0000000000E+00  0.0000000000E+00  0.0000000000E+00
23 -0.8899191463E-37 -0.9276581962E-36 -0.1153241575E-36  0.4963914679E-37 -0.6589401319E-36 -0.8425126742E-30  0.4266481988E-34 -0.1380929574E-29  0.4132487362E-29 -0.1320403714E-33  0.0000000000E+00  0.4266481988E-34 -0.7376669204E-34 -0.8425126742E-30 -0.8425126742E-30  0.4266481988E-34  0.0000000000E+00  0.0000000000E+00 -0.1380929574E-29  0.4132487362E-29 -0.1320403714E-33  0.0000000000E+00  0.0000000000E+00  0.0000000000E+00  0.4266481988E-34 -0.7376669204E-34 -0.8425126742E-30  0.0000000000E+00  0.0000000000E+00  0.0000000000E+00
24 -0.7573467240E-37 -0.7612829042E-36 -0.8870571156E-37 -0.1309290105E-38 -0.5318565140E-36 -0.8425083835E-30  0.4266950483E-34 -0.1380891489E-29  0.4132391256E-29 -0.1320433795E-33  0.0000000000E+00  0.4266950483E-34 -0.7376631666E-34 -0.8425083835E-30 -0.8425083835E-30  0.4266950483E-34  0.0000000000E+00  0.0000000000E+00 -0.1380891489E-29  0.4132391256E-29 -0.1320433795E-33  0.0000000000E+00  0.0000000000E+00  0.0000000000E+00  0.4266950483E-34 -0.7376631666E-34 -0.8425083835E-30  0.0000000000E+00  0.0000000000E+00  0.0000000000E+00
25 -0.6433888430E-37 -0.6169377562E-36 -0.6616055130E-37 -0.2918398480E-37 -0.4248132445E-36 -0.8425063979E-30  0.4267307413E-34 -0.1380864044E-29  0.4132320147E-29 -0.1320451563E-33  0.0000000000E+00  0.4267307413E-34 -0.7376595525E-34 -0.8425063979E-30 -0.8425063979E-30  0.4267307413E-34  0.0000000000E+00  0.0000000000E+00 -0.1380864044E-29  0.4132320147E-29 -0.1320451563E-33  0.0000000000E+00  0.0000000000E+00  0.0000000000E+00  0.4267307413E-34 -0.7376595525E-34 -0.8425063979E-30  0.0000000000E+00  0.0000000000E+00  0.0000000000E+00
26 -0.5431695102E-37 -0.4933342164E-36 -0.4779978608E-37 -0.4091046319E-37 -0.3357700265E-36 -0.8425054994E-30  0.4267576481E-34 -0.1380845223E-29  0.4132267581E-29 -0.1320462515E-33  0.0000000000E+00  0.4267576481E-34 -0.7376567874E-34 -0.8425054994E-30 -0.8425054994E-30  0.4267576481E-34  0.0000000000E+00  0.0000000000E+00 -0.1380845223E-29  0.4132267581E-29 -0.1320462515E-33  0.0000000000E+00  0.0000000000E+00  0.0000000000E+00  0.4267576481E-34 -0.7376567874E-34 -0.8425054994E-30  0.0000000000E+00  0.0000000000E+00  0.0000000000E+00
27 -0.4539323454E-37 -0.3893235686E-36 -0.3366536350E-37 -0.4328126417E-37 -0.2627623602E-36 -0.8425048914E-30  0.4267777385E-34 -0.1380832870E-29  0.4132228142E-29 -0.1320470010E-33  0.0000000000E+00  0.4267777385E-34 -0.7376550296E-34 -0.8425048914E-30 -0.8425048914E-30  0.4267777385E-34  0.0000000000E+00  0.0000000000E+00 -0.1380832870E-29  0.4132228142E-29 -0.1320470010E-33  0.0000000000E+00  0.0000000000E+00  0.0000000000E+00  0.4267777385E-34 -0.7376550296E-34 -0.8425048914E-30  0.0000000000E+00  0.0000000000E+00  0.0000000000E+00
28 -0.3737900030E-37 -0.3034200814E-36 -0.2343271877E-37 -0.4099821435E-37 -0.2036823361E-36 -0.8425041599E-30  0.4267926273E-34 -0.1380824956E-29  0.4132197749E-29 -0.1320475638E-33  0.0000000000E+00  0.4267926273E-34 -0.7376540805E-34 -0.8425041599E-30 -0.8425041599E-30  0.4267926273E-34  0.0000000000E+00  0.0000000000E+00 -0.1380824956E-29  0.4132197749E-29 -0.1320475638E-33  0.0000000000E+00  0.0000000000E+00  0.0000000000E+00  0.4267926273E-34 -0.7376540805E-34 -0.8425041599E-30  0.0000000000E+00  0.0000000000E+00  0.0000000000E+00
29 -0.3020930039E-37 -0.2337923928E-36 -0.1642505756E-37 -0.3667940286E-37 -0.1564966626E-36 -0.8425031802E-30  0.4268036024E-34 -0.1380819829E-29  0.4132173663E-29 -0.1320479934E-33  0.0000000000E+00  0.4268036024E-34 -0.7376536214E-34 -0.8425031802E-30 -0.8425031802E-30  0.4268036024E-34  0.0000000000E+00  0.0000000000E+00 -0.1380819829E-29  0.4132173663E-29 -0.1320479934E-33  0.0000000000E+00  0.0000000000E+00  0.0000000000E+00  0.4268036024E-34 -0.7376536214E-34 -0.8425031802E-30  0.0000000000E+00  0.0000000000E+00  0.0000000000E+00
30 -0.2390284547E-37 -0.1783611444E-36 -0.1180762378E-37 -0.3166332966E-37 -0.1193111315E-36 -0.8425020030E-30  0.4268116624E-34 -0.1380816316E-29  0.4132154232E-29 -0.1320483021E-33  0.0000000000E+00  0.4268116624E-34 -0.7376533757E-34 -0.8425020030E-30 -0.8425020030E-30  0.4268116624E-34  0.0000000000E+00  0.0000000000E+00 -0.1380816316E-29  0.4132154232E-29 -0.1320483021E-33  0.0000000000E+00  0.0000000000E+00  0.0000000000E+00  0.4268116624E-34 -0.7376533757E-34 -0.8425020030E-30  0.0000000000E+00  0.0000000000E+00  0.0000000000E+00
31 -0.1850907998E-37 -0.1349345458E-36 -0.8800739541E-38 -0.2664131608E-37 -0.9039643848E-37 -0.8425007524E-30  0.4268175627E-34 -0.1380813703E-29  0.4132138526E-29 -0.1320484984E-33  0.0000000000E+00  0.4268175627E-34 -0.7376531731E-34 -0.8425007524E-30 -0.8425007524E-30  0.4268175627E-34  0.0000000000E+00  0.0000000000E+00 -0.1380813703E-29  0.4132138526E-29 -0.1320484984E-33  0.0000000000E+00  0.0000000000E+00  0.0000000000E+00  0.4268175627E-34 -0.7376531731E-34 -0.8425007524E-30  0.0000000000E+00  0.0000000000E+00  0.0000000000E+00
32 -0.1404080404E-37 -0.1013627159E-36 -0.6810903696E-38 -0.2196052209E-37 -0.6817358608E-37 -0.8424995550E-30  0.4268218665E-34 -0.1380811620E-29  0.4132125994E-29 -0.1320486007E-33  0.0000000000E+00  0.4268218665E-34 -0.7376529454E-34 -0.8424995550E-30 -0.8424995550E-30  0.4268218665E-34  0.0000000000E+00  0.0000000000E+00 -0.1380811620E-29  0.4132125994E-29 -0.1320486007E-33  0.0000000000E+00  0.0000000000E+00  0.0000000000E+00  0.4268218665E-34 -0.7376529454E-34 -0.8424995550E-30  0.0000000000E+00  0.0000000000E+00  0.0000000000E+00
33 -0.1045106714E-37 -0.7567592423E-37 -0.5443473187E-38 -0.1776405324E-37 -0.5123496568E-37 -0.8424985018E-30  0.4268249902E-34 -0.1380809910E-29  0.4132116226E-29 -0.1320486349E-33  0.0000000000E+00  0.4268249902E-34 -0.7376526898E-34 -0.8424985018E-30 -0.8424985018E-30  0.4268249902E-34  0.0000000000E+00  0.0000000000E+00 -0.1380809910E-29  0.4132116226E-29 -0.1320486349E-33  0.0000000000E+00  0.0000000000E+00  0.0000000000E+00  0.4268249902E-34 -0.7376526898E-34 -0.8424985018E-30  0.0000000000E+00  0.0000000000E+00  0.0000000000E+00
34 -0.7644908071E-38 -0.5617560886E-37 -0.4448035870E-38 -0.1409162956E-37 -0.3838392821E-37 -0.8424976375E-30  0.4268272420E-34 -0.1380808519E-29  0.4132108827E-29 -0.1320486281E-33  0.0000000000E+00  0.4268272420E-34 -0.7376524318E-34 -0.8424976375E-30 -0.8424976375E-30  0.4268272420E-34  0.0000000000E+00  0.0000000000E+00 -0.1380808519E-29  0.4132108827E-29 -0.1320486281E-33  0.0000000000E+00  0.0000000000E+00  0.0000000000E+00  0.4268272420E-34 -0.7376524318E-34 -0.8424976375E-30  0.0000000000E+00  0.0000000000E+00  0.0000000000E+00
35 -0.5505222692E-38 -0.4146275176E-37 -0.3663611154E-38 -0.1094921701E-37 -0.2865151908E-37 -0.8424969672E-30  0.4268288514E-34 -0.1380807427E-29  0.4132103389E-29 -0.1320486026E-33  0.0000000000E+00  0.4268288514E-34 -0.7376521984E-34 -0.8424969672E-30 -0.8424969672E-30  0.4268288514E-34  0.0000000000E+00  0.0000000000E+00 -0.1380807427E-29  0.4132103389E-29 -0.1320486026E-33  0.0000000000E+00  0.0000000000E+00  0.0000000000E+00  0.4268288514E-34 -0.7376521984E-34 -0.8424969672E-30  0.0000000000E+00  0.0000000000E+00  0.0000000000E+00
36 -0.3911652041E-38 -0.3042251113E-37 -0.2990391917E-38 -0.8334586522E-38 -0.2128562055E-37 -0.8424964706E-30  0.4268299902E-34 -0.1380806607E-29  0.4132099502E-29 -0.1320485734E-33  0.0000000000E+00  0.4268299902E-34 -0.7376520064E-34 -0.8424964706E-30 -0.8424964706E-30  0.4268299902E-34  0.0000000000E+00  0.0000000000E+00 -0.1380806607E-29  0.4132099502E-29 -0.1320485734E-33  0.0000000000E+00  0.0000000000E+00  0.0000000000E+00  0.4268299902E-34 -0.7376520064E-34 -0.8424964706E-30  0.0000000000E+00  0.0000000000E+00  0.0000000000E+00
37 -0.2751187709E-38 -0.2218381939E-37 -0.2380704719E-38 -0.6229700369E-38 -0.1571645208E-37 -0.8424961153E-30  0.4268307872E-34 -0.1380806020E-29  0.4132096791E-29 -0.1320485480E-33  0.0000000000E+00  0.4268307872E-34 -0.7376518603E-34 -0.8424961153E-30 -0.8424961153E-30  0.4268307872E-34  0.0000000000E+00  0.0000000000E+00 -0.1380806020E-29  0.4132096791E-29 -0.1320485480E-33  0.0000000000E+00  0.0000000000E+00  0.0000000000E+00  0.4268307872E-34 -0.7376518603E-34 -0.8424961153E-30  0.0000000000E+00  0.0000000000E+00  0.0000000000E+00
38 -0.1922432020E-38 -0.1607388087E-37 -0.1826846510E-38 -0.4591680701E-38 -0.1151842703E-37 -0.8424958677E-30  0.4268313392E-34 -0.1380805616E-29  0.4132094935E-29 -0.1320485292E-33  0.0000000000E+00  0.4268313392E-34 -0.7376517557E-34 -0.8424958677E-30 -0.8424958677E-30  0.4268313392E-34  0.0000000000E+00  0.0000000000E+00 -0.1380805616E-29  0.4132094935E-29 -0.1320485292E-33  0.0000000000E+00  0.0000000000E+00  0.0000000000E+00  0.4268313392E-34 -0.7376517557E-34 -0.8424958677E-30  0.0000000000E+00  0.0000000000E+00  0.0000000000E+00
39 -0.1340144446E-38 -0.1157427668E-37 -0.1342970122E-38 -0.3354748805E-38 -0.8373162204E-38 -0.8424956985E-30  0.4268317179E-34 -0.1380805347E-29  0.4132093681E-29 -0.1320485166E-33  0.0000000000E+00  0.4268317179E-34 -0.7376516837E-34 -0.8424956985E-30 -0.8424956985E-30  0.4268317179E-34  0.0000000000E+00  0.0000000000E+00 -0.1380805347E-29  0.4132093681E-29 -0.1320485166E-33  0.0000000000E+00  0.0000000000E+00  0.0000000000E+00  0.4268317179E-34 -0.7376516837E-34 -0.8424956985E-30  0.0000000000E+00  0.0000000000E+00  0.0000000000E+00
40 -0.9347594317E-39 -0.8284980282E-38 -0.9450846833E-39 -0.2442358320E-38 -0.6036130114E-38 -0.8424955844E-30  0.4268319758E-34 -0.1380805169E-29  0.4132092842E-29 -0.1320485083E-33  0.0000000000E+00  0.4268319758E-34 -0.7376516349E-34 -0.8424955844E-30 -0.8424955844E-30  0.4268319758E-34  0.0000000000E+00  0.0000000000E+00 -0.1380805169E-29  0.4132092842E-29 -0.1320485083E-33  0.0000000000E+00  0.0000000000E+00  0.0000000000E+00  0.4268319758E-34 -0.7376516349E-34 -0.8424955844E-30  0.0000000000E+00  0.0000000000E+00  0.0000000000E+00
41 -0.6535354079E-39 -0.5898108577E-38 -0.6393676995E-39 -0.1779729260E-38 -0.4317942645E-38 -0.8424955084E-30  0.4268321508E-34 -0.1380805051E-29  0.4132092283E-29 -0.1320485028E-33  0.0000000000E+00  0.4268321508E-34 -0.7376516013E-34 -0.8424955084E-30 -0.8424955084E-30  0.4268321508E-34  0.0000000000E+00  0.0000000000E+00 -0.1380805051E-29  0.4132092283E-29 -0.1320485028E-33  0.0000000000E+00  0.0000000000E+00  0.0000000000E+00  0.4268321508E-34 -0.7376516013E-34 -0.8424955084E-30  0.0000000000E+00  0.0000000000E+00  0.0000000000E+00
42 -0.4583043873E-39 -0.4178345846E-38 -0.4192403549E-39 -0.1301727390E-38 -0.3068340201E-38 -0.8424954584E-30  0.4268322692E-34 -0.1380804970E-29  0.4132091912E-29 -0.1320484988E-33  0.0000000000E+00  0.4268322692E-34 -0.7376515773E-34 -0.8424954584E-30 -0.8424954584E-30  0.4268322692E-34  0.0000000000E+00  0.0000000000E+00 -0.1380804970E-29  0.4132091912E-29 -0.1320484988E-33  0.0000000000E+00  0.0000000000E+00  0.0000000000E+00  0.4268322692E-34 -0.7376515773E-34 -0.8424954584E-30  0.0000000000E+00  0.0000000000E+00  0.0000000000E+00
43 -0.3222360296E-39 -0.2947283777E-38 -0.2697967283E-39 -0.9564644965E-39 -0.2169046756E-38 -0.8424954260E-30  0.4268323495E-34 -0.1380804912E-29  0.4132091668E-29 -0.1320484956E-33  0.0000000000E+00  0.4268323495E-34 -0.7376515592E-34 -0.8424954260E-30 -0.8424954260E-30  0.4268323495E-34  0.0000000000E+00  0.0000000000E+00 -0.1380804912E-29  0.4132091668E-29 -0.1320484956E-33  0.0000000000E+00  0.0000000000E+00  0.0000000000E+00  0.4268323495E-34 -0.7376515592E-34 -0.8424954260E-30  0.0000000000E+00  0.0000000000E+00  0.0000000000E+00
44 -0.2270976589E-39 -0.2070908730E-38 -0.1731812853E-39 -0.7049735219E-39 -0.1527362172E-38 -0.8424954052E-30  0.4268324040E-34 -0.1380804869E-29  0.4132091506E-29 -0.1320484928E-33  0.0000000000E+00  0.4268324040E-34 -0.7376515451E-34 -0.8424954052E-30 -0.8424954052E-30  0.4268324040E-34  0.0000000000E+00  0.0000000000E+00 -0.1380804869E-29  0.4132091506E-29 -0.1320484928E-33  0.0000000000E+00  0.0000000000E+00  0.0000000000E+00  0.4268324040E-34 -0.7376515451E-34 -0.8424954052E-30  0.0000000000E+00  0.0000000000E+00  0.0000000000E+00
45 -0.1605345214E-39 -0.1450630643E-38 -0.1130178008E-39 -0.5196156593E-39 -0.1073733724E-38 -0.8424953921E-30  0.4268324412E-34 -0.1380804836E-29  0.4132091401E-29 -0.1320484904E-33  0.0000000000E+00  0.4268324412E-34 -0.7376515338E-34 -0.8424953921E-30 -0.8424953921E-30  0.4268324412E-34  0.0000000000E+00  0.0000000000E+00 -0.1380804836E-29  0.4132091401E-29 -0.1320484904E-33  0.0000000000E+00  0.0000000000E+00  0.0000000000E+00  0.4268324412E-34 -0.7376515338E-34 -0.8424953921E-30  0.0000000000E+00  0.0000000000E+00  0.0000000000E+00
46 -0.1135688308E-39 -0.1013176432E-38 -0.7636037598E-40 -0.3817696232E-39 -0.7525706663E-39 -0.8424953837E-30  0.4268324665E-34 -0.1380804811E-29  0.4132091331E-29 -0.1320484883E-33  0.0000000000E+00  0.4268324665E-34 -0.7376515249E-34 -0.8424953837E-30 -0.8424953837E-30  0.4268324665E-34  0.0000000000E+00  0.0000000000E+00 -0.1380804811E-29  0.4132091331E-29 -0.1320484883E-33  0.0000000000E+00  0.0000000000E+00  0.0000000000E+00  0.4268324665E-34 -0.7376515249E-34 -0.8424953837E-30  0.0000000000E+00  0.0000000000E+00  0.0000000000E+00
47 -0.8050010846E-40 -0.7061647932E-39 -0.5408476108E-40 -0.2787143773E-39 -0.5272193310E-39 -0.8424953783E-30  0.4268324837E-34 -0.1380804792E-29  0.4132091286E-29 -0.1320484866E-33  0.0000000000E+00  0.4268324837E-34 -0.7376515180E-34 -0.8424953783E-30 -0.8424953783E-30  0.4268324837E-34  0.0000000000E+00  0.0000000000E+00 -0.1380804792E-29  0.4132091286E-29 -0.1320484866E-33  0.0000000000E+00  0.0000000000E+00  0.0000000000E+00  0.4268324837E-34 -0.7376515180E-34 -0.8424953783E-30  0.0000000000E+00  0.0000000000E+00  0.0000000000E+00
48 -0.5732758154E-40 -0.4913817179E-39 -0.4024137184E-40 -0.2017594713E-39 -0.3690275234E-39 -0.8424953747E-30  0.4268324954E-34 -0.1380804779E-29  0.4132091256E-29 -0.1320484853E-33  0.0000000000E+00  0.4268324954E-34 -0.7376515127E-34 -0.8424953747E-30 -0.8424953747E-30  0.4268324954E-34  0.0000000000E+00  0.0000000000E+00 -0.1380804779E-29  0.4132091256E-29 -0.1320484853E-33  0.0000000000E+00  0.0000000000E+00  0.0000000000E+00  0.4268324954E-34 -0.7376515127E-34 -0.8424953747E-30  0.0000000000E+00  0.0000000000E+00  0.0000000000E+00
49 -0.4058833878E-40 -0.3415982646E-39 -0.3109699853E-40 -0.1449514421E-39 -0.2583374756E-39 -0.8424953721E-30  0.4268325033E-34 -0.1380804769E-29  0.4132091235E-29 -0.1320484842E-33  0.0000000000E+00  0.4268325033E-34 -0.7376515088E-34 -0.8424953721E-30 -0.8424953721E-30  0.4268325033E-34  0.0000000000E+00  0.0000000000E+00 -0.1380804769E-29  0.4132091235E-29 -0.1320484842E-33  0.0000000000E+00  0.0000000000E+00  0.0000000000E+00  0.4268325033E-34 -0.7376515088E-34 -0.8424953721E-30  0.0000000000E+00  0.0000000000E+00  0.0000000000E+00
50 -0.2915033671E-40 -0.2376031306E-39 -0.2454179490E-40 -0.1030692070E-39 -0.1810273350E-39 -0.8424953702E-30  0.4268325085E-34 -0.1380804762E-29  0.4132091221E-29 -0.1320484835E-33  0.0000000000E+00  0.4268325085E-34 -0.7376515059E-34 -0.8424953702E-30 -0.8424953702E-30  0.4268325085E-34  0.0000000000E+00  0.0000000000E+00 -0.1380804762E-29  0.4132091221E-29 -0.1320484835E-33  0.0000000000E+00  0.0000000000E+00  0.0000000000E+00  0.4268325085E-34 -0.7376515059E-34 -0.8424953702E-30  0.0000000000E+00  0.0000000000E+00  0.0000000000E+00
51 -0.2070828605E-40 -0.1650171586E-39 -0.1949600390E-40 -0.7306511335E-40 -0.1260354954E-39 -0.8424953686E-30  0.4268325120E-34 -0.1380804757E-29  0.4132091212E-29 -0.1320484829E-33  0.0000000000E+00  0.4268325120E-34 -0.7376515039E-34 -0.8424953686E-30 -0.8424953686E-30  0.4268325120E-34  0.0000000000E+00  0.0000000000E+00 -0.1380804757E-29  0.4132091212E-29 -0.1320484829E-33  0.0000000000E+00  0.0000000000E+00  0.0000000000E+00  0.4268325120E-34 -0.7376515039E-34 -0.8424953686E-30  0.0000000000E+00  0.0000000000E+00  0.0000000000E+00
52 -0.1469345771E-40 -0.1148451285E-39 -0.1534612901E-40 -0.5135067542E-40 -0.8858331504E-40 -0.8424953674E-30  0.4268325143E-34 -0.1380804754E-29  0.4132091205E-29 -0.1320484825E-33  0.0000000000E+00  0.4268325143E-34 -0.7376515024E-34 -0.8424953674E-30 -0.8424953674E-30  0.4268325143E-34  0.0000000000E+00  0.0000000000E+00 -0.1380804754E-29  0.4132091205E-29 -0.1320484825E-33  0.0000000000E+00  0.0000000000E+00  0.0000000000E+00  0.4268325143E-34 -0.7376515024E-34 -0.8424953674E-30  0.0000000000E+00  0.0000000000E+00  0.0000000000E+00
53 -0.1046357281E-40 -0.7985094714E-40 -0.1189730550E-40 -0.3610181808E-40 -0.6175201257E-40 -0.8424953665E-30  0.4268325158E-34 -0.1380804752E-29  0.4132091200E-29 -0.1320484823E-33  0.0000000000E+00  0.4268325158E-34 -0.7376515014E-34 -0.8424953665E-30 -0.8424953665E-30  0.4268325158E-34  0.0000000000E+00  0.0000000000E+00 -0.1380804752E-29  0.4132091200E-29 -0.1320484823E-33  0.0000000000E+00  0.0000000000E+00  0.0000000000E+00  0.4268325158E-34 -0.7376515014E-34 -0.8424953665E-30  0.0000000000E+00  0.0000000000E+00  0.0000000000E+00
54 -0.7471069874E-41 -0.5570397332E-40 -0.9092241788E-41 -0.2556344919E-40 -0.4355133424E-40 -0.8424953657E-30  0.4268325168E-34 -0.1380804750E-29  0.4132091196E-29 -0.1320484820E-33  0.0000000000E+00  0.4268325168E-34 -0.7376515006E-34 -0.8424953657E-30 -0.8424953657E-30  0.4268325168E-34  0.0000000000E+00  0.0000000000E+00 -0.1380804750E-29  0.4132091196E-29 -0.1320484820E-33  0.0000000000E+00  0.0000000000E+00  0.0000000000E+00  0.4268325168E-34 -0.7376515006E-34 -0.8424953657E-30  0.0000000000E+00  0.0000000000E+00  0.0000000000E+00