title="tecplot geometry and solution file"
variables = x y z rho u v w p mach temperature
zone t="boundary 1 bc-1", solutiontime= 0.1000000E+02, strandid=1001, i=32, j=46, f=feblock
 -0.547472452772E-02  0.116738070295E-17 -0.567610116354E-02  0.116738070295E-17  0.116738070295E-17  0.116738070295E-17 -0.525162568575E-02
 -0.425778988008E-02  0.116738070295E-17  0.116738070295E-17  0.116738070295E-17  0.116738070295E-17  0.116738070295E-17  0.116738070295E-17
  0.116738070295E-17  0.116738070295E-17 -0.338396965251E-02  0.116738070295E-17  0.116738070295E-17  0.116738070295E-17  0.116738070295E-17
  0.116738070295E-17  0.116738070295E-17  0.116738070295E-17  0.116738070295E-17  0.116738070295E-17  0.116738070295E-17  0.116738070295E-17
  0.116738070295E-17  0.116738070295E-17  0.116738070295E-17  0.116738070295E-17
  0.250494200518E+01  0.250494200518E+01  0.127822174353E+01  0.146289271009E+01  0.157686156160E+01  0.308372018325E+00  0.261950149565E-01
 -0.122573467301E+01 -0.600232012419E+00  0.250494200518E+01  0.477386199275E+00  0.742988685424E+00 -0.739814786992E+00  0.177790177481E+01
  0.155830813274E+01  0.250494200518E+01 -0.249658901620E+01 -0.154800130438E+01 -0.487811078581E+00  0.250494200518E+01  0.627766083140E+00
 -0.345533899378E+00 -0.178862290564E+01 -0.158811787973E+01  0.125000000000E+01 -0.249658901620E+01 -0.144524380962E+01  0.116738070295E-17
 -0.125000000000E+01 -0.249658901620E+01 -0.249658901620E+01 -0.249658901620E+01
  0.803216924783E-04  0.125000000000E+01  0.822205278517E-04  0.103724302461E+01  0.219251206392E+01  0.922061490191E+00  0.103877881505E-03
  0.341876513122E-04  0.715990576545E+00  0.250000000000E+01  0.202479342020E+01  0.324151231464E+01  0.175434191980E+01  0.310152362409E+01
  0.404200324774E+01  0.375000000000E+01  0.811362586350E-04  0.930412228790E+00  0.299062775774E+01  0.500000000000E+01  0.429310310915E+01
  0.409252726285E+01  0.187029682677E+01  0.284428995242E+01  0.500000000000E+01  0.125000000000E+01  0.394624082883E+01  0.500000000000E+01
  0.500000000000E+01  0.250000000000E+01  0.375000000000E+01  0.500000000000E+01
  0.100001337010E+01  0.100000777863E+01  0.100001495789E+01  0.100000909808E+01  0.100000489069E+01  0.100001010804E+01  0.100002066420E+01
  0.100002743167E+01  0.100001285130E+01  0.100000413317E+01  0.100000562983E+01  0.100000311523E+01  0.100000676219E+01  0.100000319590E+01
  0.100000210434E+01  0.100000235546E+01  0.100002097613E+01  0.100001126311E+01  0.100000359005E+01  0.100000143194E+01  0.100000194465E+01
  0.100000217052E+01  0.100000645948E+01  0.100000379765E+01  0.100000136824E+01  0.100000927803E+01  0.100000229067E+01  0.100000133004E+01
  0.100000140029E+01  0.100000441755E+01  0.100000250362E+01  0.100000146408E+01
  0.499982547846E+00  0.499991923059E+00  0.499982640185E+00  0.499989780262E+00  0.499994802955E+00  0.499987967413E+00  0.499982114610E+00
  0.499980812198E+00  0.499986149914E+00  0.499995724041E+00  0.499994011346E+00  0.499996817364E+00  0.499992279275E+00  0.499996748889E+00
  0.499997719721E+00  0.499997548627E+00  0.499984278528E+00  0.499986675180E+00  0.499996164872E+00  0.499998328628E+00  0.499997994334E+00
  0.499997750138E+00  0.499993637342E+00  0.499995714282E+00  0.499998529651E+00  0.499990519334E+00  0.499997527107E+00  0.499998570327E+00
  0.499998450194E+00  0.499995408957E+00  0.499997358729E+00  0.499998285601E+00
  0.000000000000E+00  0.000000000000E+00  0.143902341529E-05  0.427375415595E-06  0.587580590266E-07  0.164045253795E-05  0.358047400142E-05
  0.276963644003E-06  0.260607017486E-05  0.000000000000E+00 -0.148624800492E-06 -0.263778676400E-07  0.475725178745E-06  0.742591482735E-07
  0.750745556873E-07  0.000000000000E+00  0.000000000000E+00  0.743688984307E-07 -0.210686236352E-06  0.000000000000E+00 -0.706608097240E-08
 -0.152325917226E-07  0.534748613220E-07 -0.574348637519E-07 -0.506130548020E-07  0.000000000000E+00 -0.185653723929E-07 -0.587115512753E-08
  0.574649288510E-07  0.000000000000E+00  0.000000000000E+00  0.000000000000E+00
  0.434737242316E-05  0.937742997786E-06  0.493443273028E-05  0.143443625401E-05  0.762767381814E-06  0.163574600580E-06  0.490859997588E-05
  0.145048433633E-04  0.420127583706E-05  0.137299922868E-06  0.194178762192E-06  0.646603262791E-07 -0.374207622836E-06  0.163860610400E-06
  0.379479952686E-06  0.437119459461E-07  0.103223938490E-04  0.528746109857E-05  0.798312407820E-07  0.858147369114E-06  0.363116386793E-06
  0.303730134592E-06  0.740774162037E-06 -0.439306784251E-07  0.910313790099E-06  0.289865016854E-05  0.340755495441E-06  0.803304617116E-06
  0.762061343179E-06  0.175813186926E-06 -0.112580579720E-08  0.805682057957E-06
  0.714299096541E+00  0.714293496632E+00  0.714300677084E+00  0.714294802847E+00  0.714290603985E+00  0.714295817139E+00  0.714306362646E+00
  0.714313122515E+00  0.714298554678E+00  0.714289845941E+00  0.714291352450E+00  0.714288830631E+00  0.714292476004E+00  0.714288908919E+00
  0.714287818399E+00  0.714288069230E+00  0.714306675980E+00  0.714297000116E+00  0.714289304585E+00  0.714287145591E+00  0.714287657816E+00
  0.714287883854E+00  0.714292172445E+00  0.714289506499E+00  0.714287081351E+00  0.714294981554E+00  0.714288003295E+00  0.714287043595E+00
  0.714287113144E+00  0.714290131971E+00  0.714288217601E+00  0.714287176932E+00
  0.499981206670E+00  0.499991143915E+00  0.499981142785E+00  0.499988873816E+00  0.499994314241E+00  0.499986958464E+00  0.499980053899E+00
  0.499978077647E+00  0.499984868684E+00  0.499995311260E+00  0.499993445457E+00  0.499996505455E+00  0.499991603239E+00  0.499996429746E+00
  0.499997509366E+00  0.499997313264E+00  0.499982186197E+00  0.499985540993E+00  0.499995805783E+00  0.499998185657E+00  0.499997800262E+00
  0.499997533421E+00  0.499992991869E+00  0.499995336425E+00  0.499998393241E+00  0.499989595335E+00  0.499997298623E+00  0.499998437580E+00
  0.499998310667E+00  0.499994967162E+00  0.499997108477E+00  0.499998139697E+00
  0.100000536499E+01  0.100000311663E+01  0.100000598994E+01  0.100000362587E+01  0.100000195488E+01  0.100000403591E+01  0.100000824334E+01
  0.100001093955E+01  0.100000512518E+01  0.100000165114E+01  0.100000226359E+01  0.100000124765E+01  0.100000270419E+01  0.100000127658E+01
  0.100000084142E+01  0.100000094146E+01  0.100000837007E+01  0.100000453700E+01  0.100000143637E+01  0.100000057189E+01  0.100000077629E+01
  0.100000086687E+01  0.100000258193E+01  0.100000151144E+01  0.100000054565E+01  0.100000369611E+01  0.100000091394E+01  0.100000053099E+01
  0.100000055811E+01  0.100000176720E+01  0.100000100101E+01  0.100000058362E+01
        12        19        11        11
        11         5        12        12
        10        14         5         5
        19        13        11        11
        19        24        13        13
        30        23        24        24
        19        12        22        22
        28        22        21        21
        11        13         6         6
         7         6         9         9
        15        12        14        14
        18        13        23        23
        15        25        21        21
        27        19        22        22
        18         8         9         9
        27        31        24        24
         4        11         6         6
         5        14        12        12
         4         2         5         5
        21        12        15        15
        14        16        15        15
        24        19        27        27
        22        29        27        27
        23        26        18        18
        17         8        18        18
         5        11         4         4
         6         3         4         4
        26        23        30        30
         5         2        10        10
        16        14        10        10
         3         6         7         7
        21        25        28        28
        29        22        28        28
         6        13         9         9
         2         4         1         1
        31        27        32        32
        25        15        20        20
        24        23        13        13
         8         7         9         9
        13        18         9         9
        31        30        24        24
        12        21        22        22
        29        32        27        27
         3         1         4         4
        26        17        18        18
        16        20        15        15
zone t="boundary 2 bc-2", solutiontime= 0.1000000E+02, strandid=1002, i=33, j=48, f=feblock
  0.500195255313E+01  0.375034812201E+01  0.249861146354E+01  0.288036675733E+01  0.124717526151E+01  0.190856699606E+01  0.326577190793E+01
  0.201394857590E+01 -0.338396965251E-02  0.962374261034E+00  0.500000000000E+01  0.403430190133E+01  0.423029563300E+01  0.500000000000E+01
  0.385439188555E+01  0.500000000000E+01  0.398133432910E+01  0.315200081434E+01  0.266958029510E+01  0.154798030854E+01  0.218327860925E+01
  0.893688451288E+00  0.116738070295E-17  0.699009769630E+00  0.964460904435E+00  0.310303671669E+01  0.116738070295E-17  0.116738070295E-17
  0.125000000000E+01  0.500000000000E+01  0.375000000000E+01  0.250000000000E+01  0.116738070295E-17
 -0.249658901620E+01 -0.249658901620E+01 -0.249658901620E+01 -0.249658901620E+01 -0.249658901620E+01 -0.249658901620E+01 -0.249658901620E+01
 -0.249658901620E+01 -0.249658901620E+01 -0.249658901620E+01 -0.249658901620E+01 -0.249658901620E+01 -0.249658901620E+01 -0.249658901620E+01
 -0.249658901620E+01 -0.249658901620E+01 -0.249658901620E+01 -0.249658901620E+01 -0.249658901620E+01 -0.249658901620E+01 -0.249658901620E+01
 -0.249658901620E+01 -0.249658901620E+01 -0.249658901620E+01 -0.249658901620E+01 -0.249658901620E+01 -0.249658901620E+01 -0.249658901620E+01
 -0.249658901620E+01 -0.249658901620E+01 -0.249658901620E+01 -0.249658901620E+01 -0.249658901620E+01
  0.108209237191E-03  0.145875487893E-03  0.100909957516E-03  0.901663357824E+00  0.110895828141E-03  0.714928325670E+00  0.188140643916E+01
  0.175892163457E+01  0.811362586350E-04  0.957504305816E+00  0.125000000000E+01  0.100596693416E+01  0.191313516265E+01  0.250000000000E+01
  0.292898094244E+01  0.375000000000E+01  0.406883368474E+01  0.363389287837E+01  0.284756858001E+01  0.292582306272E+01  0.395754053293E+01
  0.205027256174E+01  0.125000000000E+01  0.306703271839E+01  0.397155765835E+01  0.433068621090E+01  0.250000000000E+01  0.375000000000E+01
  0.500000000000E+01  0.500000000000E+01  0.500000000000E+01  0.500000000000E+01  0.500000000000E+01
  0.999998967992E+00  0.999995705408E+00  0.999994423419E+00  0.999998239916E+00  0.999999442997E+00  0.100000007491E+01  0.999999588840E+00
  0.100000160862E+01  0.100002097613E+01  0.100000549435E+01  0.100000234715E+01  0.999998651437E+00  0.100000055614E+01  0.100000158793E+01
  0.100000083015E+01  0.100000094130E+01  0.100000103302E+01  0.100000123429E+01  0.100000133329E+01  0.100000242156E+01  0.100000175697E+01
  0.100000408650E+01  0.100000927803E+01  0.100000317698E+01  0.100000227319E+01  0.100000140025E+01  0.100000441755E+01  0.100000250362E+01
  0.100000182160E+01  0.100000071719E+01  0.100000126259E+01  0.100000173090E+01  0.100000146408E+01
  0.500013087135E+00  0.500029418979E+00  0.500026902998E+00  0.500017804132E+00  0.500015428610E+00  0.500014793319E+00  0.500007687006E+00
  0.500003834472E+00  0.499984278528E+00  0.499999889520E+00  0.500005066382E+00  0.500016175522E+00  0.500006320520E+00  0.500001789026E+00
  0.500001821929E+00  0.500000444450E+00  0.499999896463E+00  0.500000020810E+00  0.500001230527E+00  0.499998551221E+00  0.499998676123E+00
  0.499997366306E+00  0.499990519334E+00  0.499997126831E+00  0.499997740137E+00  0.499999094269E+00  0.499995408957E+00  0.499997358729E+00
  0.499997622917E+00  0.500000064558E+00  0.499998871065E+00  0.499997978168E+00  0.499998285601E+00
  0.000000000000E+00  0.000000000000E+00  0.000000000000E+00  0.000000000000E+00  0.000000000000E+00  0.000000000000E+00  0.000000000000E+00
  0.000000000000E+00  0.000000000000E+00  0.000000000000E+00  0.000000000000E+00  0.000000000000E+00  0.000000000000E+00  0.000000000000E+00
  0.000000000000E+00  0.000000000000E+00  0.000000000000E+00  0.000000000000E+00  0.000000000000E+00  0.000000000000E+00  0.000000000000E+00
  0.000000000000E+00  0.000000000000E+00  0.000000000000E+00  0.000000000000E+00  0.000000000000E+00  0.000000000000E+00  0.000000000000E+00
  0.000000000000E+00  0.000000000000E+00  0.000000000000E+00  0.000000000000E+00  0.000000000000E+00
 -0.147741857429E-04 -0.143049262321E-05  0.653332472356E-05  0.446267191323E-05  0.123020117805E-04  0.101693177327E-04  0.233895331004E-05
  0.611996926675E-05  0.103223938490E-04  0.104553490106E-04 -0.409935224676E-05 -0.168464750399E-05  0.694338090250E-07  0.139004452731E-05
  0.140245252186E-05  0.194805475230E-05  0.151808099200E-05  0.215742124594E-05  0.306356399500E-05  0.386810074580E-05  0.243019191458E-05
  0.448224331326E-05  0.289865016854E-05  0.190917730214E-05  0.188363901501E-05  0.193046261191E-05  0.175813186926E-06 -0.112580579720E-08
  0.183297546315E-05  0.103991691972E-05  0.136022253693E-05  0.174414988375E-05  0.805682057957E-06
  0.714284653669E+00  0.714281381287E+00  0.714280110579E+00  0.714283929946E+00  0.714285137366E+00  0.714285768652E+00  0.714285309943E+00
  0.714287339549E+00  0.714306675980E+00  0.714291216031E+00  0.714288053601E+00  0.714284346486E+00  0.714286267750E+00  0.714287311161E+00
  0.714286548840E+00  0.714286657688E+00  0.714286748906E+00  0.714286950261E+00  0.714287048635E+00  0.714288133155E+00  0.714287469084E+00
  0.714289798657E+00  0.714294981554E+00  0.714288889492E+00  0.714287986243E+00  0.714287112585E+00  0.714290131971E+00  0.714288217601E+00
  0.714287540580E+00  0.714286422139E+00  0.714286974797E+00  0.714287444280E+00  0.714287176932E+00
  0.500013200571E+00  0.500029861911E+00  0.500027470228E+00  0.500017988657E+00  0.500015491434E+00  0.500014793120E+00  0.500007725742E+00
  0.500003667821E+00  0.499982186197E+00  0.499999337610E+00  0.500004834424E+00  0.500016317119E+00  0.500006265841E+00  0.500001627104E+00
  0.500001737374E+00  0.500000349589E+00  0.499999792602E+00  0.499999896796E+00  0.500001096837E+00  0.499998310023E+00  0.499998501193E+00
  0.499996958426E+00  0.499989595335E+00  0.499996809760E+00  0.499997513255E+00  0.499998954932E+00  0.499994967162E+00  0.499997108477E+00
  0.499997439118E+00  0.499999996109E+00  0.499998745535E+00  0.499997805398E+00  0.499998139697E+00
  0.999999547144E+00  0.999998228386E+00  0.999997731379E+00  0.999999262006E+00  0.999999749315E+00  0.100000000121E+01  0.999999845080E+00
  0.100000066675E+01  0.100000837007E+01  0.100000220808E+01  0.100000092789E+01  0.999999433643E+00  0.100000021871E+01  0.100000064769E+01
  0.100000033823E+01  0.100000037946E+01  0.100000041545E+01  0.100000049607E+01  0.100000053480E+01  0.100000096485E+01  0.100000069975E+01
  0.100000163161E+01  0.100000369611E+01  0.100000126831E+01  0.100000090755E+01  0.100000055736E+01  0.100000176720E+01  0.100000100101E+01
  0.100000073521E+01  0.100000027380E+01  0.100000050213E+01  0.100000069109E+01  0.100000058362E+01
        15         7        19        19
         8        20        19        19
        18        19        21        21
         7         4         8         8
         3         6         4         4
        19         7         8         8
        19        18        15        15
        14        13        15        15
         8        22        20        20
        27        24        22        22
        19        20        21        21
        32        26        21        21
        17        18        26        26
        17        16        15        15
        25        29        21        21
        12         7        13        13
        10         8         6         6
        25        20        24        24
         4         6         8         8
        12         2         4         4
        10        23        22        22
        26        31        17        17
        30        16        17        17
         4         7        12        12
        13        11        12        12
        21        20        25        25
        24        28        25        25
        22         8        10        10
         6         5        10        10
        31        26        32        32
         4         2         3         3
         5         6         3         3
        11        13        14        14
        22        23        27        27
        28        24        27        27
        15        13         7         7
         2        12         1         1
        29        25        33        33
        23        10         9         9
        21        26        18        18
        16        14        15        15
        18        17        15        15
        29        32        21        21
        22        24        20        20
        28        33        25        25
        11         1        12        12
        31        30        17        17
         5         9        10        10
zone t="boundary 3 bc-3", solutiontime= 0.1000000E+02, strandid=1003, i=33, j=48, f=feblock
  0.375059100022E+01  0.249769609016E+01  0.500322139356E+01  0.403612222763E+01  0.287976775181E+01  0.124541907693E+01  0.190552236756E+01
  0.500000000000E+01  0.326671106333E+01  0.423253756071E+01  0.201271138087E+01 -0.547472452772E-02  0.958895628158E+00  0.500000000000E+01
  0.266968148532E+01  0.385584487668E+01  0.890374213116E+00  0.154654014519E+01  0.116738070295E-17  0.500000000000E+01  0.315261137241E+01
  0.218304200095E+01  0.398195307874E+01  0.116738070295E-17  0.697379955531E+00  0.963757281441E+00  0.125000000000E+01  0.116738070295E-17
  0.500000000000E+01  0.310330738720E+01  0.250000000000E+01  0.375000000000E+01  0.116738070295E-17
  0.250494200518E+01  0.250494200518E+01  0.250494200518E+01  0.250494200518E+01  0.250494200518E+01  0.250494200518E+01  0.250494200518E+01
  0.250494200518E+01  0.250494200518E+01  0.250494200518E+01  0.250494200518E+01  0.250494200518E+01  0.250494200518E+01  0.250494200518E+01
  0.250494200518E+01  0.250494200518E+01  0.250494200518E+01  0.250494200518E+01  0.250494200518E+01  0.250494200518E+01  0.250494200518E+01
  0.250494200518E+01  0.250494200518E+01  0.250494200518E+01  0.250494200518E+01  0.250494200518E+01  0.250494200518E+01  0.250494200518E+01
  0.250494200518E+01  0.250494200518E+01  0.250494200518E+01  0.250494200518E+01  0.250494200518E+01
  0.135457002285E-03  0.109983637804E-03  0.964506780630E-04  0.101756739734E+01  0.908094462101E+00  0.103842397884E-03  0.722629008326E+00
  0.125000000000E+01  0.188965653795E+01  0.191862692309E+01  0.176708233165E+01  0.803216924783E-04  0.969652538178E+00  0.250000000000E+01
  0.285339429033E+01  0.293325055335E+01  0.205656222194E+01  0.293157014693E+01  0.125000000000E+01  0.375000000000E+01  0.363766836446E+01
  0.396069443367E+01  0.407056384269E+01  0.250000000000E+01  0.307031994182E+01  0.397359819531E+01  0.500000000000E+01  0.375000000000E+01
  0.500000000000E+01  0.433260780167E+01  0.500000000000E+01  0.500000000000E+01  0.500000000000E+01
  0.999994903131E+00  0.999987749077E+00  0.100000371754E+01  0.999998909493E+00  0.999998087030E+00  0.100000695264E+01  0.100000016912E+01
  0.100000187635E+01  0.999999764804E+00  0.100000016760E+01  0.100000149836E+01  0.100001337010E+01  0.100000600420E+01  0.100000122907E+01
  0.100000120144E+01  0.100000068983E+01  0.100000354267E+01  0.100000243616E+01  0.100000777863E+01  0.100000081722E+01  0.100000115506E+01
  0.100000171693E+01  0.100000092772E+01  0.100000413317E+01  0.100000290855E+01  0.100000212721E+01  0.100000175217E+01  0.100000235546E+01
  0.100000067027E+01  0.100000132562E+01  0.100000167060E+01  0.100000118162E+01  0.100000143194E+01
  0.500025553426E+00  0.500031098778E+00  0.500006944160E+00  0.500013174614E+00  0.500017057447E+00  0.500006257728E+00  0.500011129896E+00
  0.500004205850E+00  0.500006743136E+00  0.500005586911E+00  0.500002935866E+00  0.499982547846E+00  0.499996525517E+00  0.500001728998E+00
  0.500000911698E+00  0.500001603003E+00  0.499997447791E+00  0.499998674257E+00  0.499991923059E+00  0.500000522752E+00  0.499999834920E+00
  0.499998748992E+00  0.499999842190E+00  0.499995724041E+00  0.499997381928E+00  0.499997865838E+00  0.499997731187E+00  0.499997548627E+00
  0.500000083478E+00  0.499999105197E+00  0.499998210645E+00  0.499998902809E+00  0.499998328628E+00
  0.000000000000E+00  0.000000000000E+00  0.000000000000E+00  0.000000000000E+00  0.000000000000E+00  0.000000000000E+00  0.000000000000E+00
  0.000000000000E+00  0.000000000000E+00  0.000000000000E+00  0.000000000000E+00  0.000000000000E+00  0.000000000000E+00  0.000000000000E+00
  0.000000000000E+00  0.000000000000E+00  0.000000000000E+00  0.000000000000E+00  0.000000000000E+00  0.000000000000E+00  0.000000000000E+00
  0.000000000000E+00  0.000000000000E+00  0.000000000000E+00  0.000000000000E+00  0.000000000000E+00  0.000000000000E+00  0.000000000000E+00
  0.000000000000E+00  0.000000000000E+00  0.000000000000E+00  0.000000000000E+00  0.000000000000E+00
 -0.326353939477E-05  0.611600213148E-05 -0.108577234536E-04 -0.483488221463E-05  0.146217676424E-05  0.196117978995E-04  0.107347471950E-04
 -0.393948067714E-05  0.150596475106E-05 -0.714471260039E-06  0.482288644366E-05  0.434737242316E-05  0.766629435137E-05  0.517993745903E-06
  0.258436753277E-05  0.101649876335E-05  0.380529484138E-05  0.320892491961E-05  0.937742997786E-06  0.151928122389E-05  0.185534543586E-05
  0.242952912623E-05  0.133547993748E-05  0.137299922868E-06  0.171979928816E-05  0.172881304032E-05  0.177514537777E-05  0.437119459461E-07
  0.982244363059E-06  0.175797569593E-05  0.175543661574E-05  0.125191097647E-05  0.858147369114E-06
  0.714280598466E+00  0.714273439351E+00  0.714289409937E+00  0.714284584232E+00  0.714283773285E+00  0.714292650883E+00  0.714285882968E+00
  0.714287566771E+00  0.714285489553E+00  0.714285881542E+00  0.714287224415E+00  0.714299096541E+00  0.714291717174E+00  0.714286953300E+00
  0.714286922652E+00  0.714286417097E+00  0.714289255972E+00  0.714288153619E+00  0.714293496632E+00  0.714286536335E+00  0.714286877396E+00
  0.714287431728E+00  0.714286646894E+00  0.714289845941E+00  0.714288623809E+00  0.714287840641E+00  0.714287467607E+00  0.714288069230E+00
  0.714286381427E+00  0.714287038017E+00  0.714287380534E+00  0.714286898424E+00  0.714287145591E+00
  0.500026069786E+00  0.500032332408E+00  0.500006580181E+00  0.500013297533E+00  0.500017258565E+00  0.500005568461E+00  0.500011113253E+00
  0.500004026582E+00  0.500006762996E+00  0.500005570271E+00  0.500002781934E+00  0.499981206670E+00  0.499995925623E+00  0.500001602610E+00
  0.500000789137E+00  0.500001529479E+00  0.499997093887E+00  0.499998429541E+00  0.499991143915E+00  0.500000439341E+00  0.499999716599E+00
  0.499998577125E+00  0.499999747709E+00  0.499995311260E+00  0.499997090738E+00  0.499997653419E+00  0.499997555572E+00  0.499997313264E+00
  0.500000017547E+00  0.499998973300E+00  0.499998045112E+00  0.499998783768E+00  0.499998185657E+00
  0.999997934711E+00  0.999995065955E+00  0.100000145637E+01  0.999999508430E+00  0.999999195567E+00  0.100000275858E+01  0.100000006703E+01
  0.100000071713E+01  0.999999920570E+00  0.100000006656E+01  0.100000061582E+01  0.100000536499E+01  0.100000239983E+01  0.100000050555E+01
  0.100000049027E+01  0.100000029410E+01  0.100000141568E+01  0.100000097891E+01  0.100000311663E+01  0.100000033365E+01  0.100000047330E+01
  0.100000068749E+01  0.100000037793E+01  0.100000165114E+01  0.100000116478E+01  0.100000084969E+01  0.100000070248E+01  0.100000094146E+01
  0.100000026373E+01  0.100000052760E+01  0.100000066215E+01  0.100000047617E+01  0.100000057189E+01
        15         9        16        16
        15        18        11        11
        22        15        21        21
        11         5         9         9
         5         7         2         2
        11         9        15        15
        16        21        15        15
        16        10        14        14
        18        17        11        11
        17        25        24        24
        22        18        15        15
        22        30        31        31
        30        21        23        23
        16        20        23        23
        22        27        26        26
        10         9         4         4
         7        11        13        13
        25        18        26        26
        11         7         5         5
         5         1         4         4
        17        19        13        13
        23        32        30        30
        23        20        29        29
         4         9         5         5
         4         8        10        10
        26        18        22        22
        26        28        25        25
        13        11        17        17
        13         6         7         7
        31        30        32        32
         2         1         5         5
         2         7         6         6
        14        10         8         8
        24        19        17        17
        24        25        28        28
         9        10        16        16
         3         4         1         1
        33        26        27        27
        12        13        19        19
        21        30        22        22
        16        14        20        20
        16        23        21        21
        22        31        27        27
        18        25        17        17
        26        33        28        28
         4         3         8         8
        23        29        32        32
        13        12         6         6
zone t="boundary 4 bc-4", solutiontime= 0.1000000E+02, strandid=1004, i=32, j=46, f=feblock
  0.125000000000E+01  0.219251206392E+01  0.103724302461E+01  0.500000000000E+01  0.250000000000E+01  0.375000000000E+01  0.404200324774E+01
  0.500000000000E+01  0.116738070295E-17  0.310152362409E+01  0.202479342020E+01  0.324151231464E+01  0.922061490191E+00  0.116738070295E-17
  0.299062775774E+01  0.394624082883E+01  0.500000000000E+01  0.409252726285E+01  0.500000000000E+01  0.429310310915E+01  0.175434191980E+01
  0.284428995242E+01  0.116738070295E-17  0.116738070295E-17  0.715990576545E+00  0.930412228790E+00  0.125000000000E+01  0.187029682677E+01
  0.500000000000E+01  0.375000000000E+01  0.250000000000E+01  0.116738070295E-17
  0.250494200518E+01  0.157686156160E+01  0.146289271009E+01  0.250494200518E+01  0.250494200518E+01  0.250494200518E+01  0.155830813274E+01
  0.125000000000E+01  0.250494200518E+01  0.177790177481E+01  0.477386199275E+00  0.742988685424E+00  0.308372018325E+00  0.125000000000E+01
 -0.487811078581E+00 -0.144524380962E+01 -0.125000000000E+01 -0.345533899378E+00  0.116738070295E-17  0.627766083140E+00 -0.739814786992E+00
 -0.158811787973E+01  0.116738070295E-17 -0.125000000000E+01 -0.600232012419E+00 -0.154800130438E+01 -0.249658901620E+01 -0.178862290564E+01
 -0.249658901620E+01 -0.249658901620E+01 -0.249658901620E+01 -0.249658901620E+01
  0.500000000000E+01  0.500000000000E+01  0.500000000000E+01  0.500000000000E+01  0.500000000000E+01  0.500000000000E+01  0.500000000000E+01
  0.500000000000E+01  0.500000000000E+01  0.500000000000E+01  0.500000000000E+01  0.500000000000E+01  0.500000000000E+01  0.500000000000E+01
  0.500000000000E+01  0.500000000000E+01  0.500000000000E+01  0.500000000000E+01  0.500000000000E+01  0.500000000000E+01  0.500000000000E+01
  0.500000000000E+01  0.500000000000E+01  0.500000000000E+01  0.500000000000E+01  0.500000000000E+01  0.500000000000E+01  0.500000000000E+01
  0.500000000000E+01  0.500000000000E+01  0.500000000000E+01  0.500000000000E+01
  0.100000175217E+01  0.100000172863E+01  0.100000161651E+01  0.100000067027E+01  0.100000167060E+01  0.100000118162E+01  0.100000108605E+01
  0.100000063973E+01  0.100000143194E+01  0.100000144816E+01  0.100000176876E+01  0.100000144661E+01  0.100000154079E+01  0.100000136824E+01
  0.100000156780E+01  0.100000115117E+01  0.100000063704E+01  0.100000113845E+01  0.100000064511E+01  0.100000099450E+01  0.100000186599E+01
  0.100000163336E+01  0.100000133004E+01  0.100000140029E+01  0.100000149335E+01  0.100000161716E+01  0.100000182160E+01  0.100000185813E+01
  0.100000071719E+01  0.100000126259E+01  0.100000173090E+01  0.100000146408E+01
  0.499997731187E+00  0.499997976975E+00  0.499997861750E+00  0.500000083478E+00  0.499998210645E+00  0.499998902809E+00  0.499998981658E+00
  0.500000123420E+00  0.499998328628E+00  0.499998519144E+00  0.499997834268E+00  0.499998443488E+00  0.499998010946E+00  0.499998529651E+00
  0.499998292757E+00  0.499998888206E+00  0.499999937318E+00  0.499998975806E+00  0.500000117002E+00  0.499999189426E+00  0.499997733046E+00
  0.499998213209E+00  0.499998570327E+00  0.499998450194E+00  0.499998099426E+00  0.499997861305E+00  0.499997622917E+00  0.499997685723E+00
  0.500000064558E+00  0.499998871065E+00  0.499997978168E+00  0.499998285601E+00
  0.000000000000E+00 -0.942900665787E-07 -0.757311570310E-07  0.000000000000E+00  0.000000000000E+00  0.000000000000E+00  0.120033733838E-06
  0.132972905023E-06  0.000000000000E+00 -0.180887906360E-07  0.227298335076E-07  0.184777952573E-07  0.423111759869E-07 -0.506130548020E-07
  0.581843856746E-07 -0.509317871586E-07 -0.228966197251E-07 -0.598495851076E-07  0.611879690659E-08  0.653953332002E-07  0.139864473621E-06
  0.563791742657E-07 -0.587115512753E-08  0.574649288510E-07  0.920445455075E-07  0.165860324136E-06  0.000000000000E+00  0.109706141147E-06
  0.000000000000E+00  0.000000000000E+00  0.000000000000E+00  0.000000000000E+00