# vtk DataFile Version 2.0
FUN3D:global_image_vtk
ASCII
DATASET UNSTRUCTURED_GRID
POINTS 213 double
   -0.5474724527720465E-02    0.4999999999999979E-30    0.2504942005182237E+01
    0.1212121212121228E-30    0.8032169247834675E-04    0.5000000000000000E-30
    0.1245419076928181E+01    0.9999999999999987E-30    0.2504942005182237E+01
    0.1212121212121228E-30    0.1038423978844127E-03    0.1000000000000000E-29
    0.2497696090161273E+01    0.4999999999999993E-30    0.2504942005182237E+01
    0.1212121212121228E-30    0.1099836378041785E-03    0.5000000000000000E-30
    0.3750591000219316E+01    0.1000000000000000E-29    0.2504942005182237E+01
    0.1212121212121228E-30    0.1354570022851220E-03    0.1000000000000000E-29
    0.5003221393557218E+01    0.5000000000000007E-30    0.2504942005182237E+01
    0.1212121212121228E-30    0.9645067806302032E-04    0.5000000000000000E-30
    0.5004676757730219E+01    0.1000000000000001E-29    0.1281291415003748E+01
    0.5000000000000102E-30    0.1636229492601449E-03    0.1000000000000000E-29
    0.5004772733265148E+01    0.5000000000000015E-30    0.2775097973138349E-01
    0.1000000000000010E-29    0.1902234218277843E-03    0.5000000000000000E-30
    0.5003581221826500E+01    0.1000000000000000E-29   -0.1225853358120849E+01
    0.5000000000000080E-30    0.1607086259254320E-03    0.1000000000000000E-29
    0.5001952553134515E+01    0.5000000000000000E-30   -0.2496589016202556E+01
    0.1212121212121223E-30    0.1082092371909593E-03    0.5000000000000000E-30
    0.3750348122005903E+01    0.1000000000000000E-29   -0.2496589016202556E+01
    0.1212121212121223E-30    0.1458754878926882E-03    0.1000000000000000E-29
    0.2498611463539534E+01    0.4999999999999993E-30   -0.2496589016202556E+01
    0.1212121212121223E-30    0.1009099575163264E-03    0.5000000000000000E-30
    0.1247175261509345E+01    0.9999999999999987E-30   -0.2496589016202556E+01
    0.1212121212121223E-30    0.1108958281412220E-03    0.1000000000000000E-29
   -0.3383969652505758E-02    0.4999999999999986E-30   -0.2496589016202556E+01
    0.1212121212121223E-30    0.8113625863498397E-04    0.5000000000000000E-30
   -0.4257789880083962E-02    0.9999999999999987E-30   -0.1225734673006506E+01
    0.5000000000000080E-30    0.3418765131224527E-04    0.1000000000000000E-29
   -0.5251625685752881E-02    0.4999999999999979E-30    0.2619501495648065E-01
    0.1000000000000009E-29    0.1038778815052877E-03    0.5000000000000000E-30
   -0.5676101163537783E-02    0.9999999999999971E-30    0.1278221743531552E+01
    0.5000000000000095E-30    0.8222052785172851E-04    0.1000000000000000E-29
    0.9003209217918744E+00    0.4999999999999979E-30    0.1608979307788059E+01
    0.1000000000000010E-29    0.8697986548433789E-04    0.5000000000000000E-30
    0.3983172228635397E+01    0.1000000000000000E-29   -0.1561211762270739E+01
    0.5000000000000073E-30    0.1756748276819931E-03    0.1000000000000000E-29
    0.4035602079387497E+01    0.5000000000000000E-30    0.1486760266126256E+01
    0.1000000000000010E-29    0.1711707047749034E-03    0.5000000000000000E-30
    0.1036613706197667E+01    0.9999999999999987E-30   -0.1455626287809795E+01
    0.5000000000000080E-30    0.1047334602207739E-03    0.1000000000000000E-29
    0.1094353449885713E+01    0.4999999999999979E-30   -0.2964620398744432E+00
    0.1000000000000013E-29    0.1260432505361120E-03    0.5000000000000000E-30
    0.7298399877477202E+00    0.9999999999999987E-30    0.6874686505129548E+00
    0.5000000000000169E-30    0.1044287519396114E-03    0.1000000000000000E-29
    0.1617018623563139E+01    0.4999999999999979E-30    0.8553209978666024E+00
    0.1000000000000026E-29    0.1529204880539314E-03    0.5000000000000000E-30
    0.2143199653243216E+01    0.9999999999999987E-30   -0.1627128369725139E+01
    0.5000000000000073E-30    0.1606130269572459E-03    0.1000000000000000E-29
    0.4088840479725206E+01    0.5000000000000007E-30   -0.4351046111829278E+00
    0.1000000000000013E-29    0.2719113083121671E-03    0.5000000000000000E-30
    0.2977916509313599E+01    0.1000000000000000E-29   -0.8334989944101466E+00
    0.5000000000000162E-30    0.2245152651590421E-03    0.1000000000000000E-29
    0.3044093243998181E+01    0.4999999999999993E-30   -0.1814361085633255E+01
    0.1000000000000009E-29    0.1616866806658512E-03    0.5000000000000000E-30
    0.3427866629114899E+01    0.1000000000000000E-29    0.3813906924713181E+00
    0.5000000000000132E-30    0.2935982523095126E-03    0.1000000000000000E-29
    0.4313225407775678E+01    0.5000000000000007E-30    0.5489135452820479E+00
    0.1000000000000028E-29    0.2311713600814391E-03    0.5000000000000000E-30
    0.1823032713305475E+01    0.9999999999999987E-30    0.1771265414466481E+01
    0.5000000000000117E-30    0.1835256528172624E-03    0.1000000000000000E-29
    0.2806311149527428E+01    0.4999999999999993E-30    0.1358629605767851E+01
    0.1000000000000010E-29    0.1942351855950819E-03    0.5000000000000000E-30
    0.1891860854168224E+01    0.9999999999999987E-30   -0.8481308814147367E+00
    0.5000000000000257E-30    0.1670436487611893E-03    0.1000000000000000E-29
    0.2268769174863770E+01    0.4999999999999979E-30    0.7723710290210216E-01
    0.1000000000000010E-29    0.2071744628142080E-03    0.5000000000000000E-30
    0.5000000000000000E+01    0.1277190205811286E-46    0.2504942005182237E+01
    0.1212121212121228E-30    0.1250000000000000E+01    0.1277190205811286E-46
    0.5000000000000000E+01    0.1277190205811286E-46    0.2504942005182237E+01
    0.1212121212121228E-30    0.2500000000000000E+01    0.1277190205811286E-46
    0.5000000000000000E+01    0.1277190205811286E-46    0.2504942005182237E+01
    0.1212121212121228E-30    0.3750000000000000E+01    0.1277190205811286E-46
    0.5000000000000000E+01    0.1277190205811286E-46    0.2504942005182237E+01
    0.1212121212121228E-30    0.5000000000000000E+01    0.1277190205811286E-46
    0.3750000000000000E+01    0.1277190205811286E-46    0.2504942005182237E+01
    0.1212121212121228E-30    0.5000000000000000E+01    0.1277190205811286E-46
    0.2500000000000000E+01    0.1277190205811286E-46    0.2504942005182237E+01
    0.1212121212121228E-30    0.5000000000000000E+01    0.1277190205811286E-46
    0.1250000000000000E+01    0.1277190205811286E-46    0.2504942005182237E+01
    0.1212121212121228E-30    0.5000000000000000E+01    0.1277190205811286E-46
    0.7724518518648884E-19    0.1277190205811286E-46    0.2504942005182237E+01
    0.1212121212121228E-30    0.5000000000000000E+01    0.1277190205811286E-46
    0.7724518518648884E-19    0.1277190205811286E-46    0.2504942005182237E+01
    0.1212121212121228E-30    0.3750000000000000E+01    0.1277190205811286E-46
    0.7724518518648884E-19    0.1277190205811286E-46    0.2504942005182237E+01
    0.1212121212121228E-30    0.2500000000000000E+01    0.1277190205811286E-46
    0.7724518518648884E-19    0.1277190205811286E-46    0.2504942005182237E+01
    0.1212121212121228E-30    0.1250000000000000E+01    0.1277190205811286E-46
    0.9588956281582821E+00    0.4088323204880318E-30    0.2504942005182237E+01
    0.1212121212121228E-30    0.9696525381778107E+00    0.8253355966552077E-30
    0.3981953078740101E+01    0.7369699780742441E-31    0.2504942005182237E+01
    0.1212121212121228E-30    0.4070563842691149E+01    0.1516277355830369E-30
    0.4036122227630506E+01    0.5331184872987974E-30    0.2504942005182237E+01
    0.1212121212121228E-30    0.1017567397338644E+01    0.8139234257758192E-30
    0.9637572814407706E+00   -0.9331067766403717E-32    0.2504942005182237E+01
    0.1212121212121228E-30    0.3973598195308711E+01    0.1306014370161729E-30
    0.1546540145185356E+01    0.8002905657938641E-31    0.2504942005182237E+01
    0.1212121212121228E-30    0.2931570146934813E+01    0.3996885550963169E-30
    0.6973799555312562E+00    0.3481309068573319E-32    0.2504942005182237E+01
    0.1212121212121228E-30    0.3070319941818703E+01    0.2100037182689521E-30
    0.8903742131161810E+00    0.7712488796380644E-31    0.2504942005182237E+01
    0.1212121212121228E-30    0.2056562221935373E+01    0.4294668085395544E-30
    0.2183042000952686E+01    0.3782461580946909E-31    0.2504942005182237E+01
    0.1212121212121228E-30    0.3960694433674115E+01    0.2259705361714544E-30
    0.3855844876676127E+01    0.1784932175604119E-30    0.2504942005182237E+01
    0.1212121212121228E-30    0.2933250553352366E+01    0.3558534735537231E-30
    0.3152611372410319E+01    0.1115283363378235E-30    0.2504942005182237E+01
    0.1212121212121228E-30    0.3637668364457151E+01    0.2959845527158832E-30
    0.3103307387204182E+01    0.5185271477197096E-31    0.2504942005182237E+01
    0.1212121212121228E-30    0.4332607801667730E+01    0.1521436499778487E-30
    0.3266711063327834E+01    0.3601961362740244E-30    0.2504942005182237E+01
    0.1212121212121228E-30    0.1889656537948559E+01    0.6353768785674024E-30
    0.4232537560711024E+01    0.2580489315428797E-30    0.2504942005182237E+01
    0.1212121212121228E-30    0.1918626923091980E+01    0.4090791405810166E-30
    0.1905522367559471E+01    0.6572817491139529E-30    0.2504942005182237E+01
    0.1212121212121228E-30    0.7226290083262537E+00    0.8977306600900175E-30
    0.2879767751810979E+01    0.6107141644546315E-30    0.2504942005182237E+01
    0.1212121212121228E-30    0.9080944621009355E+00    0.8180347387425763E-30
    0.2012711380865118E+01    0.3615868018464695E-30    0.2504942005182237E+01
    0.1212121212121228E-30    0.1767082331652570E+01    0.7060364642885799E-30
    0.2669681485317436E+01    0.1849800474543502E-30    0.2504942005182237E+01
    0.1212121212121228E-30    0.2853394290333895E+01    0.4820509466871033E-30
    0.5000000000000000E+01    0.1277190205811286E-46    0.1250000000000000E+01
    0.1277190205811286E-46    0.5000000000000000E+01    0.1277190205811286E-46
    0.5000000000000000E+01    0.1277190205811286E-46    0.7724518518648884E-19
[...]
POINT_DATA 213
SCALARS rho double 1
LOOKUP_TABLE default
   0.1000013398958710E+01
  -0.4579149217901631E-32
   0.1000006897158280E+01
   0.4446124798121707E-31
   0.9999877166147411E+00
  -0.2439315268921724E-31
   0.9999949102653866E+00
   0.2191661329135541E-31
   0.1000003751992962E+01
  -0.5075924297288933E-32
   0.1000005486339641E+01
   0.1490518489728941E-30
   0.9999935158111497E+00
   0.8252179732897794E-31
   0.9999980374597441E+00
   0.5298018766354583E-31
   0.9999991048276012E+00
  -0.8552513789044783E-31
   0.9999957846236291E+00
   0.4323037268050276E-31
   0.9999944099865481E+00
  -0.3568837062489240E-31
   0.9999994176368087E+00
  -0.2912529271229661E-31
   0.1000020903625976E+01
   0.6613033561085212E-31
   0.1000027312184722E+01
  -0.1629581531684337E-31
   0.1000020564061180E+01
   0.2787883830799791E-31
   0.1000014939723923E+01
  -0.4405459287086333E-31
   0.1000016746907725E+01
   0.1660737914277762E-31
   0.9999901510468112E+00
  -0.7396264401539544E-33
   0.9999910316486676E+00
   0.6094019068116438E-32
   0.1000010232171817E+01
   0.1700478706105763E-31
   0.1000010730906592E+01
  -0.7595492347517651E-32
   0.1000011996586030E+01
  -0.5301406689535723E-31
   0.1000006612930880E+01
  -0.1450918699328396E-31
   0.9999953583346981E+00
  -0.7100174769955909E-31
   0.9999822723861806E+00
  -0.3611189509335466E-31
   0.9999917765024647E+00
  -0.2854283240615172E-31
   0.9999938357751517E+00
   0.6166130434901628E-31
   0.9999886455245992E+00
  -0.3141286890415264E-31
   0.9999818683252194E+00
   0.7383622125319271E-32
   0.9999993735319720E+00
  -0.3009546680899294E-31
   0.9999907325364272E+00
   0.3037792868726068E-31
   0.1000001566931490E+01
   0.2082934892605350E-31
   0.1000001340636619E+01
   0.7751655851025991E-31
   0.1000001768793422E+01
   0.4740443700735751E-32
   0.1000001232715443E+01
   0.8535527142129913E-33
   0.1000000849177910E+01
   0.3257262712751361E-33
   0.1000000683689489E+01
   0.1585357678137825E-33
   0.1000001186218773E+01
   0.2403336781595254E-33
   0.1000001662999050E+01
   0.2177351063130765E-33
   0.1000001781498776E+01
   0.5592792037035885E-34
   0.1000001431693164E+01
  -0.5064252327165974E-34
   0.1000002375074942E+01
  -0.7607570452808668E-34
   0.1000004126381439E+01
  -0.1259449159854959E-32
   0.1000007792335568E+01
  -0.2518540147512124E-32
   0.1000005984687742E+01
   0.4606778249820965E-32
   0.1000000960842165E+01
   0.4666210788047790E-33
   0.9999988582159494E+00
   0.7745930047548372E-32
   0.1000002125168909E+01
   0.6588239250572269E-34
   0.1000002434996923E+01
   0.4793646134614842E-33
   0.1000002896383974E+01
  -0.1435680688560325E-33
   0.1000003533559520E+01
  -0.2626755513212580E-33
   0.1000001712268086E+01
   0.2746924576157371E-33
   0.1000000714374365E+01
   0.1203669001575221E-32
   0.1000001155769792E+01
   0.5084006955250791E-33
   0.1000001329192373E+01
   0.3788970866251136E-33
   0.9999997358597968E+00
   0.2682273043901539E-32
   0.1000000117793930E+01
   0.3166707506431462E-32
   0.1000000159830992E+01
  -0.2320827585885057E-32
   0.9999979904270339E+00
   0.5734305811215583E-32
   0.1000001506208116E+01
   0.5791039783547428E-33
   0.1000001177953949E+01
   0.1102659274938286E-32
   0.1000000667053738E+01
   0.1349715338904073E-33
   0.1000000663302772E+01
   0.5880427790591303E-34
   0.1000000660404571E+01
  -0.6047614824157196E-35
   0.1000000735180272E+01
  -0.2461851176120283E-34
   0.1000000960212305E+01
   0.1894065770572004E-33
   0.1000001530668014E+01
  -0.9624064793526137E-34
   0.1000002261937989E+01
   0.3951293854265130E-33
   0.1000001916058140E+01
   0.7262689717793782E-32
   0.1000000725401476E+01
   0.8043458370169760E-34
   0.1000000688580560E+01
   0.3254552691236970E-33
   0.1000002655040115E+01
   0.9270403816821954E-33
   0.1000005619501311E+01
   0.1295450222878544E-31
   0.1000004750536823E+01
   0.1690342868991003E-31
   0.1000000861456028E+01
   0.4875835247874149E-32
   0.1000001952406166E+01
   0.1144129399736389E-32
   0.1000000655756131E+01
   0.1608514533130038E-33
   0.1000001413387322E+01
   0.6583131440843338E-33
   0.1000001276437605E+01
   0.2978829944084286E-33
   0.1000000944521260E+01
   0.3829666664126224E-33
   0.1000000637855771E+01
   0.8000340515859213E-34
   0.1000001436271758E+01
   0.3866179292419159E-32
   0.1000000995861412E+01
   0.1177110141950137E-32
   0.1000002320962211E+01
   0.1659382661795583E-32
   0.1000001385229686E+01
   0.1869251911859208E-32
   0.1000001361387445E+01
  -0.4839062410879712E-34
   0.1000001331831381E+01
  -0.5578925977284848E-34
   0.1000001398032709E+01
  -0.6153575324553373E-35
   0.1000001474789200E+01
  -0.1022176561232099E-37
   0.1000001847186111E+01
  -0.3841971715884385E-34
   0.1000001705646126E+01
  -0.3754367912155939E-34
   0.1000001252212938E+01
  -0.2519330478978202E-34
   0.1000001081872857E+01
   0.2249454067541189E-33
   0.1000001634553444E+01
  -0.2291892115863043E-34
   0.1000001636207397E+01
   0.2391555145944732E-34
   0.1000001123575323E+01
  -0.3204905791640450E-34
   0.1000001124393524E+01
   0.9649956775309986E-34
   0.1000001014108762E+01
   0.1503811101144038E-33
   0.1000001432263529E+01
   0.1497632623661539E-33
   0.1000001608257972E+01
   0.7837731790342494E-35
   0.1000001506592600E+01
  -0.3271609220537769E-34
   0.1000001875031288E+01
   0.5987166953923312E-35
   0.1000001860938982E+01
  -0.4340464166811612E-34
   0.1000001554459371E+01
  -0.9019635570747195E-36
   0.1000001439052928E+01
   0.2204627394830898E-33
   0.1000001728969601E+01
   0.1568173112228598E-33
   0.1000001769139060E+01
   0.6990946683346897E-34
   0.1000001546767444E+01
   0.4567040740435901E-34
   0.1000009251186311E+01
   0.7538985585204957E-32
   0.1000004424621993E+01
   0.1430083337469532E-32
   0.1000002511311453E+01
   0.2497597445839715E-33
   0.1000002103338115E+01
  -0.6674436165528221E-34
   0.1000011247229742E+01
   0.5544603976987059E-32
   0.1000009105465091E+01
  -0.5482077975911487E-32
   0.1000002286795151E+01
   0.7955269612930342E-34
   0.1000002163658686E+01
  -0.3039474968937091E-34
   0.1000001942399631E+01
  -0.1931872564716962E-34
   0.1000003119547849E+01
  -0.1646179132267097E-33
   0.1000003789189766E+01
   0.8181142706562778E-33
   0.1000012788200271E+01
   0.1964913942092470E-32
   0.1000006774135005E+01
   0.3214916170678889E-32
   0.1000006444291387E+01
   0.2552290342867886E-32
   0.1000010072184932E+01
   0.4819497262599797E-33
   0.1000003206496564E+01
  -0.3978715889705827E-33
   0.1000004884506590E+01
  -0.1644871912164381E-32
   0.1000005652559294E+01
  -0.1082434936469271E-32
   0.1000003590396349E+01
   0.9246130934939409E-34
   0.1000005472241036E+01
  -0.3692680468049220E-32
   0.1000001047924457E+01
   0.1055549884588534E-34
   0.9999986505614861E+00
   0.7002036502890109E-33
   0.1000002268209338E+01
   0.4981159073609813E-34
   0.1000002423575525E+01
  -0.1888681262340132E-33
   0.1000003168751542E+01
   0.8312262095093624E-35
   0.1000004081254096E+01
  -0.3105141904728092E-33
   0.1000001763159812E+01
  -0.8581738293383650E-34
   0.1000000809657486E+01
  -0.9247029917812017E-35
   0.1000001216469215E+01
   0.5549192765846253E-34
   0.1000001395374994E+01
   0.1888820579832334E-34
   0.9999995455363684E+00
  -0.1184024892443724E-34
   0.1000000492324242E+01
   0.1677106099861885E-33
   0.1000000041664117E+01
  -0.2008139604909987E-31
   0.9999982226423088E+00
   0.5771351427627791E-32
   0.1000001629064166E+01
  -0.8245710830410038E-33
   0.1000001331600630E+01
  -0.2453239606983598E-34
   0.1000001307428437E+01
  -0.1874934169274774E-34
   0.1000002036248343E+01
   0.1855774206289714E-33
   0.1000002295369498E+01
   0.8965642571694398E-34
   0.1000002824705791E+01
   0.7756780781177015E-33
   0.1000003788481450E+01
   0.2848968738982778E-33
   0.1000006333334866E+01
   0.4167930947723925E-34
   0.1000003075099411E+01
   0.2430249411588101E-32
   0.1000002610280736E+01
  -0.8206263438243815E-34
   0.1000002153610082E+01
   0.2059422051947625E-33
   0.1000002888356188E+01
  -0.9579337456739721E-35
   0.1000002896592837E+01
   0.6331418556173868E-33
   0.1000005883414948E+01
  -0.2150190208157743E-32
   0.1000001879149313E+01
  -0.2370965120716902E-34
   0.1000001358644606E+01
   0.4719380562836978E-33
   0.1000000166570203E+01
   0.2141876339300032E-32
   0.1000000598979613E+01
   0.1165058423227935E-32
   0.1000001103038761E+01
   0.3152675431579576E-33
   0.1000000584781710E+01
   0.1240477293782386E-32
   0.1000001543239073E+01
   0.9581017128716064E-34
   0.1000001718858835E+01
   0.1770883656146590E-33
   0.1000001226815822E+01
   0.2925825346829979E-33
   0.1000000793594227E+01
   0.3948711386194898E-33
   0.1000001466697752E+01
   0.1870537254736792E-33
   0.1000002039136634E+01
   0.1428343784302358E-35
   0.1000004196062440E+01
   0.2556828498475727E-33
   0.1000003196060387E+01
  -0.5045515742271695E-33
   0.1000001500539132E+01
  -0.5904285787214198E-34
   0.1000002008057820E+01
  -0.1543820931622648E-34
   0.1000003004278743E+01
   0.2326507392851474E-33
   0.9999987262123370E+00
   0.2262519313386889E-32
   0.1000003443775716E+01
   0.4128492559971481E-32
   0.1000000215453423E+01
  -0.1361273605479766E-33
   0.1000000919997095E+01
   0.8166328817958391E-33
   0.9999996470336068E+00
   0.4021330465939755E-32
   0.1000000217339173E+01
   0.7342383739525522E-33
   0.1000007150733046E+01
  -0.4152901761813830E-32
   0.1000005152064827E+01
  -0.8940657026554169E-33
   0.1000007010425245E+01
  -0.4845085486246166E-33
   0.1000000968244950E+01
   0.2550610638138848E-33
   0.1000001464147838E+01
   0.3237618396001223E-33
   0.1000000720646948E+01
   0.3747534895471553E-33
   0.1000000422453253E+01
  -0.2042035229611156E-33
   0.9999999975770356E+00
   0.1556757782347077E-33
   0.1000000824641847E+01
   0.3409079296209812E-33
   0.1000001079338201E+01
   0.2001408472602850E-33
   0.1000000956042797E+01
   0.1830853862589558E-33
   0.1000001362835338E+01
   0.1951002173541061E-33
   0.9999994188157995E+00
   0.5329584041449765E-32
   0.9999992369360448E+00
   0.1056831511581849E-31
   0.9999993317191420E+00
   0.4217949075538269E-32
   0.9999999715913107E+00
   0.9458857032726065E-34
   0.9999980421725088E+00
  -0.1975800939849492E-32
   0.9999985732022747E+00
   0.1995970013692322E-32
   0.1000000629622694E+01
   0.3648331405596851E-32
   0.9999997617642579E+00
   0.2014620026725425E-32
   0.9999936953736706E+00
  -0.1462848754447029E-32
   0.1000002060349743E+01
  -0.3779200631079147E-34
   0.1000001743618398E+01
   0.5569418312595531E-34
   0.1000001110505604E+01
   0.1874535121085824E-33
   0.1000000888141020E+01
   0.5933528664459226E-33
   0.9999957231259281E+00
   0.5944482858824029E-32
   0.9999938673218015E+00
   0.6064974488272211E-32
   0.9999969715224998E+00
   0.3495799391504379E-32
   0.1000001564513887E+01
   0.6056460457626024E-34
   0.1000001219325296E+01
   0.8047434664575238E-34
   0.1000000929976487E+01
   0.6181738557000006E-33
   0.1000000838752748E+01
   0.3805281560260424E-35
   0.1000001762289447E+01
  -0.6128285023760832E-32
   0.9999946525448872E+00
  -0.2631700602260124E-32
SCALARS u double 1
LOOKUP_TABLE default
   0.4999825459990614E+00
  -0.1713990825337049E-31
   0.5000062048666239E+00
   0.2498674768584458E-34
   0.5000311908339053E+00
  -0.3145703213416704E-32
   0.5000259195082879E+00
  -0.3965484472447300E-31
   0.5000072377225799E+00
  -0.2382170016826751E-31
   0.5000050927580499E+00
  -0.1293358561810647E-30
   0.5000129641898051E+00
  -0.8960908123561153E-31
   0.5000124662873110E+00
  -0.4750863297240026E-31
   0.5000135873433866E+00
   0.8671700860179491E-31
   0.5000303025089786E+00
  -0.3225430660768268E-33
   0.5000272405278505E+00
   0.4420597641554239E-32
   0.5000153271510183E+00
   0.1049445635288652E-30
   0.4999841396780800E+00
  -0.2766830063713785E-31
   0.4999807667010727E+00
  -0.2444600845625432E-32
   0.4999820908644736E+00
   0.9129144919011617E-32
   0.4999827244216185E+00
   0.1985137427661675E-31
   0.4999933630301467E+00
  -0.2221576870701221E-31
   0.5000361481501645E+00
   0.2746350500695301E-31
   0.5000295111748673E+00
  -0.4066214045888488E-31
   0.5000088173841151E+00
   0.3127684828998484E-31
   0.5000020067942219E+00
  -0.1388479977483759E-31
   0.4999923074891315E+00
   0.2456439282738695E-31
   0.5000115330257699E+00
  -0.4810680470318755E-31
   0.5000277437779032E+00
   0.6051129381196732E-31
   0.5000416467719917E+00
  -0.2208458971866463E-31
   0.5000391836579512E+00
   0.2504773152936379E-31
   0.5000334083889587E+00
  -0.4716722594302630E-31
   0.5000435468406724E+00
   0.3099935495729835E-31
   0.5000363555574903E+00
  -0.8175384663878968E-31
   0.5000212336758258E+00
   0.1460317894214707E-31
   0.5000320202757429E+00
  -0.4313141443002989E-31
   0.5000217536566578E+00
   0.1279305313398305E-31
   0.5000270004164682E+00
  -0.3974968075686564E-31
   0.5000039108801255E+00
  -0.5158245273257011E-32
   0.5000016691341387E+00
  -0.1445766858284919E-32
   0.5000006259695644E+00
  -0.2535198524873415E-33
   0.5000001292463547E+00
   0.5635311830051075E-34
   0.4999988052998968E+00
  -0.2578832882261164E-33
   0.4999979267341320E+00
  -0.2908885131763652E-33
   0.4999975730544730E+00
  -0.1456421650781213E-33
   0.4999983477396804E+00
   0.8906558878620110E-34
   0.4999975389731950E+00
   0.1582894262466511E-33
   0.4999957127245929E+00
   0.1278444486533854E-32
   0.4999918975641708E+00
   0.2715814394380882E-32
   0.4999965936508304E+00
  -0.9031137174450288E-32
   0.4999999348034512E+00
  -0.7774745494018054E-33
   0.5000125616482886E+00
  -0.1702273664880460E-31
   0.4999978493335165E+00
  -0.2309472185656178E-33
   0.4999987508083876E+00
  -0.8296091495933681E-33
   0.4999973899097612E+00
  -0.2489655094852841E-33
   0.4999974741913595E+00
  -0.5693244630220261E-33
   0.4999987278037396E+00
  -0.5665743416629580E-33
   0.5000018474755246E+00
  -0.2915009505504026E-32
   0.5000000255742210E+00
  -0.9715155499504236E-33
   0.4999990622899091E+00
  -0.5981952380979957E-33
   0.5000067822233983E+00
  -0.7415265020839410E-32
   0.5000053748877268E+00
  -0.8183322437714771E-32
   0.5000111323580598E+00
   0.5303953533747168E-32
   0.5000165897465341E+00
  -0.1429631477086653E-31
   0.5000031315394774E+00
  -0.1946512043342328E-32
   0.5000011848503935E+00
  -0.1780512405660628E-32
   0.5000001476293365E+00
  -0.1581236341658350E-34
   0.5000001375161148E+00
  -0.5717519723885019E-34
   0.5000000066628296E+00
  -0.1549536169052141E-33
   0.5000001436199346E+00
  -0.2687271877114159E-33
   0.5000005230522446E+00
  -0.2958837781643388E-33
   0.5000016275982161E+00
   0.7208748526235515E-33
   0.5000047180398673E+00
   0.8521479641590171E-32
   0.5000056305998495E+00
  -0.1114820719684306E-31
   0.5000005534412816E+00
  -0.1223603163686758E-33
   0.5000005595062336E+00
  -0.2823812598991281E-33
   0.5000061815152744E+00
   0.7994393569332848E-32
   0.5000032762477136E+00
  -0.1720088609828142E-31
   0.5000042125828099E+00
  -0.3061406978317597E-31
   0.5000046184487176E+00
  -0.6384723603431102E-32
   0.5000022151058502E+00
   0.9391596636109434E-33
   0.5000004840348919E+00
  -0.7070155351126700E-34
   0.5000010384460502E+00
  -0.2788487729649993E-33
   0.5000009580555772E+00
  -0.1052193753900195E-33
   0.5000007431043783E+00
  -0.2900995839603195E-33
   0.5000004531784548E+00
  -0.1482077376658241E-34
   0.5000027870350672E+00
  -0.4020386983841665E-32
   0.5000014322126382E+00
  -0.1422303052959012E-32
   0.5000032405111235E+00
   0.9597040083082434E-33
   0.5000024897647467E+00
  -0.6299316038916943E-33
   0.4999985758187565E+00
   0.3678090997113222E-34
   0.4999986029475045E+00
   0.7007997963385348E-34
   0.4999984676856125E+00
   0.4629047289525087E-34
   0.4999983049086811E+00
   0.3088821415161717E-35
   0.4999975343390371E+00
   0.2667280264128441E-34
   0.4999978388820330E+00
  -0.2136249670401535E-33
   0.4999987867621312E+00
  -0.3630494958589770E-33
   0.4999990062578100E+00
  -0.2443646220978013E-33
   0.4999978285696103E+00
  -0.9077784792134117E-35
   0.4999977772253504E+00
  -0.6923591106845422E-34
   0.4999989719797510E+00
  -0.3284383625187674E-33
   0.4999990045357561E+00
  -0.2999083918843084E-33
   0.4999992102678787E+00
  -0.2788554916862549E-33
   0.4999983483232399E+00
  -0.3184068649777665E-33
   0.4999980885513056E+00
  -0.3791514679588687E-33
   0.4999980845656778E+00
   0.2028933629496288E-34
   0.4999976138868536E+00
  -0.1971906967573166E-33
   0.4999975734936724E+00
  -0.8446856230585991E-34
   0.4999979666992504E+00
  -0.3557435376748902E-34
   0.4999983057504437E+00
  -0.2370321243367635E-33
   0.4999977869126117E+00
  -0.2262495058671686E-33
   0.4999977230498279E+00
  -0.2156051249276998E-33
   0.4999981936328168E+00
  -0.3244252392431308E-33
   0.4999906568814063E+00
  -0.8484797563859405E-32
   0.4999953900379530E+00
  -0.1291320421705055E-32
   0.4999973539607360E+00
  -0.2484932361526739E-33
   0.4999976993611554E+00
   0.1430595380513163E-33
   0.4999865759618610E+00
  -0.1258814685930236E-31
   0.4999898091252806E+00
   0.5968875739436786E-32
   0.4999975202583027E+00
  -0.2584155108415859E-33
   0.4999977524507928E+00
  -0.7283728226312536E-34
   0.4999979987331675E+00
   0.8711297072767177E-34
   0.4999968038856765E+00
   0.1634140661264761E-33
   0.4999957289452968E+00
  -0.8766595374533353E-33
   0.4999860958988629E+00
   0.9199485199843599E-32
   0.4999923506701283E+00
   0.1949251928349747E-33
   0.4999936555001835E+00
  -0.1743623834947048E-32
   0.4999878973153241E+00
   0.1425900337728454E-31
   0.4999967418514256E+00
   0.4036207111257238E-33
   0.4999947824257305E+00
   0.1400159940324268E-32
   0.4999940393782243E+00
   0.1107926484729057E-32
   0.4999961716020764E+00
  -0.1198500502515320E-33
   0.4999998550640791E+00
   0.1969409049361593E-31
   0.5000000164897302E+00
  -0.2642930313812725E-33
   0.5000156248369708E+00
   0.2641578131770996E-31
   0.4999977345960609E+00
  -0.2830079579993387E-34
   0.4999986819309487E+00
   0.8471822506357493E-33
   0.4999971383518322E+00
   0.3775574644183955E-33
   0.4999974136383642E+00
   0.2572334355482929E-32
   0.4999987133797023E+00
  -0.1434330262791478E-33
   0.5000018152595730E+00
   0.3860896067968929E-34
   0.5000001671040705E+00
  -0.1289498612972586E-34
   0.4999990891218279E+00
  -0.2649097873093587E-33
   0.5000072970147502E+00
   0.1833925252018693E-32
   0.5000058271296629E+00
   0.3950128650407601E-32
   0.5000145429110753E+00
   0.6433756002960201E-31
   0.5000173446109714E+00
  -0.1895271509290573E-32
   0.5000038273517288E+00
   0.9983783307135698E-32
   0.5000013561538215E+00
   0.1068324821321063E-32
   0.5000010898982467E+00
  -0.8405780157918862E-33
   0.4999985415381350E+00
   0.3897908250168559E-33
   0.4999987918492111E+00
  -0.2653433821212272E-33
   0.4999998930625660E+00
  -0.6267495923872994E-33
   0.4999963903803428E+00
   0.1351505403575209E-33
   0.4999950158874822E+00
   0.1542282552523556E-32
   0.5000006452231991E+00
  -0.5149598171596734E-32
   0.4999973651623811E+00
   0.8982499641771436E-36
   0.4999982670014352E+00
  -0.4812859188182588E-33
   0.4999972233049930E+00
  -0.2182455452363136E-33
   0.4999994053927105E+00
  -0.2393845354252238E-32
   0.4999988412475869E+00
  -0.6080021269621578E-32
   0.4999980481386187E+00
  -0.1776938649458027E-33
   0.5000004059745743E+00
  -0.1521142837853727E-32
   0.5000056896771768E+00
  -0.3976443138653482E-32
   0.5000025936157040E+00
  -0.3413854874272691E-32
   0.5000004255500660E+00
  -0.8464611268169791E-33
   0.5000033044463655E+00
  -0.3321998204792189E-32
   0.4999988024251900E+00
  -0.2528744529687913E-33
   0.4999984719255506E+00
  -0.2246983173902513E-33
   0.4999992378753541E+00
  -0.5135698805897237E-33
   0.5000020033578898E+00
  -0.4122859409991514E-33
   0.5000003793754118E+00
   0.2432902461332355E-33
   0.4999979582849133E+00
  -0.1411580997663312E-33
   0.4999960952369591E+00
   0.1868735948844128E-32
   0.4999990100691786E+00