title="tecplot geometry and solution file"
variables = x y z rho u v w p mach temperature
zone t="boundary 1 bc-1", solutiontime= 0.6000000E+02, strandid=1001, i=32, j=46, f=feblock
 -0.547472452772E-02  0.263375006713E-18 -0.567610116354E-02  0.263375006713E-18  0.263375006713E-18  0.263375006713E-18 -0.525162568575E-02
 -0.425778988008E-02  0.263375006713E-18  0.263375006713E-18  0.263375006713E-18  0.263375006713E-18  0.263375006713E-18  0.263375006713E-18
  0.263375006713E-18  0.263375006713E-18 -0.338396965251E-02  0.263375006713E-18  0.263375006713E-18  0.263375006713E-18  0.263375006713E-18
  0.263375006713E-18  0.263375006713E-18  0.263375006713E-18  0.263375006713E-18  0.263375006713E-18  0.263375006713E-18  0.263375006713E-18
  0.263375006713E-18  0.263375006713E-18  0.263375006713E-18  0.263375006713E-18
  0.250494200518E+01  0.250494200518E+01  0.127822174353E+01  0.146289271009E+01  0.157686156160E+01  0.308372018325E+00  0.261950149565E-01
 -0.122573467301E+01 -0.600232012419E+00  0.250494200518E+01  0.477386199275E+00  0.742988685424E+00 -0.739814786992E+00  0.177790177481E+01
  0.155830813274E+01  0.250494200518E+01 -0.249658901620E+01 -0.154800130438E+01 -0.487811078581E+00  0.250494200518E+01  0.627766083140E+00
 -0.345533899378E+00 -0.178862290564E+01 -0.158811787973E+01  0.125000000000E+01 -0.249658901620E+01 -0.144524380962E+01  0.263375006713E-18
 -0.125000000000E+01 -0.249658901620E+01 -0.249658901620E+01 -0.249658901620E+01
  0.803216924783E-04  0.125000000000E+01  0.822205278517E-04  0.103724302461E+01  0.219251206392E+01  0.922061490191E+00  0.103877881505E-03
  0.341876513122E-04  0.715990576545E+00  0.250000000000E+01  0.202479342020E+01  0.324151231464E+01  0.175434191980E+01  0.310152362409E+01
  0.404200324774E+01  0.375000000000E+01  0.811362586350E-04  0.930412228790E+00  0.299062775774E+01  0.500000000000E+01  0.429310310915E+01
  0.409252726285E+01  0.187029682677E+01  0.284428995242E+01  0.500000000000E+01  0.125000000000E+01  0.394624082883E+01  0.500000000000E+01
  0.500000000000E+01  0.250000000000E+01  0.375000000000E+01  0.500000000000E+01
  0.100001339896E+01  0.100000779234E+01  0.100001493972E+01  0.100000910547E+01  0.100000488451E+01  0.100001007219E+01  0.100002056406E+01
  0.100002731218E+01  0.100001278820E+01  0.100000412638E+01  0.100000565256E+01  0.100000311955E+01  0.100000677414E+01  0.100000320650E+01
  0.100000210334E+01  0.100000237508E+01  0.100002090363E+01  0.100001124723E+01  0.100000359040E+01  0.100000143169E+01  0.100000194240E+01
  0.100000216366E+01  0.100000644429E+01  0.100000378919E+01  0.100000136139E+01  0.100000925119E+01  0.100000228680E+01  0.100000133183E+01
  0.100000139803E+01  0.100000442462E+01  0.100000251131E+01  0.100000147479E+01
  0.499982545998E+00  0.499991897564E+00  0.499982724422E+00  0.499989809125E+00  0.499994782426E+00  0.499987897316E+00  0.499982090864E+00
  0.499980766703E+00  0.499986095899E+00  0.499995712724E+00  0.499994039378E+00  0.499996803885E+00  0.499992350670E+00  0.499996741851E+00
  0.499997699361E+00  0.499997538973E+00  0.499984139679E+00  0.499986575963E+00  0.499996171602E+00  0.499998347740E+00  0.499997998733E+00
  0.499997752451E+00  0.499993655500E+00  0.499995728945E+00  0.499998575819E+00  0.499990656881E+00  0.499997520258E+00  0.499998602947E+00
  0.499998467685E+00  0.499995390038E+00  0.499997353961E+00  0.499998304908E+00
  0.000000000000E+00  0.000000000000E+00  0.141586637900E-05  0.439854250319E-06  0.671393457617E-07  0.170577324756E-05  0.362916223994E-05
  0.343062014316E-06  0.265564285381E-05  0.000000000000E+00 -0.159048464364E-06 -0.169371758326E-07  0.439956060010E-06  0.695561504219E-07
  0.739925387043E-07  0.000000000000E+00  0.000000000000E+00  0.668292912096E-07 -0.217906325285E-06  0.000000000000E+00 -0.666390593505E-08
 -0.117374776259E-07  0.312455456105E-07 -0.100737806674E-06 -0.777043788879E-07  0.000000000000E+00 -0.263958544945E-07 -0.142218643257E-07
  0.645562753479E-07  0.000000000000E+00  0.000000000000E+00  0.000000000000E+00
  0.441051800730E-05  0.923511054792E-06  0.503128195317E-05  0.147450955470E-05  0.729290256113E-06  0.191140191451E-06  0.490460626209E-05
  0.145281790418E-04  0.422780374753E-05  0.150468929596E-06  0.240498344379E-06  0.657675534644E-07 -0.310669155255E-06  0.185501140017E-06
  0.340538360808E-06  0.559673732812E-07  0.102194999008E-04  0.525608962657E-05  0.121910914956E-06  0.900261587783E-06  0.350401244640E-06
  0.300082896993E-06  0.743577876607E-06 -0.396021849726E-07  0.947842784915E-06  0.296581286250E-05  0.338041739037E-06  0.822065523793E-06
  0.781847436592E-06  0.189556877131E-06  0.268616439920E-07  0.833692278631E-06
  0.714299113302E+00  0.714293506634E+00  0.714300654079E+00  0.714294819765E+00  0.714290598798E+00  0.714295786475E+00  0.714306278441E+00
  0.714313026714E+00  0.714298502527E+00  0.714289840671E+00  0.714291366856E+00  0.714288833836E+00  0.714292488431E+00  0.714288920785E+00
  0.714287817625E+00  0.714288089362E+00  0.714306618048E+00  0.714296961526E+00  0.714289304686E+00  0.714287145980E+00  0.714287656686E+00
  0.714287877945E+00  0.714292158587E+00  0.714289503480E+00  0.714287075674E+00  0.714294965493E+00  0.714288001082E+00  0.714287046118E+00
  0.714287112319E+00  0.714290138911E+00  0.714288225598E+00  0.714287189076E+00
  0.499981206172E+00  0.499991118348E+00  0.499981230533E+00  0.499988898606E+00  0.499994293982E+00  0.499986890137E+00  0.499980034591E+00
  0.499978035812E+00  0.499984817147E+00  0.499995300091E+00  0.499993474129E+00  0.499996491933E+00  0.499991673269E+00  0.499996421204E+00
  0.499997489029E+00  0.499997301467E+00  0.499982049496E+00  0.499985451310E+00  0.499995812565E+00  0.499998204572E+00  0.499997804495E+00
  0.499997536087E+00  0.499993011081E+00  0.499995350029E+00  0.499998439681E+00  0.499989731792E+00  0.499997291580E+00  0.499998469765E+00
  0.499998327883E+00  0.499994947581E+00  0.499997102831E+00  0.499998157431E+00
  0.100000535959E+01  0.100000311693E+01  0.100000597590E+01  0.100000364217E+01  0.100000195380E+01  0.100000402884E+01  0.100000822559E+01
  0.100001092492E+01  0.100000511527E+01  0.100000165055E+01  0.100000226103E+01  0.100000124782E+01  0.100000270965E+01  0.100000128260E+01
  0.100000084133E+01  0.100000095003E+01  0.100000836147E+01  0.100000449886E+01  0.100000143616E+01  0.100000057268E+01  0.100000077696E+01
  0.100000086546E+01  0.100000257771E+01  0.100000151568E+01  0.100000054456E+01  0.100000370047E+01  0.100000091472E+01  0.100000053273E+01
  0.100000055921E+01  0.100000176985E+01  0.100000100452E+01  0.100000058992E+01
        12        19        11        11
        11         5        12        12
        10        14         5         5
        19        13        11        11
        19        24        13        13
        30        23        24        24
        19        12        22        22
        28        22        21        21
        11        13         6         6
         7         6         9         9
        15        12        14        14
        18        13        23        23
        15        25        21        21
        27        19        22        22
        18         8         9         9
        27        31        24        24
         4        11         6         6
         5        14        12        12
         4         2         5         5
        21        12        15        15
        14        16        15        15
        24        19        27        27
        22        29        27        27
        23        26        18        18
        17         8        18        18
         5        11         4         4
         6         3         4         4
        26        23        30        30
         5         2        10        10
        16        14        10        10
         3         6         7         7
        21        25        28        28
        29        22        28        28
         6        13         9         9
         2         4         1         1
        31        27        32        32
        25        15        20        20
        24        23        13        13
         8         7         9         9
        13        18         9         9
        31        30        24        24
        12        21        22        22
        29        32        27        27
         3         1         4         4
        26        17        18        18
        16        20        15        15
zone t="boundary 2 bc-2", solutiontime= 0.6000000E+02, strandid=1002, i=33, j=48, f=feblock
  0.500195255313E+01  0.375034812201E+01  0.249861146354E+01  0.288036675733E+01  0.124717526151E+01  0.190856699606E+01  0.326577190793E+01
  0.201394857590E+01 -0.338396965251E-02  0.962374261034E+00  0.500000000000E+01  0.403430190133E+01  0.423029563300E+01  0.500000000000E+01
  0.385439188555E+01  0.500000000000E+01  0.398133432910E+01  0.315200081434E+01  0.266958029510E+01  0.154798030854E+01  0.218327860925E+01
  0.893688451288E+00  0.263375006713E-18  0.699009769630E+00  0.964460904435E+00  0.310303671669E+01  0.263375006713E-18  0.263375006713E-18
  0.125000000000E+01  0.500000000000E+01  0.375000000000E+01  0.250000000000E+01  0.263375006713E-18
 -0.249658901620E+01 -0.249658901620E+01 -0.249658901620E+01 -0.249658901620E+01 -0.249658901620E+01 -0.249658901620E+01 -0.249658901620E+01
 -0.249658901620E+01 -0.249658901620E+01 -0.249658901620E+01 -0.249658901620E+01 -0.249658901620E+01 -0.249658901620E+01 -0.249658901620E+01
 -0.249658901620E+01 -0.249658901620E+01 -0.249658901620E+01 -0.249658901620E+01 -0.249658901620E+01 -0.249658901620E+01 -0.249658901620E+01
 -0.249658901620E+01 -0.249658901620E+01 -0.249658901620E+01 -0.249658901620E+01 -0.249658901620E+01 -0.249658901620E+01 -0.249658901620E+01
 -0.249658901620E+01 -0.249658901620E+01 -0.249658901620E+01 -0.249658901620E+01 -0.249658901620E+01
  0.108209237191E-03  0.145875487893E-03  0.100909957516E-03  0.901663357824E+00  0.110895828141E-03  0.714928325670E+00  0.188140643916E+01
  0.175892163457E+01  0.811362586350E-04  0.957504305816E+00  0.125000000000E+01  0.100596693416E+01  0.191313516265E+01  0.250000000000E+01
  0.292898094244E+01  0.375000000000E+01  0.406883368474E+01  0.363389287837E+01  0.284756858001E+01  0.292582306272E+01  0.395754053293E+01
  0.205027256174E+01  0.125000000000E+01  0.306703271839E+01  0.397155765835E+01  0.433068621090E+01  0.250000000000E+01  0.375000000000E+01
  0.500000000000E+01  0.500000000000E+01  0.500000000000E+01  0.500000000000E+01  0.500000000000E+01
  0.999999104826E+00  0.999995784619E+00  0.999994409987E+00  0.999998222642E+00  0.999999417637E+00  0.100000004166E+01  0.999999545535E+00
  0.100000162906E+01  0.100002090363E+01  0.100000547224E+01  0.100000226194E+01  0.999998650564E+00  0.100000049232E+01  0.100000153067E+01
  0.100000080966E+01  0.100000096021E+01  0.100000104793E+01  0.100000121647E+01  0.100000133160E+01  0.100000242358E+01  0.100000176316E+01
  0.100000408125E+01  0.100000925119E+01  0.100000316875E+01  0.100000226821E+01  0.100000139537E+01  0.100000442462E+01  0.100000251131E+01
  0.100000184719E+01  0.100000073518E+01  0.100000125221E+01  0.100000170565E+01  0.100000147479E+01
  0.500013587342E+00  0.500030302496E+00  0.500027240518E+00  0.500017344618E+00  0.500015327149E+00  0.500014542915E+00  0.500007297019E+00
  0.500003827353E+00  0.499984139679E+00  0.499999855065E+00  0.500004718041E+00  0.500015624843E+00  0.500005827133E+00  0.500001627600E+00
  0.500001815256E+00  0.500000523049E+00  0.500000016489E+00  0.500000167101E+00  0.500001356152E+00  0.499998681930E+00  0.499998713378E+00
  0.499997413638E+00  0.499990656881E+00  0.499997138352E+00  0.499997734596E+00  0.499999089122E+00  0.499995390038E+00  0.499997353961E+00
  0.499997534339E+00  0.500000143623E+00  0.499998786768E+00  0.499997838883E+00  0.499998304908E+00
  0.000000000000E+00  0.000000000000E+00  0.000000000000E+00  0.000000000000E+00  0.000000000000E+00  0.000000000000E+00  0.000000000000E+00
  0.000000000000E+00  0.000000000000E+00  0.000000000000E+00  0.000000000000E+00  0.000000000000E+00  0.000000000000E+00  0.000000000000E+00
  0.000000000000E+00  0.000000000000E+00  0.000000000000E+00  0.000000000000E+00  0.000000000000E+00  0.000000000000E+00  0.000000000000E+00
  0.000000000000E+00  0.000000000000E+00  0.000000000000E+00  0.000000000000E+00  0.000000000000E+00  0.000000000000E+00  0.000000000000E+00
  0.000000000000E+00  0.000000000000E+00  0.000000000000E+00  0.000000000000E+00  0.000000000000E+00
 -0.143547991532E-04 -0.144847106214E-05  0.641326513335E-05  0.437139098470E-05  0.121704712388E-04  0.100756087221E-04  0.236052123014E-05
  0.613693978410E-05  0.102194999008E-04  0.104202731466E-04 -0.386185058318E-05 -0.177747294160E-05  0.869373984935E-07  0.132754978050E-05
  0.155028501625E-05  0.192747478233E-05  0.167796684906E-05  0.223891166647E-05  0.312306297110E-05  0.381211396728E-05  0.239888019612E-05
  0.447120787284E-05  0.296581286250E-05  0.187592992843E-05  0.182984688493E-05  0.194879089122E-05  0.189556877131E-06  0.268616439920E-07
  0.177217371184E-05  0.112497127299E-05  0.132816209796E-05  0.170121625247E-05  0.833692278631E-06
  0.714284819311E+00  0.714281499076E+00  0.714280124427E+00  0.714283936980E+00  0.714285132081E+00  0.714285756015E+00  0.714285259815E+00
  0.714287343349E+00  0.714306618048E+00  0.714291186547E+00  0.714287976264E+00  0.714284364894E+00  0.714286206607E+00  0.714287244945E+00
  0.714286523936E+00  0.714286674497E+00  0.714286762212E+00  0.714286930755E+00  0.714287045884E+00  0.714288137861E+00  0.714287477446E+00
  0.714289795544E+00  0.714294965493E+00  0.714288883039E+00  0.714287982496E+00  0.714287109661E+00  0.714290138911E+00  0.714288225598E+00
  0.714287561473E+00  0.714286449468E+00  0.714286966499E+00  0.714287419934E+00  0.714287189076E+00
  0.500013676998E+00  0.500030724005E+00  0.500027799541E+00  0.500017522361E+00  0.500015385479E+00  0.500014538827E+00  0.500007342474E+00
  0.500003664484E+00  0.499982049496E+00  0.499999307946E+00  0.500004491847E+00  0.500015759779E+00  0.500005777901E+00  0.500001474538E+00
  0.500001734294E+00  0.500000427033E+00  0.499999911699E+00  0.500000045460E+00  0.500001223002E+00  0.499998439589E+00  0.499998537069E+00
  0.499997005536E+00  0.499989731792E+00  0.499996821482E+00  0.499997507780E+00  0.499998949588E+00  0.499994947581E+00  0.499997102831E+00
  0.499997349625E+00  0.500000070105E+00  0.499998661549E+00  0.499997668322E+00  0.499998157431E+00
  0.999999642210E+00  0.999998314080E+00  0.999997764198E+00  0.999999289128E+00  0.999999767276E+00  0.100000001676E+01  0.999999818206E+00
  0.100000065162E+01  0.100000836147E+01  0.100000218891E+01  0.100000090483E+01  0.999999460288E+00  0.100000019693E+01  0.100000061226E+01
  0.100000032385E+01  0.100000038408E+01  0.100000041917E+01  0.100000048659E+01  0.100000053264E+01  0.100000096943E+01  0.100000070526E+01
  0.100000163250E+01  0.100000370047E+01  0.100000126750E+01  0.100000090728E+01  0.100000055815E+01  0.100000176985E+01  0.100000100452E+01
  0.100000073887E+01  0.100000029407E+01  0.100000050089E+01  0.100000068226E+01  0.100000058992E+01
        15         7        19        19
         8        20        19        19
        18        19        21        21
         7         4         8         8
         3         6         4         4
        19         7         8         8
        19        18        15        15
        14        13        15        15
         8        22        20        20
        27        24        22        22
        19        20        21        21
        32        26        21        21
        17        18        26        26
        17        16        15        15
        25        29        21        21
        12         7        13        13
        10         8         6         6
        25        20        24        24
         4         6         8         8
        12         2         4         4
        10        23        22        22
        26        31        17        17
        30        16        17        17
         4         7        12        12
        13        11        12        12
        21        20        25        25
        24        28        25        25
        22         8        10        10
         6         5        10        10
        31        26        32        32
         4         2         3         3
         5         6         3         3
        11        13        14        14
        22        23        27        27
        28        24        27        27
        15        13         7         7
         2        12         1         1
        29        25        33        33
        23        10         9         9
        21        26        18        18
        16        14        15        15
        18        17        15        15
        29        32        21        21
        22        24        20        20
        28        33        25        25
        11         1        12        12
        31        30        17        17
         5         9        10        10
zone t="boundary 3 bc-3", solutiontime= 0.6000000E+02, strandid=1003, i=33, j=48, f=feblock
  0.375059100022E+01  0.249769609016E+01  0.500322139356E+01  0.403612222763E+01  0.287976775181E+01  0.124541907693E+01  0.190552236756E+01
  0.500000000000E+01  0.326671106333E+01  0.423253756071E+01  0.201271138087E+01 -0.547472452772E-02  0.958895628158E+00  0.500000000000E+01
  0.266968148532E+01  0.385584487668E+01  0.890374213116E+00  0.154654014519E+01  0.263375006713E-18  0.500000000000E+01  0.315261137241E+01
  0.218304200095E+01  0.398195307874E+01  0.263375006713E-18  0.697379955531E+00  0.963757281441E+00  0.125000000000E+01  0.263375006713E-18
  0.500000000000E+01  0.310330738720E+01  0.250000000000E+01  0.375000000000E+01  0.263375006713E-18
  0.250494200518E+01  0.250494200518E+01  0.250494200518E+01  0.250494200518E+01  0.250494200518E+01  0.250494200518E+01  0.250494200518E+01
  0.250494200518E+01  0.250494200518E+01  0.250494200518E+01  0.250494200518E+01  0.250494200518E+01  0.250494200518E+01  0.250494200518E+01
  0.250494200518E+01  0.250494200518E+01  0.250494200518E+01  0.250494200518E+01  0.250494200518E+01  0.250494200518E+01  0.250494200518E+01
  0.250494200518E+01  0.250494200518E+01  0.250494200518E+01  0.250494200518E+01  0.250494200518E+01  0.250494200518E+01  0.250494200518E+01
  0.250494200518E+01  0.250494200518E+01  0.250494200518E+01  0.250494200518E+01  0.250494200518E+01
  0.135457002285E-03  0.109983637804E-03  0.964506780630E-04  0.101756739734E+01  0.908094462101E+00  0.103842397884E-03  0.722629008326E+00
  0.125000000000E+01  0.188965653795E+01  0.191862692309E+01  0.176708233165E+01  0.803216924783E-04  0.969652538178E+00  0.250000000000E+01
  0.285339429033E+01  0.293325055335E+01  0.205656222194E+01  0.293157014693E+01  0.125000000000E+01  0.375000000000E+01  0.363766836446E+01
  0.396069443367E+01  0.407056384269E+01  0.250000000000E+01  0.307031994182E+01  0.397359819531E+01  0.500000000000E+01  0.375000000000E+01
  0.500000000000E+01  0.433260780167E+01  0.500000000000E+01  0.500000000000E+01  0.500000000000E+01
  0.999994910264E+00  0.999987716612E+00  0.100000375199E+01  0.999998858213E+00  0.999997990424E+00  0.100000689716E+01  0.100000015983E+01
  0.100000176879E+01  0.999999735860E+00  0.100000011779E+01  0.100000150621E+01  0.100001339896E+01  0.100000598469E+01  0.100000123272E+01
  0.100000117795E+01  0.100000071438E+01  0.100000353356E+01  0.100000243500E+01  0.100000779234E+01  0.100000084918E+01  0.100000115577E+01
  0.100000171227E+01  0.100000096084E+01  0.100000412638E+01  0.100000289638E+01  0.100000212517E+01  0.100000178150E+01  0.100000237508E+01
  0.100000068369E+01  0.100000132919E+01  0.100000166300E+01  0.100000118622E+01  0.100000143169E+01
  0.500025919518E+00  0.500031190837E+00  0.500007237731E+00  0.500012561635E+00  0.500016589739E+00  0.500006204866E+00  0.500011132359E+00
  0.500003910873E+00  0.500006782223E+00  0.500005374885E+00  0.500003131539E+00  0.499982545998E+00  0.499996593651E+00  0.500001669134E+00
  0.500001184850E+00  0.500001847478E+00  0.499997474191E+00  0.499998750807E+00  0.499991897564E+00  0.500000625971E+00  0.500000025572E+00
  0.499998727803E+00  0.499999934801E+00  0.499995712724E+00  0.499997389909E+00  0.499997849333E+00  0.499997573055E+00  0.499997538973E+00
  0.500000129245E+00  0.499999062286E+00  0.499997926732E+00  0.499998805300E+00  0.499998347740E+00
  0.000000000000E+00  0.000000000000E+00  0.000000000000E+00  0.000000000000E+00  0.000000000000E+00  0.000000000000E+00  0.000000000000E+00
  0.000000000000E+00  0.000000000000E+00  0.000000000000E+00  0.000000000000E+00  0.000000000000E+00  0.000000000000E+00  0.000000000000E+00
  0.000000000000E+00  0.000000000000E+00  0.000000000000E+00  0.000000000000E+00  0.000000000000E+00  0.000000000000E+00  0.000000000000E+00
  0.000000000000E+00  0.000000000000E+00  0.000000000000E+00  0.000000000000E+00  0.000000000000E+00  0.000000000000E+00  0.000000000000E+00
  0.000000000000E+00  0.000000000000E+00  0.000000000000E+00  0.000000000000E+00  0.000000000000E+00
 -0.335801781670E-05  0.593168215103E-05 -0.105775542359E-04 -0.495660403370E-05  0.139509944182E-05  0.196083773808E-04  0.107071982791E-04
 -0.392654811379E-05  0.165796166812E-05 -0.728569047606E-06  0.495738995257E-05  0.441051800730E-05  0.767313220557E-05  0.420405121073E-06
  0.272446480743E-05  0.122643927433E-05  0.375906723931E-05  0.312176096027E-05  0.923511054792E-06  0.154526905371E-05  0.197603080186E-05
  0.233215499769E-05  0.149927947063E-05  0.150468929596E-06  0.165969496386E-05  0.166058864388E-05  0.171924852276E-05  0.559673732812E-07
  0.106175926723E-05  0.181392633671E-05  0.167016912635E-05  0.123886140544E-05  0.900261587783E-06
  0.714280624693E+00  0.714273431073E+00  0.714289466443E+00  0.714284572533E+00  0.714283704745E+00  0.714292611494E+00  0.714285874151E+00
  0.714287483106E+00  0.714285450145E+00  0.714285832075E+00  0.714287220497E+00  0.714299113302E+00  0.714291698987E+00  0.714286946996E+00
  0.714286892238E+00  0.714286428657E+00  0.714289247848E+00  0.714288149284E+00  0.714293506634E+00  0.714286563460E+00  0.714286870056E+00
  0.714287426555E+00  0.714286675128E+00  0.714289840671E+00  0.714288610672E+00  0.714287839456E+00  0.714287495785E+00  0.714288089362E+00
  0.714286397978E+00  0.714287043479E+00  0.714287377285E+00  0.714286900508E+00  0.714287145980E+00
  0.500026428483E+00  0.500032419246E+00  0.500006862582E+00  0.500012675829E+00  0.500016790694E+00  0.500005515514E+00  0.500011116478E+00
  0.500003733998E+00  0.500006808641E+00  0.500005363108E+00  0.500002980941E+00  0.499981206172E+00  0.499995995245E+00  0.500001545865E+00
  0.500001067063E+00  0.500001776043E+00  0.499997120852E+00  0.499998507319E+00  0.499991118348E+00  0.500000541056E+00  0.499999909999E+00
  0.499998556582E+00  0.499999838719E+00  0.499995300091E+00  0.499997100276E+00  0.499997636820E+00  0.499997394909E+00  0.499997301467E+00
  0.500000060877E+00  0.499998929370E+00  0.499997760436E+00  0.499998686680E+00  0.499998204572E+00
  0.999997964296E+00  0.999995086830E+00  0.100000150102E+01  0.999999543333E+00  0.999999196217E+00  0.100000275892E+01  0.100000006398E+01
  0.100000070756E+01  0.999999894343E+00  0.100000004711E+01  0.100000060249E+01  0.100000535959E+01  0.100000239388E+01  0.100000049308E+01
  0.100000047118E+01  0.100000028575E+01  0.100000141342E+01  0.100000097400E+01  0.100000311693E+01  0.100000033967E+01  0.100000046231E+01
  0.100000068491E+01  0.100000038434E+01  0.100000165055E+01  0.100000115855E+01  0.100000085007E+01  0.100000071260E+01  0.100000095003E+01
  0.100000027348E+01  0.100000053168E+01  0.100000066520E+01  0.100000047449E+01  0.100000057268E+01
        15         9        16        16
        15        18        11        11
        22        15        21        21
        11         5         9         9
         5         7         2         2
        11         9        15        15
        16        21        15        15
        16        10        14        14
        18        17        11        11
        17        25        24        24
        22        18        15        15
        22        30        31        31
        30        21        23        23
        16        20        23        23
        22        27        26        26
        10         9         4         4
         7        11        13        13
        25        18        26        26
        11         7         5         5
         5         1         4         4
        17        19        13        13
        23        32        30        30
        23        20        29        29
         4         9         5         5
         4         8        10        10
        26        18        22        22
        26        28        25        25
        13        11        17        17
        13         6         7         7
        31        30        32        32
         2         1         5         5
         2         7         6         6
        14        10         8         8
        24        19        17        17
        24        25        28        28
         9        10        16        16
         3         4         1         1
        33        26        27        27
        12        13        19        19
        21        30        22        22
        16        14        20        20
        16        23        21        21
        22        31        27        27
        18        25        17        17
        26        33        28        28
         4         3         8         8
        23        29        32        32
        13        12         6         6
zone t="boundary 4 bc-4", solutiontime= 0.6000000E+02, strandid=1004, i=32, j=46, f=feblock
  0.125000000000E+01  0.219251206392E+01  0.103724302461E+01  0.500000000000E+01  0.250000000000E+01  0.375000000000E+01  0.404200324774E+01
  0.500000000000E+01  0.263375006713E-18  0.310152362409E+01  0.202479342020E+01  0.324151231464E+01  0.922061490191E+00  0.263375006713E-18
  0.299062775774E+01  0.394624082883E+01  0.500000000000E+01  0.409252726285E+01  0.500000000000E+01  0.429310310915E+01  0.175434191980E+01
  0.284428995242E+01  0.263375006713E-18  0.263375006713E-18  0.715990576545E+00  0.930412228790E+00  0.125000000000E+01  0.187029682677E+01
  0.500000000000E+01  0.375000000000E+01  0.250000000000E+01  0.263375006713E-18
  0.250494200518E+01  0.157686156160E+01  0.146289271009E+01  0.250494200518E+01  0.250494200518E+01  0.250494200518E+01  0.155830813274E+01
  0.125000000000E+01  0.250494200518E+01  0.177790177481E+01  0.477386199275E+00  0.742988685424E+00  0.308372018325E+00  0.125000000000E+01
 -0.487811078581E+00 -0.144524380962E+01 -0.125000000000E+01 -0.345533899378E+00  0.263375006713E-18  0.627766083140E+00 -0.739814786992E+00
 -0.158811787973E+01  0.263375006713E-18 -0.125000000000E+01 -0.600232012419E+00 -0.154800130438E+01 -0.249658901620E+01 -0.178862290564E+01
 -0.249658901620E+01 -0.249658901620E+01 -0.249658901620E+01 -0.249658901620E+01
  0.500000000000E+01  0.500000000000E+01  0.500000000000E+01  0.500000000000E+01  0.500000000000E+01  0.500000000000E+01  0.500000000000E+01
  0.500000000000E+01  0.500000000000E+01  0.500000000000E+01  0.500000000000E+01  0.500000000000E+01  0.500000000000E+01  0.500000000000E+01
  0.500000000000E+01  0.500000000000E+01  0.500000000000E+01  0.500000000000E+01  0.500000000000E+01  0.500000000000E+01  0.500000000000E+01
  0.500000000000E+01  0.500000000000E+01  0.500000000000E+01  0.500000000000E+01  0.500000000000E+01  0.500000000000E+01  0.500000000000E+01
  0.500000000000E+01  0.500000000000E+01  0.500000000000E+01  0.500000000000E+01
  0.100000178150E+01  0.100000172897E+01  0.100000163621E+01  0.100000068369E+01  0.100000166300E+01  0.100000118622E+01  0.100000108187E+01
  0.100000066705E+01  0.100000143169E+01  0.100000143905E+01  0.100000176914E+01  0.100000143226E+01  0.100000155446E+01  0.100000136139E+01
  0.100000154677E+01  0.100000112357E+01  0.100000066040E+01  0.100000112439E+01  0.100000066330E+01  0.100000101411E+01  0.100000187503E+01
  0.100000160826E+01  0.100000133183E+01  0.100000139803E+01  0.100000150659E+01  0.100000163455E+01  0.100000184719E+01  0.100000186094E+01
  0.100000073518E+01  0.100000125221E+01  0.100000170565E+01  0.100000147479E+01
  0.499997573055E+00  0.499997786911E+00  0.499997777225E+00  0.500000129245E+00  0.499997926732E+00  0.499998805300E+00  0.499999006255E+00
  0.500000147627E+00  0.499998347740E+00  0.499998305749E+00  0.499997723047E+00  0.499998348316E+00  0.499997966699E+00  0.499998575819E+00
  0.499998193631E+00  0.499998971981E+00  0.500000006664E+00  0.499999004530E+00  0.500000137513E+00  0.499999210259E+00  0.499997613887E+00
  0.499998088555E+00  0.499998602947E+00  0.499998467685E+00  0.499998084565E+00  0.499997828569E+00  0.499997534339E+00  0.499997573494E+00
  0.500000143623E+00  0.499998786768E+00  0.499997838883E+00  0.499998304908E+00
  0.000000000000E+00 -0.767670661368E-07 -0.837453872448E-07  0.000000000000E+00  0.000000000000E+00  0.000000000000E+00  0.829625860201E-07
  0.919958315513E-07  0.000000000000E+00 -0.144233077376E-07  0.342604482216E-07  0.299736052156E-07  0.389141130683E-07 -0.777043788879E-07
  0.659961031651E-07 -0.133168002479E-07  0.196861659204E-07 -0.125435902430E-07  0.348958398585E-07  0.615239777803E-07  0.136161319772E-06
  0.819221830711E-07 -0.142218643257E-07  0.645562753479E-07  0.866535775523E-07  0.161907152106E-06  0.000000000000E+00  0.107678633200E-06
  0.000000000000E+00  0.000000000000E+00  0.000000000000E+00  0.000000000000E+00