# vtk DataFile Version 2.0
FUN3D:global_image_vtk
ASCII
DATASET UNSTRUCTURED_GRID
POINTS 213 double
   -0.5474685441686489E-02    0.2504941971167291E+01    0.8038138598698306E-04
    0.1245419105183472E+01    0.2504941971167291E+01    0.1039425058015909E-03
    0.2497696093128779E+01    0.2504941971167291E+01    0.1101298164665190E-03
    0.3750590968915826E+01    0.2504941971167291E+01    0.1356499004943046E-03
    0.5003221331742151E+01    0.2504941971167291E+01    0.9668873038931776E-04
    0.5004676687979098E+01    0.1281291202167039E+01    0.1638053019384363E-03
    0.5004772673778115E+01    0.2775079906482980E-01    0.1903478008450363E-03
    0.5003581183341212E+01   -0.1225853508883529E+01    0.1607765204487694E-03
    0.5001952533742191E+01   -0.2496589036641631E+01    0.1082258890303121E-03
    0.3750348111606544E+01   -0.2496589036641631E+01    0.1458753696815249E-03
    0.2498611462994928E+01   -0.2496589036641631E+01    0.1008933264247664E-03
    0.1247175269333277E+01   -0.2496589036641631E+01    0.1108587619171878E-03
   -0.3383959865717942E-02   -0.2496589036641631E+01    0.8107259626488625E-04
   -0.4257768979764703E-02   -0.1225734811642591E+01    0.3415458742306365E-04
   -0.5251592448507032E-02    0.2619486024420423E-01    0.1038724387186771E-03
   -0.5676060312427741E-02    0.1278221569065706E+01    0.8224601702155817E-04
    0.9003209617952599E+00    0.1608979112280157E+01    0.8704140727616753E-04
    0.3983172210692289E+01   -0.1561211904840278E+01    0.1757116720371711E-03
    0.4035602039224470E+01    0.1486760030415520E+01    0.1713312862111635E-03
    0.1036613723302902E+01   -0.1455626429916848E+01    0.1047189301534027E-03
    0.1094353480630802E+01   -0.2964622010671850E+00    0.1260590236912829E-03
    0.7298400267480001E+00    0.6874684746719126E+00    0.1044598640543294E-03
    0.1617018659308945E+01    0.8553208024939369E+00    0.1529810904977734E-03
    0.2143199662875790E+01   -0.1627128509216729E+01    0.1606170425229589E-03
    0.4088840445400889E+01   -0.4351047825936263E+00    0.2719933294111921E-03
    0.2977916511248925E+01   -0.8334991483094507E+00    0.2245596931861889E-03
    0.3044093241383418E+01   -0.1814361225108581E+01    0.1617000112422152E-03
    0.3427866614805211E+01    0.3813904839972494E+00    0.2936955483425199E-03
    0.4313225355351748E+01    0.5489133376342497E+00    0.2313009573590703E-03
    0.1823032737597358E+01    0.1771265193544254E+01    0.1836202887151030E-03
    0.2806311152168375E+01    0.1358629373600679E+01    0.1943492163978812E-03
    0.1891860875936710E+01   -0.8481310365607548E+00    0.1670645501817278E-03
    0.2268769200166909E+01    0.7723691819196554E-01    0.2072307783085868E-03
    0.5000000000000000E+01    0.2504941971167291E+01    0.1250000000000000E+01
    0.5000000000000000E+01    0.2504941971167291E+01    0.2500000000000000E+01
    0.5000000000000000E+01    0.2504941971167291E+01    0.3750000000000000E+01
    0.5000000000000000E+01    0.2504941971167291E+01    0.5000000000000000E+01
    0.3750000000000000E+01    0.2504941971167291E+01    0.5000000000000000E+01
    0.2500000000000000E+01    0.2504941971167291E+01    0.5000000000000000E+01
    0.1250000000000000E+01    0.2504941971167291E+01    0.5000000000000000E+01
    0.0000000000000000E+00    0.2504941971167291E+01    0.5000000000000000E+01
    0.0000000000000000E+00    0.2504941971167291E+01    0.3750000000000000E+01
    0.0000000000000000E+00    0.2504941971167291E+01    0.2500000000000000E+01
    0.0000000000000000E+00    0.2504941971167291E+01    0.1250000000000000E+01
    0.9588956434871099E+00    0.2504941971167291E+01    0.9696525519543872E+00
    0.3981953078951402E+01    0.2504941971167291E+01    0.4070563854751271E+01
    0.4036122187252336E+01    0.2504941971167291E+01    0.1017567520094671E+01
    0.9637572773153888E+00    0.2504941971167291E+01    0.3973598203142229E+01
    0.1546540136992396E+01    0.2504941971167291E+01    0.2931570169315601E+01
    0.6973799521244312E+00    0.2504941971167291E+01    0.3070319952453756E+01
    0.8903742148356881E+00    0.2504941971167291E+01    0.2056562238187738E+01
    0.2183041995146012E+01    0.2504941971167291E+01    0.3960694449828019E+01
    0.3855844872709870E+01    0.2504941971167291E+01    0.2933250588118631E+01
    0.3152611367438029E+01    0.2504941971167291E+01    0.3637668388416195E+01
    0.3103307385241870E+01    0.2504941971167291E+01    0.4332607813099731E+01
    0.3266711045517939E+01    0.2504941971167291E+01    0.1889656617463738E+01
    0.4232537554484796E+01    0.2504941971167291E+01    0.1918626969802351E+01
    0.1905522374036519E+01    0.2504941971167291E+01    0.7226290832134609E+00
    0.2879767723645805E+01    0.2504941971167291E+01    0.9080945892181975E+00
    0.2012711365064515E+01    0.2504941971167291E+01    0.1767082390977754E+01
    0.2669681472994637E+01    0.2504941971167291E+01    0.2853394335010792E+01
    0.5000000000000000E+01    0.1250000000000000E+01    0.5000000000000000E+01
    0.5000000000000000E+01    0.0000000000000000E+00    0.5000000000000000E+01
    0.5000000000000000E+01   -0.1250000000000000E+01    0.5000000000000000E+01
    0.5000000000000000E+01   -0.2496589036641631E+01    0.5000000000000000E+01
    0.5000000000000000E+01   -0.2496589036641631E+01    0.3750000000000000E+01
    0.5000000000000000E+01   -0.2496589036641631E+01    0.2500000000000000E+01
    0.5000000000000000E+01   -0.2496589036641631E+01    0.1250000000000000E+01
    0.5000000000000000E+01    0.1578994732800803E+01    0.9058375365086910E+00
    0.5000000000000000E+01   -0.1583989954232354E+01    0.3982050490726493E+01
    0.5000000000000000E+01    0.1453322699199022E+01    0.4033849428301197E+01
    0.5000000000000000E+01   -0.1479596339503735E+01    0.1040505887381675E+01
    0.5000000000000000E+01   -0.3227322616384110E+00    0.1099454400140349E+01
    0.5000000000000000E+01    0.6593508822075582E+00    0.7354504170366591E+00
    0.5000000000000000E+01    0.8256214013940779E+00    0.1622302608453282E+01
    0.5000000000000000E+01   -0.1650070333782557E+01    0.2145871574390382E+01
    0.5000000000000000E+01   -0.4612828702537229E+00    0.4086422318222992E+01
    0.5000000000000000E+01   -0.8579242121530853E+00    0.2979540174134984E+01
    0.5000000000000000E+01   -0.1836846154397680E+01    0.3045064261640043E+01
    0.5000000000000000E+01    0.3508002863614053E+00    0.3428197553792836E+01
    0.5000000000000000E+01    0.5185680230613409E+00    0.4309693860063405E+01
    0.5000000000000000E+01    0.1738996113203182E+01    0.1827272193562204E+01
    0.5000000000000000E+01    0.1325493893339706E+01    0.2808563282768077E+01
    0.5000000000000000E+01   -0.8731419609589618E+00    0.1895995683864404E+01
    0.5000000000000000E+01    0.4906150219227333E-01    0.2273179336307740E+01
    0.0000000000000000E+00    0.1250000000000000E+01    0.5000000000000000E+01
    0.0000000000000000E+00    0.0000000000000000E+00    0.5000000000000000E+01
    0.0000000000000000E+00   -0.1250000000000000E+01    0.5000000000000000E+01
    0.0000000000000000E+00   -0.2496589036641631E+01    0.5000000000000000E+01
    0.1250000000000000E+01   -0.2496589036641631E+01    0.5000000000000000E+01
    0.2500000000000000E+01   -0.2496589036641631E+01    0.5000000000000000E+01
    0.3750000000000000E+01   -0.2496589036641631E+01    0.5000000000000000E+01
    0.4042003247744892E+01    0.1558308132739014E+01    0.5000000000000000E+01
    0.9304122287900499E+00   -0.1548001304379777E+01    0.5000000000000000E+01
    0.1037243024609388E+01    0.1462892710085612E+01    0.5000000000000000E+01
    0.3946240828834967E+01   -0.1445243809615570E+01    0.5000000000000000E+01
    0.4092527262848217E+01   -0.3455338993778935E+00    0.5000000000000000E+01
    0.4293103109154542E+01    0.6277660831404320E+00    0.5000000000000000E+01
    0.3241512314643519E+01    0.7429886854239611E+00    0.5000000000000000E+01
    0.2844289952419609E+01   -0.1588117879734118E+01    0.5000000000000000E+01
    0.7159905765450471E+00   -0.6002320124191652E+00    0.5000000000000000E+01
    0.1754341919796891E+01   -0.7398147869923652E+00    0.5000000000000000E+01
    0.1870296826774691E+01   -0.1788622905643739E+01    0.5000000000000000E+01
    0.9220614901912976E+00    0.3083720183248586E+00    0.5000000000000000E+01
    0.3101523624086016E+01    0.1777901774806180E+01    0.5000000000000000E+01
    0.2192512063922564E+01    0.1576861561598471E+01    0.5000000000000000E+01
    0.2024793420196460E+01    0.4773861992750707E+00    0.5000000000000000E+01
    0.2990627757741975E+01   -0.4878110785814084E+00    0.5000000000000000E+01
    0.0000000000000000E+00   -0.2496589036641631E+01    0.1250000000000000E+01
    0.0000000000000000E+00   -0.2496589036641631E+01    0.2500000000000000E+01
    0.0000000000000000E+00   -0.2496589036641631E+01    0.3750000000000000E+01
    0.0000000000000000E+00    0.1558308132739014E+01    0.4042003247744892E+01
    0.0000000000000000E+00   -0.1548001304379777E+01    0.9304122287900499E+00
    0.0000000000000000E+00    0.1462892710085612E+01    0.1037243024609388E+01
    0.0000000000000000E+00   -0.1445243809615570E+01    0.3946240828834967E+01
    0.0000000000000000E+00   -0.3455338993778935E+00    0.4092527262848217E+01
    0.0000000000000000E+00    0.6277660831404320E+00    0.4293103109154542E+01
    0.0000000000000000E+00    0.7429886854239611E+00    0.3241512314643519E+01
    0.0000000000000000E+00   -0.1588117879734118E+01    0.2844289952419609E+01
    0.0000000000000000E+00   -0.6002320124191652E+00    0.7159905765450471E+00
    0.0000000000000000E+00   -0.7398147869923652E+00    0.1754341919796891E+01
    0.0000000000000000E+00   -0.1788622905643739E+01    0.1870296826774691E+01
    0.0000000000000000E+00    0.3083720183248586E+00    0.9220614901912976E+00
    0.0000000000000000E+00    0.1777901774806180E+01    0.3101523624086016E+01
    0.0000000000000000E+00    0.1576861561598471E+01    0.2192512063922564E+01
[...]
POINT_DATA 213
SCALARS rho double 1
LOOKUP_TABLE default
   0.1346125694796170E+01
   0.9572084527647174E+00
   0.9461020639078124E+00
   0.9421833077514701E+00
   0.8436100785905052E+00
   0.7742024922725257E+00
   0.7627632914204221E+00
   0.7661496233415016E+00
   0.8310481703367265E+00
   0.9353608197671140E+00
   0.9344036383958094E+00
   0.9615898876470029E+00
   0.1448480208888123E+01
   0.1495421840745494E+01
   0.1646754928386005E+01
   0.1426608058877443E+01
   0.1009808068720544E+01
   0.9511456929613182E+00
   0.9438291099370217E+00
   0.9574489508572964E+00
   0.9414832416640700E+00
   0.1037118221425503E+01
   0.9258147537148551E+00
   0.9322497228173979E+00
   0.9538141799783575E+00
   0.9520438484218444E+00
   0.9350971720205270E+00
   0.9565537237118931E+00
   0.9378700247680087E+00
   0.9303318784868110E+00
   0.9446515867126489E+00
   0.8862352513653065E+00
   0.9424046836435381E+00
   0.9637217255546097E+00
   0.1008362577771465E+01
   0.1006713364979950E+01
   0.1001959240549336E+01
   0.1003218316276310E+01
   0.1004120538082294E+01
   0.1005207992650279E+01
   0.1004249813847910E+01
   0.1008267843881786E+01
   0.1023867443067884E+01
   0.1063751875324936E+01
   0.1019386187162553E+01
   0.1001778934113208E+01
   0.9645975233959364E+00
   0.1005263110528869E+01
   0.1000745578316709E+01
   0.1008695104813589E+01
   0.1008032475142374E+01
   0.1002354650880921E+01
   0.9980224682790608E+00
   0.1000594440604980E+01
   0.1001621537589701E+01
   0.9828107810948311E+00
   0.9844011041687630E+00
   0.9834292502931207E+00
   0.9790423922415690E+00
   0.9904798796909303E+00
   0.9935224893886206E+00
   0.1002009103475673E+01
   0.1002132311998028E+01
   0.1002273033582340E+01
   0.1001793219489188E+01
   0.1009814972833392E+01
   0.1006499311746351E+01
   0.9560849990714089E+00
   0.9252996566846414E+00
   0.1007053712651865E+01
   0.1004491538498357E+01
   0.9144889717497032E+00
   0.9091476761027143E+00
   0.8752502590928943E+00
   0.9768039036525079E+00
   0.1000530366597898E+01
   0.1005826553460179E+01
   0.1012895293779665E+01
   0.1011677102427477E+01
   0.1010415988351594E+01
   0.1005456560095716E+01
   0.9909260255110184E+00
   0.1005152543423358E+01
   0.9860803849583185E+00
   0.1005592650627447E+01
   0.1004239968494962E+01
   0.1002886283632249E+01
   0.1003350788888626E+01
   0.1003998912068584E+01
   0.1005116700254013E+01
   0.1003224183257987E+01
   0.1002669183700800E+01
   0.1002590255848407E+01
   0.1004070004659133E+01
   0.1004304937933141E+01
   0.1001643036025503E+01
   0.1002279357321900E+01
   0.1002547248781977E+01
   0.1003472641567325E+01
   0.1003380931080901E+01
   0.1003233776571532E+01
   0.1004430854293400E+01
   0.1004325283197199E+01
   0.1003653379478006E+01
   0.1003719191863772E+01
   0.1004319534138409E+01
   0.1004463155501088E+01
   0.1003629980599646E+01
   0.1064490581493544E+01
   0.1028445780971468E+01
   0.1009607603147355E+01
   0.1006626774102676E+01
   0.1163979474301378E+01
   0.1086026004530845E+01
   0.1007908398971676E+01
   0.1007252664643614E+01
   0.1006796746946192E+01
   0.1013053608644299E+01
   0.1019342644427341E+01
   0.1235143811205287E+01
   0.1032536232933633E+01
   0.1046567728934202E+01
   0.1201703012923368E+01
   0.1014671125332393E+01
   0.1032295324199352E+01
   0.1028222151031622E+01
   0.1014641483573336E+01
   0.1029002257770447E+01
   0.1002002818476381E+01
   0.9607830580820066E+00
   0.1006859706957371E+01
   0.1001326954010039E+01
   0.1010800868392034E+01
   0.1012237273234302E+01
   0.1000940436429746E+01
   0.9979317235317201E+00
   0.9980683699440426E+00
   0.1001191956733436E+01
   0.9841985797708260E+00
   0.9815070579349495E+00
   0.9648654914695792E+00
   0.9680713427302868E+00
   0.9914149190810114E+00
   0.9910916479216320E+00
   0.9925598184525991E+00
   0.1001728510387250E+01
   0.9993250772469862E+00
   0.9941444029265151E+00
   0.1006981383545158E+01
   0.1022611654050734E+01
   0.1001121691833200E+01
   0.1008784265586799E+01
   0.1004775043985261E+01
   0.1009029447306727E+01
   0.9967197949768091E+00
   0.1005567613152644E+01
   0.1003325685873304E+01
   0.9949865129967020E+00
   0.9833521892790530E+00
   0.9944521638504091E+00
   0.9973482230863590E+00
   0.9932519263849512E+00
   0.1001312608249049E+01
   0.1003001448725934E+01
   0.1002189173482838E+01
   0.9947119516184392E+00
   0.9937839725485351E+00
   0.1004862069432106E+01
   0.1020102936709553E+01
   0.1005341234391229E+01
   0.9817063601277449E+00
   0.1004975501327930E+01
   0.1012376568815317E+01
   0.9873747459242613E+00
   0.9551282272141165E+00
   0.9865280377056408E+00
   0.9865952832622860E+00
   0.9920084248960093E+00
   0.9934470865439923E+00
   0.9960657346530505E+00
   0.1037405690909356E+01
   0.1033165796316030E+01
   0.1001443358073574E+01
   0.1001929574473309E+01
   0.9912286695852766E+00
   0.9911121698768727E+00
   0.9649300819288700E+00
   0.9933729920342936E+00
   0.1006089075111742E+01
   0.1001962080811798E+01
   0.9908628495068607E+00
   0.9742274508734904E+00
   0.9420781785086657E+00
   0.9821604770833179E+00
   0.9794777371334421E+00
   0.9704352201667025E+00
   0.9720842372276903E+00
   0.9557868488075297E+00
   0.9497981758175310E+00
   0.9529847958461068E+00
   0.1002637256815284E+01
   0.1002476301970757E+01
   0.1000513242287925E+01
   0.1001675737919762E+01
   0.9610108169557017E+00
   0.9492469479940655E+00
   0.9586432519906311E+00
   0.1001121462568686E+01
   0.1000500591166404E+01
   0.1001161102485526E+01
   0.9807429276960816E+00
   0.9805608284045667E+00
   0.9629214371681070E+00
SCALARS u double 1
LOOKUP_TABLE default
   0.0000000000000000E+00
   0.0000000000000000E+00
   0.0000000000000000E+00
   0.0000000000000000E+00
   0.0000000000000000E+00
   0.0000000000000000E+00
   0.0000000000000000E+00
   0.0000000000000000E+00
   0.0000000000000000E+00
   0.0000000000000000E+00
   0.0000000000000000E+00
   0.0000000000000000E+00
   0.0000000000000000E+00
   0.0000000000000000E+00
   0.0000000000000000E+00
   0.0000000000000000E+00
   0.0000000000000000E+00
   0.0000000000000000E+00
   0.0000000000000000E+00
   0.0000000000000000E+00
   0.0000000000000000E+00
   0.0000000000000000E+00
   0.0000000000000000E+00
   0.0000000000000000E+00
   0.0000000000000000E+00
   0.0000000000000000E+00
   0.0000000000000000E+00
   0.0000000000000000E+00
   0.0000000000000000E+00
   0.0000000000000000E+00
   0.0000000000000000E+00
   0.0000000000000000E+00
   0.0000000000000000E+00
   0.4946084390403325E+00
   0.5336296229396235E+00
   0.5182737288741375E+00
   0.4930696975718001E+00
   0.4847718119408581E+00
   0.4868108136215760E+00
   0.4891429098222744E+00
   0.4958014376856374E+00
   0.4899016128305104E+00
   0.4718097598415669E+00
   0.4448926899587174E+00
   0.4844425910270778E+00
   0.5097672109152632E+00
   0.4402157107389261E+00
   0.4949584587264927E+00
   0.5222981757400275E+00
   0.4962761335160902E+00
   0.5223877814044894E+00
   0.5038134104987518E+00
   0.5644352140169031E+00
   0.5245862239270116E+00
   0.4990946955700133E+00
   0.5729384848058999E+00
   0.5693720714277644E+00
   0.3752129680555535E+00
   0.4003935337289383E+00
   0.5599622500290231E+00
   0.5562276759088325E+00
   0.4942631174083060E+00
   0.4948654038379426E+00
   0.4925634782160280E+00
   0.4913991786278474E+00
   0.5162611628896507E+00
   0.5363588932424884E+00
   0.4951213607875156E+00
   0.4520531595291057E+00
   0.5129024774601986E+00
   0.5117690526466566E+00
   0.4786251287211868E+00
   0.4931155293858613E+00
   0.4600306954373318E+00
   0.5242629198942667E+00
   0.5299866667529146E+00
   0.5129711999262123E+00
   0.5328938855274175E+00
   0.5309772093587924E+00
   0.5309771260032686E+00
   0.5063651410167984E+00
   0.5279605765589321E+00
   0.5409254473520707E+00
   0.5363677255166456E+00
   0.5374194372046835E+00
   0.4965359093627158E+00
   0.4975361620576707E+00
   0.4963807509447992E+00
   0.4955144774623508E+00
   0.4904151887411509E+00
   0.4902491479027397E+00
   0.4861626503315319E+00
   0.4854037739486348E+00
   0.4931941380558106E+00
   0.4910329234529704E+00
   0.4831698316704778E+00
   0.4872469605539423E+00
   0.4880010969404897E+00
   0.4872294036566912E+00
   0.4882160211825607E+00
   0.4952567366102102E+00
   0.4900705809522944E+00
   0.4903581267311302E+00
   0.4944346859693045E+00
   0.4868163397682807E+00
   0.4892720557096083E+00
   0.4881455378810498E+00
   0.4878245184536377E+00
   0.4449022026406371E+00
   0.4700099664047589E+00
   0.4891756201751469E+00
   0.4885980866227758E+00
   0.4510286412221174E+00
   0.4681799610771224E+00
   0.4876648975240573E+00
   0.4868253758067017E+00
   0.4909267533148837E+00
   0.4793946319363193E+00
   0.4657884653213606E+00
   0.3794302312506665E+00
   0.4903697421167734E+00
   0.4487929174615830E+00
   0.4432385355260893E+00
   0.4845729179217869E+00
   0.4621884481320298E+00
   0.4663602298884582E+00
   0.4747774268406418E+00
   0.4893613112006184E+00
   0.5085681474237976E+00
   0.4304904287089589E+00
   0.4927280753895723E+00
   0.5320316185099454E+00
   0.4913826501723293E+00
   0.5209404404684794E+00
   0.5061319828047667E+00
   0.5690636320469999E+00
   0.5275039918422010E+00
   0.5015047795155806E+00
   0.5821373618613810E+00
   0.5691503700217417E+00
   0.3402452490602643E+00
   0.3785432685556857E+00
   0.5753091283338715E+00
   0.5668547247073886E+00
   0.5703055450940471E+00
   0.5291879661617330E+00
   0.5449833828652861E+00
   0.5719093999232533E+00
   0.5385694587091797E+00
   0.5475896936889282E+00
   0.5821565652939829E+00
   0.4925313046001150E+00
   0.5041557177772629E+00
   0.4961299804140891E+00
   0.5562803684740080E+00
   0.4757814624157543E+00
   0.4950174786318904E+00
   0.5496174672072780E+00
   0.5889519110818261E+00
   0.5839568631087244E+00
   0.5468163498067902E+00
   0.5803877175569189E+00
   0.5106055693788858E+00
   0.5029532236716213E+00
   0.5033085380851458E+00
   0.5676232052870120E+00
   0.5564629528967077E+00
   0.4947135441323423E+00
   0.5506799461326947E+00
   0.5513545696829873E+00
   0.5658254157230909E+00
   0.4919953536842104E+00
   0.4927852057935228E+00
   0.3865438338108554E+00
   0.3687907202102864E+00
   0.5574381187364846E+00
   0.5761778935277851E+00
   0.4194381851565621E+00
   0.5822999347244218E+00
   0.4268238595782718E+00
   0.5397390504913868E+00
   0.5016174621437438E+00
   0.5119228251417913E+00
   0.5048434168007313E+00
   0.5752768158184662E+00
   0.5878367583822556E+00
   0.5382358738623335E+00
   0.5679645541100907E+00
   0.5352016964049804E+00
   0.5338463699699370E+00
   0.5582293100247258E+00
   0.5511563293009438E+00
   0.4256775843519409E+00
   0.5272986084059185E+00
   0.5796794667591804E+00
   0.3318312940209044E+00
   0.4761441131774730E+00
   0.5446494937269640E+00
   0.4800669226981653E+00
   0.3006201115470306E+00
   0.5031625243250788E+00
   0.5017180913079292E+00
   0.5129133729797091E+00
   0.5414117118086929E+00
   0.3435217015008362E+00
   0.3398080158395742E+00
   0.3190194433778099E+00
   0.5066187045011927E+00
   0.5123864689540962E+00
   0.5329068386150688E+00
   0.5881307275880259E+00
   0.4644883168924275E+00
   0.3529622376807837E+00
SCALARS v double 1
LOOKUP_TABLE default
   0.0000000000000000E+00
   0.0000000000000000E+00
   0.0000000000000000E+00
   0.0000000000000000E+00
   0.0000000000000000E+00
   0.0000000000000000E+00
   0.0000000000000000E+00
   0.0000000000000000E+00
   0.0000000000000000E+00
   0.0000000000000000E+00
   0.0000000000000000E+00
   0.0000000000000000E+00
   0.0000000000000000E+00
   0.0000000000000000E+00
   0.0000000000000000E+00
   0.0000000000000000E+00
   0.0000000000000000E+00
   0.0000000000000000E+00
   0.0000000000000000E+00
   0.0000000000000000E+00
   0.0000000000000000E+00
   0.0000000000000000E+00
   0.0000000000000000E+00
   0.0000000000000000E+00
   0.0000000000000000E+00
   0.0000000000000000E+00
   0.0000000000000000E+00
   0.0000000000000000E+00
   0.0000000000000000E+00
   0.0000000000000000E+00
   0.0000000000000000E+00
   0.0000000000000000E+00
   0.0000000000000000E+00
   0.0000000000000000E+00
   0.0000000000000000E+00
   0.0000000000000000E+00
   0.0000000000000000E+00
   0.0000000000000000E+00
   0.0000000000000000E+00
   0.0000000000000000E+00
   0.0000000000000000E+00
   0.0000000000000000E+00
   0.0000000000000000E+00
   0.0000000000000000E+00
   0.0000000000000000E+00
   0.0000000000000000E+00
   0.0000000000000000E+00
   0.0000000000000000E+00
   0.0000000000000000E+00
   0.0000000000000000E+00
   0.0000000000000000E+00
   0.0000000000000000E+00
   0.0000000000000000E+00
   0.0000000000000000E+00
   0.0000000000000000E+00
   0.0000000000000000E+00
   0.0000000000000000E+00
   0.0000000000000000E+00
   0.0000000000000000E+00
   0.0000000000000000E+00
   0.0000000000000000E+00
   0.8513955360458296E-03
  -0.1262646023070698E-02
  -0.1293747196402256E-02
   0.0000000000000000E+00
   0.0000000000000000E+00
   0.0000000000000000E+00
   0.0000000000000000E+00
  -0.1933774494544290E-01
   0.5035656971512834E-03
   0.2213150726907273E-02
   0.1419313534927987E-01
  -0.6753674551775062E-02
  -0.8171004420976619E-02
  -0.1325788718021230E-01
   0.4993929178383139E-02
   0.7358934070794142E-03
   0.3478388764906061E-02
   0.1946723832699762E-02
   0.3168072266655883E-02
   0.1755557793784104E-02
  -0.7295454604876863E-02
  -0.6912294258152877E-04
   0.4552258095460538E-02
  -0.4165984000318252E-03
  -0.6650692158943708E-04
  -0.2024618782411907E-03
   0.8052041902678183E-03
   0.0000000000000000E+00
   0.0000000000000000E+00
   0.0000000000000000E+00
   0.0000000000000000E+00
   0.4747328653204457E-03
   0.1624022890307456E-02
  -0.1273125041853209E-02
  -0.9977717767273061E-03
  -0.2076428544262168E-02
  -0.9960615485154515E-03
  -0.7502640411772370E-03
  -0.7419340926142252E-03
   0.6055381866061201E-04
  -0.5966235993537448E-03
   0.8041021995716098E-03
  -0.1730002248433251E-02
   0.3146405561659481E-03
  -0.5710223163258580E-04
  -0.8890514618098091E-03
  -0.1052087353788745E-02
   0.0000000000000000E+00
   0.0000000000000000E+00
   0.0000000000000000E+00
  -0.1035601496445896E-02
  -0.7789944224353498E-02
   0.1821259126100593E-01
  -0.2902416971201635E-04
  -0.1377098222241727E-02
  -0.2028456947005473E-02
  -0.5613671772718843E-02
  -0.1620474381078394E-02
  -0.6357462322348937E-02
  -0.4327186037956850E-02
   0.1517793743078361E-02
   0.3300594270581617E-01
   0.4394529829070914E-04
  -0.2766565870397107E-02
   0.3629287488198403E-02
   0.3910358756424430E-03
   0.0000000000000000E+00
   0.0000000000000000E+00
   0.0000000000000000E+00
   0.0000000000000000E+00
   0.0000000000000000E+00
   0.0000000000000000E+00
   0.0000000000000000E+00
   0.0000000000000000E+00
   0.0000000000000000E+00
   0.0000000000000000E+00
   0.0000000000000000E+00
   0.0000000000000000E+00
   0.0000000000000000E+00
   0.0000000000000000E+00
   0.0000000000000000E+00
   0.0000000000000000E+00
   0.0000000000000000E+00
   0.5001778196299263E-02
   0.3214065065724564E-02
   0.8126045455211074E-02
   0.6096300950008719E-02
   0.1117411732735726E-01
   0.1403811528123831E-01
  -0.3216221144902339E-03
   0.5161911444149888E-02
   0.2930107585324524E-02
   0.3378096200238102E-02
   0.3728544903384227E-02
  -0.1469573980207888E-01
  -0.6136953896329232E-03
   0.6639776179997938E-02
   0.1457244614325154E-02
   0.1959300739019046E-02
   0.4263980430204882E-02
  -0.2812426158145647E-02
   0.1267609577195064E-02
   0.2851959414342619E-02
   0.1534868031406243E-02
   0.2563344866180379E-02
   0.2013569101301923E-02
   0.2154333995320618E-02
   0.8583998694346217E-02
  -0.3830083253380220E-02
   0.6155698670902319E-02
   0.4725666910452011E-04
  -0.4231582248167723E-03
  -0.1674129340542780E-01
  -0.4996659887244710E-02
  -0.4827349435059650E-02
   0.3399378242596241E-02
  -0.6077437487939804E-02
   0.3194967241549048E-04
  -0.3284948881754272E-01
  -0.3181989491005634E-02
   0.4581319063920349E-02
   0.9682240723924366E-03
   0.2133486665784503E-02
   0.4530687697946779E-02
   0.2692787741503371E-02
   0.3243073203971295E-02
   0.5223605127043858E-02
   0.1957627594950528E-02
   0.7485460677650463E-03
  -0.5693750210204234E-04
  -0.5322690140562187E-02
  -0.6972866624888646E-02
  -0.9635303160448451E-03
   0.1062718465646764E-02
  -0.2106021482052337E-02
  -0.3219291745888166E-02
  -0.2544864648770559E-02
  -0.4131306124126539E-02
  -0.7566170041721300E-02
  -0.2012358476861053E-02
   0.6515130175094808E-03
  -0.1916276468161483E-03
   0.1227816750977095E-02
  -0.3502806472662880E-02
   0.4846684277736569E-02
  -0.8642681610464059E-02
   0.3341930297545435E-04
  -0.3327777675256405E-03
   0.2558606058705822E-02
   0.1615750370951235E-02
   0.2039006090882491E-02
  -0.5641501447131436E-02
SCALARS w double 1
LOOKUP_TABLE default
   0.0000000000000000E+00
   0.0000000000000000E+00
   0.0000000000000000E+00
   0.0000000000000000E+00
   0.0000000000000000E+00
   0.0000000000000000E+00
   0.0000000000000000E+00
   0.0000000000000000E+00
   0.0000000000000000E+00
   0.0000000000000000E+00
   0.0000000000000000E+00
   0.0000000000000000E+00
   0.0000000000000000E+00
   0.0000000000000000E+00
   0.0000000000000000E+00
   0.0000000000000000E+00
   0.0000000000000000E+00
   0.0000000000000000E+00
   0.0000000000000000E+00
   0.0000000000000000E+00
   0.0000000000000000E+00
   0.0000000000000000E+00
   0.0000000000000000E+00
   0.0000000000000000E+00
   0.0000000000000000E+00
   0.0000000000000000E+00
   0.0000000000000000E+00
   0.0000000000000000E+00
   0.0000000000000000E+00
   0.0000000000000000E+00
   0.0000000000000000E+00
   0.0000000000000000E+00
   0.0000000000000000E+00
  -0.1007241858922384E+00
  -0.4245528620582222E-01
   0.7158753615135305E-03
   0.5704943558367730E-02
   0.5684952911839656E-03
   0.1606878242803350E-02
   0.3372604798003237E-02
   0.2364299402580331E-02
   0.4720647222281119E-03
   0.3528387233049942E-02
   0.4533336070131302E-01
   0.6563397479811804E-01
   0.8384124266405160E-03
  -0.2266132317405319E-01
   0.4271064976064558E-02
   0.1341970173599644E-01
   0.1029750710298243E-01
   0.4870834203713918E-01
   0.2381551735220342E-02
  -0.6534999693243082E-02
  -0.7372433721271099E-03
   0.3056375870818073E-03
   0.3846852349355403E-02
  -0.3893635252290483E-01
   0.1820273584096772E-01
   0.1120446069783536E-01
   0.3395774046043982E-01
   0.8380191415442733E-02
   0.4924617876954941E-02
   0.4973761413440358E-02
   0.4900522917453009E-02
   0.6056718409337944E-02
   0.2695309307556120E-02
  -0.4127769734062108E-01
  -0.9927104317847402E-01
  -0.1120360380853803E+00
   0.5144525313310009E-02
   0.4216388428307272E-02
  -0.1002595860482227E+00
  -0.9892594349067907E-01
  -0.9835483711505381E-01
  -0.9443969382457100E-01
  -0.6790972039197404E-01
   0.5196996620979400E-02
  -0.1927315220195654E-01
  -0.1563508313095261E-01
  -0.5964345919506127E-02
   0.6822779802463654E-02
  -0.7999951897209516E-01
  -0.2776431479434682E-01
  -0.8086526756575467E-01
  -0.5863339146028249E-01
   0.3073989812113777E-02
   0.2685175147708098E-02
   0.2644703078773997E-02
   0.3457404374779107E-02
   0.3998529298518344E-02
   0.1199876519473401E-02
  -0.1355432377613341E-03
   0.2028966191358791E-02
   0.4894373680660233E-02
   0.3864560753656114E-02
   0.1126430713200150E-02
   0.1188310627292540E-02
   0.1460245323282483E-02
  -0.2199459239772547E-04
   0.9121998348175671E-04
   0.4387187200717856E-02
   0.2712579859882653E-02
   0.2317255083762511E-02
   0.5007037344016718E-02
   0.1069971393883855E-02
   0.2707114404566871E-02
   0.2010664724066720E-02
   0.3391927294930845E-04
   0.8386260354652558E-01
   0.2832480964333941E-02
  -0.8469296581179025E-03
  -0.1274285298769078E-03
   0.1410903979825477E+00
   0.1236626536393908E+00
  -0.1228867735325662E-02
  -0.4383136247450623E-02
  -0.2804612791939934E-03
  -0.6477826838253398E-02
  -0.1895598713953941E-02
   0.1559394040483223E+00
   0.7528604328438612E-01
   0.2567550695077144E-01
   0.1661313051472771E+00