title="tecplot geometry and solution file"
variables = x y z mach temperature lambda1 lambda2 lambda3 lambda4 lambda5
zone t="boundary 1 bc-1", solutiontime= 0.2000000E+02, strandid=1001, i=32, j=46, f=feblock
 -0.547468544169E-02  0.000000000000E+00 -0.567606031243E-02  0.000000000000E+00  0.000000000000E+00  0.000000000000E+00 -0.525159244851E-02
 -0.425776897977E-02  0.000000000000E+00  0.000000000000E+00  0.000000000000E+00  0.000000000000E+00  0.000000000000E+00  0.000000000000E+00
  0.000000000000E+00  0.000000000000E+00 -0.338395986572E-02  0.000000000000E+00  0.000000000000E+00  0.000000000000E+00  0.000000000000E+00
  0.000000000000E+00  0.000000000000E+00  0.000000000000E+00  0.000000000000E+00  0.000000000000E+00  0.000000000000E+00  0.000000000000E+00
  0.000000000000E+00  0.000000000000E+00  0.000000000000E+00  0.000000000000E+00
  0.250494197117E+01  0.250494197117E+01  0.127822156907E+01  0.146289271009E+01  0.157686156160E+01  0.308372018325E+00  0.261948602442E-01
 -0.122573481164E+01 -0.600232012419E+00  0.250494197117E+01  0.477386199275E+00  0.742988685424E+00 -0.739814786992E+00  0.177790177481E+01
  0.155830813274E+01  0.250494197117E+01 -0.249658903664E+01 -0.154800130438E+01 -0.487811078581E+00  0.250494197117E+01  0.627766083140E+00
 -0.345533899378E+00 -0.178862290564E+01 -0.158811787973E+01  0.125000000000E+01 -0.249658903664E+01 -0.144524380962E+01  0.000000000000E+00
 -0.125000000000E+01 -0.249658903664E+01 -0.249658903664E+01 -0.249658903664E+01
  0.803813859867E-04  0.125000000000E+01  0.822460170215E-04  0.103724302461E+01  0.219251206392E+01  0.922061490191E+00  0.103872438719E-03
  0.341545874230E-04  0.715990576545E+00  0.250000000000E+01  0.202479342020E+01  0.324151231464E+01  0.175434191980E+01  0.310152362409E+01
  0.404200324774E+01  0.375000000000E+01  0.810725962649E-04  0.930412228790E+00  0.299062775774E+01  0.500000000000E+01  0.429310310915E+01
  0.409252726285E+01  0.187029682677E+01  0.284428995242E+01  0.500000000000E+01  0.125000000000E+01  0.394624082883E+01  0.500000000000E+01
  0.500000000000E+01  0.250000000000E+01  0.375000000000E+01  0.500000000000E+01
  0.000000000000E+00  0.440672136512E+00  0.000000000000E+00  0.474618025820E+00  0.460125068601E+00  0.468639320143E+00  0.000000000000E+00
  0.000000000000E+00  0.402534623939E+00  0.469886789982E+00  0.464193107367E+00  0.478749739491E+00  0.489555756507E+00  0.483130037990E+00
  0.488002902366E+00  0.489035017215E+00  0.000000000000E+00  0.465237698331E+00  0.473759127176E+00  0.495364848064E+00  0.490293257191E+00
  0.486276632093E+00  0.445850265191E+00  0.464356446519E+00  0.496127940578E+00  0.443891909404E+00  0.486928147025E+00  0.497248366859E+00
  0.496055083747E+00  0.467740399690E+00  0.488187228171E+00  0.495089980244E+00
  0.999990300362E+00  0.102982970104E+01  0.999990762612E+00  0.104241436388E+01  0.101187663318E+01  0.102516400612E+01  0.999991420552E+00
  0.999992171067E+00  0.103882325429E+01  0.100825795511E+01  0.101253536096E+01  0.100301645575E+01  0.102705594255E+01  0.100604114309E+01
  0.100244532432E+01  0.100354817652E+01  0.999992724186E+00  0.103209991946E+01  0.100459425771E+01  0.100178625606E+01  0.100260326526E+01
  0.100234745937E+01  0.101657167924E+01  0.100620610961E+01  0.100168369530E+01  0.104025009063E+01  0.100303477791E+01  0.100118721261E+01
  0.100134451878E+01  0.100976460100E+01  0.100405634212E+01  0.100176433139E+01
 -0.152681803346E+00 -0.765458990373E+00 -0.174953263480E+00 -0.123174493366E+01 -0.879830682833E-01 -0.146953804454E+01 -0.128251186430E+00
 -0.426573238088E-01 -0.145776557746E+01  0.398189321312E-01 -0.985721334678E-01  0.174865052356E+00 -0.826080004522E-01  0.966628259385E-01
  0.237038166801E+00  0.232770662913E+00 -0.772118049826E-01 -0.963738192041E+00  0.128066988306E+00  0.846689928124E+00  0.307740132351E+00
  0.205231860532E+00 -0.469468468255E-01  0.110454330710E+00  0.876774932422E+00 -0.622026184311E+00  0.160100662343E+00  0.964477243723E+00
  0.854451276200E+00  0.889600138982E-01  0.174703413484E+00  0.804456752231E+00
 -0.599406240974E-02 -0.110930727838E+00 -0.831389133845E-02 -0.157321729417E+00 -0.439840253809E-02 -0.222222975393E+00 -0.905513253822E-02
 -0.805609165881E-02 -0.217071929651E+00  0.193076024876E-01 -0.895920417972E-02  0.369886454606E-01  0.233361011371E-02  0.285199209245E-01
  0.467252603768E-01  0.514005152638E-01 -0.711981159230E-02 -0.150236264488E+00  0.256898203786E-01  0.173477920585E+00  0.612493271214E-01
  0.395346854741E-01  0.511921474030E-02  0.212441655603E-01  0.183322274314E+00 -0.766364251638E-01  0.317388935123E-01  0.202389098262E+00
  0.178592627074E+00  0.223777351788E-01  0.372916343309E-01  0.167172292779E+00
 -0.101402926723E-01 -0.320739196095E-02 -0.136646664874E-01 -0.312220812996E-01 -0.372917204463E-02 -0.152577468924E-01 -0.117225965537E-01
  0.436812590471E-02  0.811296742641E-03  0.332921216934E-03 -0.318494476497E-02 -0.337078649666E-02  0.355602996208E-02 -0.663100039071E-03
  0.126321618857E-02  0.856276876290E-04  0.613645396852E-02  0.198977757940E-01 -0.363585372888E-03 -0.660146385557E-04  0.790449946353E-03
  0.905682646945E-03  0.421504081426E-03  0.341841030126E-02 -0.213740299997E-02  0.256283824463E-02  0.191361092345E-02  0.459740662384E-03
  0.191157691201E-02  0.546578750952E-03  0.190363367586E-03 -0.165982096323E-03
  0.368727647861E-01  0.337866757509E-01  0.402496604413E-01  0.293129791551E-03 -0.354676022871E-01 -0.383917562499E-01  0.225303761451E-01
  0.196691877463E-01 -0.271796872008E-01 -0.387044187024E-01 -0.725750010424E-01 -0.400108400098E-01 -0.800184723616E-01 -0.371315296028E-01
 -0.273950584763E-01 -0.322776216521E-01  0.152536061540E-01 -0.229131438140E-01 -0.459866847646E-01 -0.115025854380E-01 -0.253471701635E-01
 -0.303154556784E-01 -0.544978825109E-01 -0.372672324332E-01 -0.109550164155E-01 -0.281729803135E-01 -0.277917354142E-01 -0.103529838290E-01
 -0.124328692809E-01 -0.421793779459E-01 -0.285000811966E-01 -0.122428334586E-01
  0.121922171288E+00  0.315266005243E+00  0.166717123364E+00  0.492950347953E+00  0.365883299465E-01  0.609987958004E+00 -0.813955004238E-02
 -0.261542620713E-01  0.605800512700E+00 -0.159968188749E-01  0.430860550770E-01 -0.683522753841E-01  0.356428061105E-01 -0.380839853381E-01
 -0.948117728338E-01 -0.939072901837E-01  0.254285886853E-01  0.402911267130E+00 -0.474098874473E-01 -0.351390084845E+00 -0.124434465782E+00
 -0.812850366091E-01  0.225695148408E-01 -0.395426126334E-01 -0.364596714236E+00  0.253581688348E+00 -0.625316950617E-01 -0.402230856439E+00
 -0.355527159227E+00 -0.322809939029E-01 -0.694320449523E-01 -0.333864193761E+00
        12        19        11        11
        11         5        12        12
        10        14         5         5
        19        13        11        11
        19        24        13        13
        30        23        24        24
        19        12        22        22
        28        22        21        21
        11        13         6         6
         7         6         9         9
        15        12        14        14
        18        13        23        23
        15        25        21        21
        27        19        22        22
        18         8         9         9
        27        31        24        24
         4        11         6         6
         5        14        12        12
         4         2         5         5
        21        12        15        15
        14        16        15        15
        24        19        27        27
        22        29        27        27
        23        26        18        18
        17         8        18        18
         5        11         4         4
         6         3         4         4
        26        23        30        30
         5         2        10        10
        16        14        10        10
         3         6         7         7
        21        25        28        28
        29        22        28        28
         6        13         9         9
         2         4         1         1
        31        27        32        32
        25        15        20        20
        24        23        13        13
         8         7         9         9
        13        18         9         9
        31        30        24        24
        12        21        22        22
        29        32        27        27
         3         1         4         4
        26        17        18        18
        16        20        15        15
zone t="boundary 2 bc-2", solutiontime= 0.2000000E+02, strandid=1002, i=33, j=48, f=feblock
  0.500195253374E+01  0.375034811161E+01  0.249861146299E+01  0.288036674177E+01  0.124717526933E+01  0.190856698521E+01  0.326577190273E+01
  0.201394856120E+01 -0.338395986572E-02  0.962374249381E+00  0.500000000000E+01  0.403430190008E+01  0.423029563807E+01  0.500000000000E+01
  0.385439188940E+01  0.500000000000E+01  0.398133433176E+01  0.315200081417E+01  0.266958028869E+01  0.154798029824E+01  0.218327860466E+01
  0.893688440338E+00  0.000000000000E+00  0.699009761768E+00  0.964460899052E+00  0.310303671659E+01  0.000000000000E+00  0.000000000000E+00
  0.125000000000E+01  0.500000000000E+01  0.375000000000E+01  0.250000000000E+01  0.000000000000E+00
 -0.249658903664E+01 -0.249658903664E+01 -0.249658903664E+01 -0.249658903664E+01 -0.249658903664E+01 -0.249658903664E+01 -0.249658903664E+01
 -0.249658903664E+01 -0.249658903664E+01 -0.249658903664E+01 -0.249658903664E+01 -0.249658903664E+01 -0.249658903664E+01 -0.249658903664E+01
 -0.249658903664E+01 -0.249658903664E+01 -0.249658903664E+01 -0.249658903664E+01 -0.249658903664E+01 -0.249658903664E+01 -0.249658903664E+01
 -0.249658903664E+01 -0.249658903664E+01 -0.249658903664E+01 -0.249658903664E+01 -0.249658903664E+01 -0.249658903664E+01 -0.249658903664E+01
 -0.249658903664E+01 -0.249658903664E+01 -0.249658903664E+01 -0.249658903664E+01 -0.249658903664E+01
  0.108225889030E-03  0.145875369682E-03  0.100893326425E-03  0.901663374396E+00  0.110858761917E-03  0.714928318829E+00  0.188140648011E+01
  0.175892165504E+01  0.810725962649E-04  0.957504300331E+00  0.125000000000E+01  0.100596698996E+01  0.191313519089E+01  0.250000000000E+01
  0.292898096716E+01  0.375000000000E+01  0.406883369524E+01  0.363389289944E+01  0.284756860985E+01  0.292582308120E+01  0.395754054931E+01
  0.205027256979E+01  0.125000000000E+01  0.306703272692E+01  0.397155766662E+01  0.433068622168E+01  0.250000000000E+01  0.375000000000E+01
  0.500000000000E+01  0.500000000000E+01  0.500000000000E+01  0.500000000000E+01  0.500000000000E+01
  0.000000000000E+00  0.000000000000E+00  0.000000000000E+00  0.380534933893E+00  0.000000000000E+00  0.343213081171E+00  0.585244496925E+00
  0.579499344205E+00  0.000000000000E+00  0.500959578913E+00  0.508769460148E+00  0.434312419771E+00  0.572817919451E+00  0.537160208080E+00
  0.569105645782E+00  0.515014970171E+00  0.508256765061E+00  0.527354036988E+00  0.567656182489E+00  0.531857069084E+00  0.506013391179E+00
  0.521044573739E+00  0.443891909404E+00  0.490703078146E+00  0.492147926412E+00  0.501388000320E+00  0.467740399690E+00  0.488187228171E+00
  0.489959820989E+00  0.491323935798E+00  0.486019442841E+00  0.489980976742E+00  0.495089980244E+00
  0.999993488485E+00  0.999993690942E+00  0.999993544242E+00  0.989596674085E+00  0.999993139053E+00  0.985604091028E+00  0.989839488847E+00
  0.991730617690E+00  0.999992724186E+00  0.984220387528E+00  0.985139981863E+00  0.984817712566E+00  0.990066477090E+00  0.100292374828E+01
  0.999857731400E+00  0.100487268684E+01  0.100122724769E+01  0.100056983810E+01  0.997888256964E+00  0.100350942201E+01  0.100059365414E+01
  0.101090707434E+01  0.104025009063E+01  0.100327959733E+01  0.100254952730E+01  0.100046804572E+01  0.100976460100E+01  0.100405634212E+01
  0.100192626091E+01  0.100045827286E+01  0.100058947226E+01  0.100110091494E+01  0.100176433139E+01
  0.631070415423E-01  0.495024919650E-01  0.303837728104E-01 -0.598076068682E+00 -0.604084994641E-01 -0.195833733327E+01  0.128260099941E+00
 -0.240420802829E-01 -0.772118049826E-01 -0.911048421520E+00  0.165138122967E+00  0.189818771558E+00  0.129728197335E+00  0.110704659769E+00
  0.814508256106E-01  0.742971173369E-01  0.546871046673E-01  0.632964866440E-01  0.104566750334E+00  0.125595941679E+00  0.826903165650E-01
 -0.328891223587E-01 -0.622026184311E+00  0.840034477260E-01  0.151890291844E+00  0.993771064794E-01  0.889600138982E-01  0.174703413484E+00
  0.724899398695E+00  0.865161333528E-01  0.331216022807E+00  0.636428799163E+00  0.804456752231E+00
 -0.172091678130E-01  0.480812425683E-02 -0.466260731188E-03 -0.102786090228E+00  0.111869717754E-01 -0.243333017832E+00  0.463412705789E-03
  0.960026776909E-02 -0.711981159230E-02 -0.107597004394E+00 -0.373317665038E-01 -0.148797108432E-02 -0.189292576485E-01 -0.283135466116E-01
 -0.188476838160E-01 -0.174242825869E-01 -0.208675763172E-01 -0.173963938025E-01 -0.647502112101E-02  0.106737082107E-01 -0.736517339609E-02
  0.894917946286E-02 -0.766364251638E-01  0.561521646529E-02  0.175442283704E-01 -0.102277851272E-01  0.223777351788E-01  0.372916343309E-01
  0.130302627198E+00 -0.436063472917E-02  0.332705518787E-01  0.988326213639E-01  0.167172292779E+00
  0.389262255281E-02 -0.102550428272E-02 -0.604447524475E-02 -0.139633622943E-01 -0.321151607811E-02 -0.243458501138E-01  0.190145833456E-02
 -0.216219010150E-03  0.613645396852E-02 -0.934553449773E-02  0.221291130122E-02  0.711868780146E-02 -0.131034207192E-03 -0.209293165816E-03
 -0.171933582558E-03  0.333798838580E-03 -0.406932987441E-04  0.174330186779E-03 -0.293800779870E-03 -0.691041892551E-03  0.425931846597E-03
 -0.724298593494E-03  0.256283824463E-02 -0.139354095588E-03  0.696726689131E-04  0.148585874528E-03  0.546578750952E-03  0.190363367586E-03
  0.722386532321E-04  0.592852981805E-04 -0.124711785013E-04 -0.410853127002E-04 -0.165982096323E-03
  0.496716241071E-02  0.512620771183E-02  0.775136315269E-02 -0.258488993745E-01  0.179263110958E-01 -0.557287947766E-02 -0.390374848408E-01
 -0.522202543640E-01  0.152536061540E-01 -0.245077712340E-01 -0.747137120040E-02 -0.272652045983E-01 -0.156847113910E-01 -0.708813835180E-02
 -0.161932636534E-01 -0.592654696673E-02 -0.157396202907E-01 -0.222480433141E-01 -0.263877445435E-01 -0.274362636984E-01 -0.256327289393E-01
 -0.414421775346E-01 -0.281729803135E-01 -0.291689219761E-01 -0.256836319584E-01 -0.221578428277E-01 -0.421793779459E-01 -0.285000811966E-01
 -0.172988178349E-01 -0.922518655406E-02 -0.200613159195E-01 -0.217690924834E-01 -0.122428334586E-01
 -0.179592160556E-01 -0.495060490129E-01 -0.858029827166E-01  0.272562365752E+00 -0.102376010619E+00  0.838796082928E+00 -0.380622181433E-01
  0.123196946846E-01  0.254285886853E-01  0.377517131983E+00 -0.357206261066E-01 -0.575067406501E-01 -0.319073617600E-01 -0.212215685829E-01
 -0.159189623259E-01 -0.150219098355E-01 -0.751166078648E-02 -0.115139389988E-01 -0.286379716011E-01 -0.427131212741E-01 -0.221600859108E-01
  0.150053293868E-01  0.253581688348E+00 -0.270041053729E-01 -0.554066243209E-01 -0.271523265436E-01 -0.322809939029E-01 -0.694320449523E-01
 -0.294519323931E+00 -0.261476929077E-01 -0.124290279227E+00 -0.253022207011E+00 -0.333864193761E+00
        15         7        19        19
         8        20        19        19
        18        19        21        21
         7         4         8         8
         3         6         4         4
        19         7         8         8
        19        18        15        15
        14        13        15        15
         8        22        20        20
        27        24        22        22
        19        20        21        21
        32        26        21        21
        17        18        26        26
        17        16        15        15
        25        29        21        21
        12         7        13        13
        10         8         6         6
        25        20        24        24
         4         6         8         8
        12         2         4         4
        10        23        22        22
        26        31        17        17
        30        16        17        17
         4         7        12        12
        13        11        12        12
        21        20        25        25
        24        28        25        25
        22         8        10        10
         6         5        10        10
        31        26        32        32
         4         2         3         3
         5         6         3         3
        11        13        14        14
        22        23        27        27
        28        24        27        27
        15        13         7         7
         2        12         1         1
        29        25        33        33
        23        10         9         9
        21        26        18        18
        16        14        15        15
        18        17        15        15
        29        32        21        21
        22        24        20        20
        28        33        25        25
        11         1        12        12
        31        30        17        17
         5         9        10        10
zone t="boundary 3 bc-3", solutiontime= 0.2000000E+02, strandid=1003, i=33, j=48, f=feblock
  0.375059096892E+01  0.249769609313E+01  0.500322133174E+01  0.403612218725E+01  0.287976772365E+01  0.124541910518E+01  0.190552237404E+01
  0.500000000000E+01  0.326671104552E+01  0.423253755448E+01  0.201271136506E+01 -0.547468544169E-02  0.958895643487E+00  0.500000000000E+01
  0.266968147299E+01  0.385584487271E+01  0.890374214836E+00  0.154654013699E+01  0.000000000000E+00  0.500000000000E+01  0.315261136744E+01
  0.218304199515E+01  0.398195307895E+01  0.000000000000E+00  0.697379952124E+00  0.963757277315E+00  0.125000000000E+01  0.000000000000E+00
  0.500000000000E+01  0.310330738524E+01  0.250000000000E+01  0.375000000000E+01  0.000000000000E+00
  0.250494197117E+01  0.250494197117E+01  0.250494197117E+01  0.250494197117E+01  0.250494197117E+01  0.250494197117E+01  0.250494197117E+01
  0.250494197117E+01  0.250494197117E+01  0.250494197117E+01  0.250494197117E+01  0.250494197117E+01  0.250494197117E+01  0.250494197117E+01
  0.250494197117E+01  0.250494197117E+01  0.250494197117E+01  0.250494197117E+01  0.250494197117E+01  0.250494197117E+01  0.250494197117E+01
  0.250494197117E+01  0.250494197117E+01  0.250494197117E+01  0.250494197117E+01  0.250494197117E+01  0.250494197117E+01  0.250494197117E+01
  0.250494197117E+01  0.250494197117E+01  0.250494197117E+01  0.250494197117E+01  0.250494197117E+01
  0.135649900494E-03  0.110129816467E-03  0.966887303890E-04  0.101756752009E+01  0.908094589218E+00  0.103942505801E-03  0.722629083213E+00
  0.125000000000E+01  0.188965661746E+01  0.191862696980E+01  0.176708239098E+01  0.803813859867E-04  0.969652551954E+00  0.250000000000E+01
  0.285339433501E+01  0.293325058812E+01  0.205656223819E+01  0.293157016932E+01  0.125000000000E+01  0.375000000000E+01  0.363766838842E+01
  0.396069444983E+01  0.407056385475E+01  0.250000000000E+01  0.307031995245E+01  0.397359820314E+01  0.500000000000E+01  0.375000000000E+01
  0.500000000000E+01  0.433260781310E+01  0.500000000000E+01  0.500000000000E+01  0.500000000000E+01
  0.000000000000E+00  0.000000000000E+00  0.000000000000E+00  0.444961626928E+00  0.402838316190E+00  0.000000000000E+00  0.379029001549E+00
  0.508827846411E+00  0.575719767468E+00  0.573484231916E+00  0.562571091033E+00  0.000000000000E+00  0.491643474339E+00  0.534340493553E+00
  0.556353506125E+00  0.564141623675E+00  0.522489639030E+00  0.521815314100E+00  0.440672136512E+00  0.517132480923E+00  0.524064820256E+00
  0.503612613683E+00  0.509416634110E+00  0.469886789982E+00  0.495646532245E+00  0.494503101969E+00  0.488630053423E+00  0.489035017215E+00
  0.492985464012E+00  0.498953669977E+00  0.486505314975E+00  0.484610387305E+00  0.495364848064E+00
  0.999989345567E+00  0.999989414891E+00  0.999989632591E+00  0.981375695393E+00  0.988672653297E+00  0.999989832933E+00  0.982271891095E+00
  0.984075644303E+00  0.990406052732E+00  0.990320090376E+00  0.994390331428E+00  0.999990300362E+00  0.988743428079E+00  0.100365390733E+01
  0.999774597300E+00  0.100117529834E+01  0.100830077599E+01  0.100251293722E+01  0.102982970104E+01  0.100442054131E+01  0.100199281310E+01
  0.100081994749E+01  0.100137956774E+01  0.100825795511E+01  0.100297377722E+01  0.100191712118E+01  0.100214790177E+01  0.100354817652E+01
  0.100047567419E+01  0.100056574043E+01  0.100126719373E+01  0.100066769089E+01  0.100178625606E+01
  0.426237950296E-01 -0.329665584126E-01  0.706453282410E-01 -0.391919593820E+00 -0.152498261541E+01 -0.960881000549E-01 -0.151788575270E+01
  0.242257385518E+00  0.122522010810E+00  0.152724120003E+00 -0.252590954718E+00 -0.152681803346E+00 -0.102814000133E+01  0.115765752627E+00
  0.134038885267E+00  0.951754812644E-01 -0.290995601784E-01  0.129384426541E+00 -0.765458990373E+00  0.788631270505E-01  0.577172538471E-01
  0.787715333680E-01  0.600741859578E-01  0.398189321312E-01  0.112032314276E+00  0.208311281263E+00  0.643848422117E+00  0.232770662913E+00
  0.747386535271E-01  0.921221127870E-01  0.598978666615E+00  0.325461831313E+00  0.846689928124E+00
  0.988067255213E-02  0.956272767146E-02 -0.175639383133E-01 -0.110811717751E+00 -0.210545919200E+00  0.200038988265E-01 -0.187596634642E+00
 -0.395962375454E-01  0.199717989674E-02 -0.208261756842E-01 -0.456321214226E-02 -0.599406240974E-02 -0.772238655959E-01 -0.303066301420E-01
  0.196497767870E-02 -0.158205083987E-01  0.287828394086E-01  0.136514980519E-01 -0.110930727838E+00 -0.193324784456E-01 -0.167103001933E-01
 -0.904320050969E-02 -0.195301069772E-01  0.193076024876E-01  0.264129631818E-01  0.262914914681E-01  0.114169636296E+00  0.514005152638E-01
 -0.680585059057E-02 -0.106867924664E-01  0.927493774485E-01  0.323663946727E-01  0.173477920585E+00
  0.186722896703E-02 -0.992213186522E-03 -0.238581123426E-02  0.741782284233E-02  0.214377613667E-01 -0.839146647561E-02  0.305039746666E-03
 -0.482589372482E-04  0.240054363232E-02 -0.404810355830E-03  0.201561569647E-02 -0.101402926723E-01 -0.116580343997E-01 -0.882000902372E-03
  0.104507377274E-03 -0.119872740429E-03  0.397730995924E-02  0.149061899352E-02 -0.320739196095E-02 -0.493056990247E-03 -0.240147341775E-03
 -0.107215211231E-02 -0.189367049636E-04  0.332921216934E-03  0.907341260711E-03 -0.302361112776E-03 -0.441099468475E-03  0.856276876290E-04
 -0.172742982071E-03  0.369108492645E-05 -0.988742499814E-04  0.235912027649E-04 -0.660146385557E-04
  0.115828862904E-01  0.216271304870E-01  0.605104847791E-02 -0.162784780950E-01 -0.260842676817E-01  0.208644859335E-01 -0.831756984909E-02
 -0.938932531387E-02 -0.479266201252E-01 -0.232716532068E-01 -0.694066811496E-01  0.368727647861E-01 -0.227641864061E-01 -0.929414233946E-02
 -0.246993204769E-01 -0.206708118709E-01 -0.584279755868E-01 -0.262936460116E-01  0.337866757509E-01 -0.824856151197E-02 -0.237484834539E-01
 -0.245141020496E-01 -0.177702228691E-01 -0.387044187024E-01 -0.378013774317E-01 -0.253206892176E-01 -0.181961144443E-01 -0.322776216521E-01
 -0.877398913081E-02 -0.230493583685E-01 -0.220852507333E-01 -0.201319365276E-01 -0.115025854380E-01
 -0.176696317598E+00 -0.754336634721E-01 -0.332521407512E-01  0.203807508016E+00  0.660315412132E+00 -0.481583507904E-02  0.637444008626E+00
 -0.617708501881E-01 -0.379529435190E-01 -0.394969553597E-01  0.986642776689E-01  0.121922171288E+00  0.405030779583E+00 -0.217802404669E-01
 -0.423529791402E-01 -0.215770340446E-01  0.866692074282E-02 -0.448071841365E-01  0.315266005243E+00 -0.154776486645E-01 -0.956719529119E-02
 -0.202964518584E-01 -0.977975637288E-02 -0.159968188749E-01 -0.410075850100E-01 -0.783901697119E-01 -0.260333134696E+00 -0.939072901837E-01
 -0.211757605699E-01 -0.243785791111E-01 -0.237634322912E+00 -0.121848550090E+00 -0.351390084845E+00
        15         9        16        16
        15        18        11        11
        22        15        21        21
        11         5         9         9
         5         7         2         2
        11         9        15        15
        16        21        15        15
        16        10        14        14
        18        17        11        11
        17        25        24        24
        22        18        15        15
        22        30        31        31
        30        21        23        23
        16        20        23        23
        22        27        26        26
        10         9         4         4
         7        11        13        13
        25        18        26        26
        11         7         5         5
         5         1         4         4
        17        19        13        13
        23        32        30        30
        23        20        29        29
         4         9         5         5
         4         8        10        10
        26        18        22        22
        26        28        25        25
        13        11        17        17
        13         6         7         7
        31        30        32        32
         2         1         5         5
         2         7         6         6
        14        10         8         8
        24        19        17        17
        24        25        28        28
         9        10        16        16
         3         4         1         1
        33        26        27        27
        12        13        19        19
        21        30        22        22
        16        14        20        20
        16        23        21        21
        22        31        27        27
        18        25        17        17
        26        33        28        28
         4         3         8         8
        23        29        32        32
        13        12         6         6
zone t="boundary 4 bc-4", solutiontime= 0.2000000E+02, strandid=1004, i=32, j=46, f=feblock
  0.125000000000E+01  0.219251206392E+01  0.103724302461E+01  0.500000000000E+01  0.250000000000E+01  0.375000000000E+01  0.404200324774E+01
  0.500000000000E+01  0.000000000000E+00  0.310152362409E+01  0.202479342020E+01  0.324151231464E+01  0.922061490191E+00  0.000000000000E+00
  0.299062775774E+01  0.394624082883E+01  0.500000000000E+01  0.409252726285E+01  0.500000000000E+01  0.429310310915E+01  0.175434191980E+01
  0.284428995242E+01  0.000000000000E+00  0.000000000000E+00  0.715990576545E+00  0.930412228790E+00  0.125000000000E+01  0.187029682677E+01
  0.500000000000E+01  0.375000000000E+01  0.250000000000E+01  0.000000000000E+00
  0.250494197117E+01  0.157686156160E+01  0.146289271009E+01  0.250494197117E+01  0.250494197117E+01  0.250494197117E+01  0.155830813274E+01
  0.125000000000E+01  0.250494197117E+01  0.177790177481E+01  0.477386199275E+00  0.742988685424E+00  0.308372018325E+00  0.125000000000E+01
 -0.487811078581E+00 -0.144524380962E+01 -0.125000000000E+01 -0.345533899378E+00  0.000000000000E+00  0.627766083140E+00 -0.739814786992E+00
 -0.158811787973E+01  0.000000000000E+00 -0.125000000000E+01 -0.600232012419E+00 -0.154800130438E+01 -0.249658903664E+01 -0.178862290564E+01
 -0.249658903664E+01 -0.249658903664E+01 -0.249658903664E+01 -0.249658903664E+01
  0.500000000000E+01  0.500000000000E+01  0.500000000000E+01  0.500000000000E+01  0.500000000000E+01  0.500000000000E+01  0.500000000000E+01
  0.500000000000E+01  0.500000000000E+01  0.500000000000E+01  0.500000000000E+01  0.500000000000E+01  0.500000000000E+01  0.500000000000E+01
  0.500000000000E+01  0.500000000000E+01  0.500000000000E+01  0.500000000000E+01  0.500000000000E+01  0.500000000000E+01  0.500000000000E+01
  0.500000000000E+01  0.500000000000E+01  0.500000000000E+01  0.500000000000E+01  0.500000000000E+01  0.500000000000E+01  0.500000000000E+01
  0.500000000000E+01  0.500000000000E+01  0.500000000000E+01  0.500000000000E+01
  0.488630053423E+00  0.488907200673E+00  0.490613524454E+00  0.492985464012E+00  0.486505314975E+00  0.484610387305E+00  0.485346346417E+00
  0.494164094826E+00  0.495364848064E+00  0.486544301825E+00  0.487826539497E+00  0.487053944491E+00  0.494057895498E+00  0.496127940578E+00
  0.487590739712E+00  0.483169495133E+00  0.492384717662E+00  0.487198320547E+00  0.494738341209E+00  0.487947262281E+00  0.489650836219E+00
  0.487975047811E+00  0.497248366859E+00  0.496055083747E+00  0.494947818077E+00  0.492777844524E+00  0.489959820989E+00  0.489963118744E+00
  0.491323935798E+00  0.486019442841E+00  0.489980976742E+00  0.495089980244E+00
  0.100214790177E+01  0.100152376261E+01  0.100177920363E+01  0.100047567419E+01  0.100126719373E+01  0.100066769089E+01  0.100025509248E+01
  0.100050308878E+01  0.100178625606E+01  0.100112381228E+01  0.100132857256E+01  0.100072299640E+01  0.100164084009E+01  0.100168369530E+01
  0.100096380429E+01  0.100001109262E+01  0.100083219162E+01  0.100022379580E+01  0.100062130449E+01  0.100023379273E+01  0.100174737467E+01
  0.100099023681E+01  0.100118721261E+01  0.100134451878E+01  0.100132726122E+01  0.100179980273E+01  0.100192626091E+01  0.100163810987E+01
  0.100045827286E+01  0.100058947226E+01  0.100110091494E+01  0.100176433139E+01
  0.643848422117E+00  0.621604046111E+00  0.639795699185E+00  0.747386535271E-01  0.598978666615E+00  0.325461831313E+00  0.226098672406E+00
  0.743948651214E-01  0.846689928124E+00  0.498727482477E+00  0.669452521222E+00  0.468804048076E+00  0.777709439255E+00  0.876774932422E+00
  0.528182477725E+00  0.217753525448E+00  0.842956904709E-01  0.277439472483E+00  0.690668369236E-01  0.276946048275E+00  0.823282832280E+00
  0.496963097103E+00  0.964477243723E+00  0.854451276200E+00  0.902815554547E+00  0.724103618556E+00  0.724899398695E+00  0.765301067575E+00
  0.865161333528E-01  0.331216022807E+00  0.636428799163E+00  0.804456752231E+00