title="tecplot geometry and solution file"
variables = x y z mach temperature lambda1 lambda2 lambda3 lambda4 lambda5
zone t="boundary 1 bc-1", solutiontime= 0.3000000E+02, strandid=1001, i=32, j=46, f=feblock
 -0.547468544169E-02  0.000000000000E+00 -0.567606031243E-02  0.000000000000E+00  0.000000000000E+00  0.000000000000E+00 -0.525159244851E-02
 -0.425776897977E-02  0.000000000000E+00  0.000000000000E+00  0.000000000000E+00  0.000000000000E+00  0.000000000000E+00  0.000000000000E+00
  0.000000000000E+00  0.000000000000E+00 -0.338395986572E-02  0.000000000000E+00  0.000000000000E+00  0.000000000000E+00  0.000000000000E+00
  0.000000000000E+00  0.000000000000E+00  0.000000000000E+00  0.000000000000E+00  0.000000000000E+00  0.000000000000E+00  0.000000000000E+00
  0.000000000000E+00  0.000000000000E+00  0.000000000000E+00  0.000000000000E+00
  0.250494197117E+01  0.250494197117E+01  0.127822156907E+01  0.146289271009E+01  0.157686156160E+01  0.308372018325E+00  0.261948602442E-01
 -0.122573481164E+01 -0.600232012419E+00  0.250494197117E+01  0.477386199275E+00  0.742988685424E+00 -0.739814786992E+00  0.177790177481E+01
  0.155830813274E+01  0.250494197117E+01 -0.249658903664E+01 -0.154800130438E+01 -0.487811078581E+00  0.250494197117E+01  0.627766083140E+00
 -0.345533899378E+00 -0.178862290564E+01 -0.158811787973E+01  0.125000000000E+01 -0.249658903664E+01 -0.144524380962E+01  0.000000000000E+00
 -0.125000000000E+01 -0.249658903664E+01 -0.249658903664E+01 -0.249658903664E+01
  0.803813859867E-04  0.125000000000E+01  0.822460170215E-04  0.103724302461E+01  0.219251206392E+01  0.922061490191E+00  0.103872438719E-03
  0.341545874230E-04  0.715990576545E+00  0.250000000000E+01  0.202479342020E+01  0.324151231464E+01  0.175434191980E+01  0.310152362409E+01
  0.404200324774E+01  0.375000000000E+01  0.810725962649E-04  0.930412228790E+00  0.299062775774E+01  0.500000000000E+01  0.429310310915E+01
  0.409252726285E+01  0.187029682677E+01  0.284428995242E+01  0.500000000000E+01  0.125000000000E+01  0.394624082883E+01  0.500000000000E+01
  0.500000000000E+01  0.250000000000E+01  0.375000000000E+01  0.500000000000E+01
  0.000000000000E+00  0.440672136512E+00  0.000000000000E+00  0.474618025820E+00  0.460125068601E+00  0.468639320143E+00  0.000000000000E+00
  0.000000000000E+00  0.402534623939E+00  0.469886789982E+00  0.464193107367E+00  0.478749739491E+00  0.489555756507E+00  0.483130037990E+00
  0.488002902366E+00  0.489035017215E+00  0.000000000000E+00  0.465237698331E+00  0.473759127176E+00  0.495364848064E+00  0.490293257191E+00
  0.486276632093E+00  0.445850265191E+00  0.464356446519E+00  0.496127940578E+00  0.443891909404E+00  0.486928147025E+00  0.497248366859E+00
  0.496055083747E+00  0.467740399690E+00  0.488187228171E+00  0.495089980244E+00
  0.999990300362E+00  0.102982970104E+01  0.999990762612E+00  0.104241436388E+01  0.101187663318E+01  0.102516400612E+01  0.999991420552E+00
  0.999992171067E+00  0.103882325429E+01  0.100825795511E+01  0.101253536096E+01  0.100301645575E+01  0.102705594255E+01  0.100604114309E+01
  0.100244532432E+01  0.100354817652E+01  0.999992724186E+00  0.103209991946E+01  0.100459425771E+01  0.100178625606E+01  0.100260326526E+01
  0.100234745937E+01  0.101657167924E+01  0.100620610961E+01  0.100168369530E+01  0.104025009063E+01  0.100303477791E+01  0.100118721261E+01
  0.100134451878E+01  0.100976460100E+01  0.100405634212E+01  0.100176433139E+01
 -0.152673195415E+00 -0.767406065808E+00 -0.174813147647E+00 -0.123323054059E+01 -0.867804451904E-01 -0.146928280963E+01 -0.128195762983E+00
 -0.426972518501E-01 -0.145842346845E+01  0.412767663169E-01 -0.975313860636E-01  0.175605100682E+00 -0.823288514124E-01  0.974806031233E-01
  0.233609714059E+00  0.232943133934E+00 -0.772238747245E-01 -0.965076610378E+00  0.129059750545E+00  0.850501517780E+00  0.303755634203E+00
  0.203282842154E+00 -0.466867640807E-01  0.111047164355E+00  0.880602145588E+00 -0.622487358524E+00  0.158435138936E+00  0.970638681182E+00
  0.856698258940E+00  0.903291090877E-01  0.174444009572E+00  0.805079391019E+00
 -0.598461611662E-02 -0.111257084191E+00 -0.829439352648E-02 -0.157589156696E+00 -0.412874892422E-02 -0.222281392996E+00 -0.904761912144E-02
 -0.804611198445E-02 -0.217241385714E+00  0.195820891156E-01 -0.867923359403E-02  0.370602885639E-01  0.244637460452E-02  0.285951024632E-01
  0.458084442734E-01  0.512700619140E-01 -0.711456994489E-02 -0.150466152574E+00  0.258715695124E-01  0.174638545544E+00  0.602400190897E-01
  0.389285135648E-01  0.519769940246E-02  0.213109457520E-01  0.184356065774E+00 -0.766753608411E-01  0.312359980840E-01  0.203894676651E+00
  0.179226637239E+00  0.226380340097E-01  0.371604786236E-01  0.167457818724E+00
 -0.101525161332E-01 -0.321167487450E-02 -0.136821708201E-01 -0.312823597195E-01 -0.368835936405E-02 -0.151823249616E-01 -0.116981248878E-01
  0.437392471557E-02  0.836072260857E-03  0.333224829313E-03 -0.321148646953E-02 -0.333745903905E-02  0.351975002376E-02 -0.629382774630E-03
  0.124107785863E-02  0.722362000771E-04  0.613217988654E-02  0.198731783131E-01 -0.383934178067E-03 -0.828500883382E-04  0.798532280080E-03
  0.950165246309E-03  0.413692729022E-03  0.342978163680E-02 -0.224300613157E-02  0.256541993063E-02  0.196429046728E-02  0.437251360096E-03
  0.189757360476E-02  0.550287744189E-03  0.200570830620E-03 -0.163895231778E-03
  0.368772715649E-01  0.335928405635E-01  0.402197127773E-01  0.183213886351E-03 -0.355597461032E-01 -0.383920984619E-01  0.225262948245E-01
  0.196856980999E-01 -0.272140842456E-01 -0.388448721725E-01 -0.724928731689E-01 -0.399167410406E-01 -0.800217945142E-01 -0.371060405911E-01
 -0.274199615139E-01 -0.322301370678E-01  0.152558945545E-01 -0.229471887675E-01 -0.458930199628E-01 -0.115499345276E-01 -0.254633606858E-01
 -0.303387888294E-01 -0.545348336520E-01 -0.372309058466E-01 -0.110879460348E-01 -0.281613204903E-01 -0.278249023609E-01 -0.104956683662E-01
 -0.125433341792E-01 -0.422015435873E-01 -0.285047091708E-01 -0.123067022612E-01
  0.121946275526E+00  0.316066960894E+00  0.166590806911E+00  0.493572321072E+00  0.360878449995E-01  0.609895444186E+00 -0.814480112909E-02
 -0.260956029618E-01  0.606079266709E+00 -0.166040783149E-01  0.426444586602E-01 -0.686533741749E-01  0.355121881013E-01 -0.384116618847E-01
 -0.933000359345E-01 -0.939482419645E-01  0.254325028232E-01  0.403465603552E+00 -0.478248895420E-01 -0.353071575152E+00 -0.122679441965E+00
 -0.803951529265E-01  0.224628796494E-01 -0.397794882806E-01 -0.366227160003E+00  0.253770994953E+00 -0.617866097125E-01 -0.404853902944E+00
 -0.356505126806E+00 -0.328489676274E-01 -0.693098931175E-01 -0.334151009672E+00
        12        19        11        11
        11         5        12        12
        10        14         5         5
        19        13        11        11
        19        24        13        13
        30        23        24        24
        19        12        22        22
        28        22        21        21
        11        13         6         6
         7         6         9         9
        15        12        14        14
        18        13        23        23
        15        25        21        21
        27        19        22        22
        18         8         9         9
        27        31        24        24
         4        11         6         6
         5        14        12        12
         4         2         5         5
        21        12        15        15
        14        16        15        15
        24        19        27        27
        22        29        27        27
        23        26        18        18
        17         8        18        18
         5        11         4         4
         6         3         4         4
        26        23        30        30
         5         2        10        10
        16        14        10        10
         3         6         7         7
        21        25        28        28
        29        22        28        28
         6        13         9         9
         2         4         1         1
        31        27        32        32
        25        15        20        20
        24        23        13        13
         8         7         9         9
        13        18         9         9
        31        30        24        24
        12        21        22        22
        29        32        27        27
         3         1         4         4
        26        17        18        18
        16        20        15        15
zone t="boundary 2 bc-2", solutiontime= 0.3000000E+02, strandid=1002, i=33, j=48, f=feblock
  0.500195253374E+01  0.375034811161E+01  0.249861146299E+01  0.288036674177E+01  0.124717526933E+01  0.190856698521E+01  0.326577190273E+01
  0.201394856120E+01 -0.338395986572E-02  0.962374249381E+00  0.500000000000E+01  0.403430190008E+01  0.423029563807E+01  0.500000000000E+01
  0.385439188940E+01  0.500000000000E+01  0.398133433176E+01  0.315200081417E+01  0.266958028869E+01  0.154798029824E+01  0.218327860466E+01
  0.893688440338E+00  0.000000000000E+00  0.699009761768E+00  0.964460899052E+00  0.310303671659E+01  0.000000000000E+00  0.000000000000E+00
  0.125000000000E+01  0.500000000000E+01  0.375000000000E+01  0.250000000000E+01  0.000000000000E+00
 -0.249658903664E+01 -0.249658903664E+01 -0.249658903664E+01 -0.249658903664E+01 -0.249658903664E+01 -0.249658903664E+01 -0.249658903664E+01
 -0.249658903664E+01 -0.249658903664E+01 -0.249658903664E+01 -0.249658903664E+01 -0.249658903664E+01 -0.249658903664E+01 -0.249658903664E+01
 -0.249658903664E+01 -0.249658903664E+01 -0.249658903664E+01 -0.249658903664E+01 -0.249658903664E+01 -0.249658903664E+01 -0.249658903664E+01
 -0.249658903664E+01 -0.249658903664E+01 -0.249658903664E+01 -0.249658903664E+01 -0.249658903664E+01 -0.249658903664E+01 -0.249658903664E+01
 -0.249658903664E+01 -0.249658903664E+01 -0.249658903664E+01 -0.249658903664E+01 -0.249658903664E+01
  0.108225889030E-03  0.145875369682E-03  0.100893326425E-03  0.901663374396E+00  0.110858761917E-03  0.714928318829E+00  0.188140648011E+01
  0.175892165504E+01  0.810725962649E-04  0.957504300331E+00  0.125000000000E+01  0.100596698996E+01  0.191313519089E+01  0.250000000000E+01
  0.292898096716E+01  0.375000000000E+01  0.406883369524E+01  0.363389289944E+01  0.284756860985E+01  0.292582308120E+01  0.395754054931E+01
  0.205027256979E+01  0.125000000000E+01  0.306703272692E+01  0.397155766662E+01  0.433068622168E+01  0.250000000000E+01  0.375000000000E+01
  0.500000000000E+01  0.500000000000E+01  0.500000000000E+01  0.500000000000E+01  0.500000000000E+01
  0.000000000000E+00  0.000000000000E+00  0.000000000000E+00  0.380534933893E+00  0.000000000000E+00  0.343213081171E+00  0.585244496925E+00
  0.579499344205E+00  0.000000000000E+00  0.500959578913E+00  0.508769460148E+00  0.434312419771E+00  0.572817919451E+00  0.537160208080E+00
  0.569105645782E+00  0.515014970171E+00  0.508256765061E+00  0.527354036988E+00  0.567656182489E+00  0.531857069084E+00  0.506013391179E+00
  0.521044573739E+00  0.443891909404E+00  0.490703078146E+00  0.492147926412E+00  0.501388000320E+00  0.467740399690E+00  0.488187228171E+00
  0.489959820989E+00  0.491323935798E+00  0.486019442841E+00  0.489980976742E+00  0.495089980244E+00
  0.999993488485E+00  0.999993690942E+00  0.999993544242E+00  0.989596674085E+00  0.999993139053E+00  0.985604091028E+00  0.989839488847E+00
  0.991730617690E+00  0.999992724186E+00  0.984220387528E+00  0.985139981863E+00  0.984817712566E+00  0.990066477090E+00  0.100292374828E+01
  0.999857731400E+00  0.100487268684E+01  0.100122724769E+01  0.100056983810E+01  0.997888256964E+00  0.100350942201E+01  0.100059365414E+01
  0.101090707434E+01  0.104025009063E+01  0.100327959733E+01  0.100254952730E+01  0.100046804572E+01  0.100976460100E+01  0.100405634212E+01
  0.100192626091E+01  0.100045827286E+01  0.100058947226E+01  0.100110091494E+01  0.100176433139E+01
  0.631385995038E-01  0.495103319982E-01  0.304016470761E-01 -0.597683134567E+00 -0.604506460405E-01 -0.195989634386E+01  0.128437361683E+00
 -0.236453781318E-01 -0.772238747245E-01 -0.911091253586E+00  0.165047415139E+00  0.190778394088E+00  0.129554242741E+00  0.110743190139E+00
  0.814369124608E-01  0.743234162277E-01  0.547229234905E-01  0.633366244298E-01  0.104801999728E+00  0.125404194236E+00  0.824233950796E-01
 -0.328132836343E-01 -0.622487358524E+00  0.847654143160E-01  0.152393671844E+00  0.992213211701E-01  0.903291090877E-01  0.174444009572E+00
  0.724204504849E+00  0.865078679029E-01  0.331120775933E+00  0.636270975517E+00  0.805079391019E+00
 -0.172159206642E-01  0.481281590282E-02 -0.465138480249E-03 -0.102712406060E+00  0.111974651949E-01 -0.243516875175E+00  0.480723061114E-03
  0.969598009359E-02 -0.711456994489E-02 -0.107538681673E+00 -0.373664836434E-01 -0.129299853305E-02 -0.189831030548E-01 -0.283142279543E-01
 -0.188499386274E-01 -0.174273498655E-01 -0.208754473551E-01 -0.173962949080E-01 -0.641090247791E-02  0.105982300762E-01 -0.746680884209E-02
  0.902266598762E-02 -0.766753608411E-01  0.575503054659E-02  0.175521012701E-01 -0.103042781545E-01  0.226380340097E-01  0.371604786236E-01
  0.130272076770E+00 -0.436144043113E-02  0.332665755952E-01  0.989092875091E-01  0.167457818724E+00
  0.388951001416E-02 -0.102840996485E-02 -0.604753886777E-02 -0.139612597491E-01 -0.321143495622E-02 -0.243506327028E-01  0.190364358705E-02
 -0.216874015060E-03  0.613217988654E-02 -0.933606165604E-02  0.221306251201E-02  0.712677774700E-02 -0.132527534002E-03 -0.209109071268E-03
 -0.172020851072E-03  0.334162741831E-03 -0.405807275913E-04  0.178145954981E-03 -0.289779421953E-03 -0.691449915800E-03  0.423317266086E-03
 -0.723950269487E-03  0.256541993063E-02 -0.136366131375E-03  0.667749696926E-04  0.148152716245E-03  0.550287744189E-03  0.200570830620E-03
  0.654922907828E-04  0.595536953821E-04 -0.129760447953E-04 -0.433835238081E-04 -0.163895231778E-03
  0.496704714368E-02  0.512734900415E-02  0.774946201076E-02 -0.258807937187E-01  0.179333217992E-01 -0.561606900742E-02 -0.390442907201E-01
 -0.522298335907E-01  0.152558945545E-01 -0.245454649969E-01 -0.747451486994E-02 -0.273225879815E-01 -0.156870515631E-01 -0.709092988438E-02
 -0.161911381478E-01 -0.592731913809E-02 -0.157438798209E-01 -0.222375328217E-01 -0.263831426296E-01 -0.274222466060E-01 -0.256740959861E-01
 -0.415164917115E-01 -0.281613204903E-01 -0.291768176616E-01 -0.257133007219E-01 -0.221951355644E-01 -0.422015435873E-01 -0.285047091708E-01
 -0.173009712286E-01 -0.922305562305E-02 -0.200633400524E-01 -0.217609694380E-01 -0.123067022612E-01
 -0.179773935935E-01 -0.495108771504E-01 -0.858260889181E-01  0.272395296965E+00 -0.102373651274E+00  0.839445832530E+00 -0.381306164381E-01
  0.121480039205E-01  0.254325028232E-01  0.377521757628E+00 -0.356746693598E-01 -0.579219734068E-01 -0.318256792281E-01 -0.212337384688E-01
 -0.159124623898E-01 -0.150287712770E-01 -0.752156364249E-02 -0.115303193199E-01 -0.287418393357E-01 -0.426251149807E-01 -0.220334386547E-01
  0.149672728469E-01  0.253770994953E+00 -0.273246974002E-01 -0.555998128706E-01 -0.270712079792E-01 -0.328489676274E-01 -0.693098931175E-01
 -0.294246870047E+00 -0.261447553208E-01 -0.124254019577E+00 -0.252985666426E+00 -0.334151009672E+00
        15         7        19        19
         8        20        19        19
        18        19        21        21
         7         4         8         8
         3         6         4         4
        19         7         8         8
        19        18        15        15
        14        13        15        15
         8        22        20        20
        27        24        22        22
        19        20        21        21
        32        26        21        21
        17        18        26        26
        17        16        15        15
        25        29        21        21
        12         7        13        13
        10         8         6         6
        25        20        24        24
         4         6         8         8
        12         2         4         4
        10        23        22        22
        26        31        17        17
        30        16        17        17
         4         7        12        12
        13        11        12        12
        21        20        25        25
        24        28        25        25
        22         8        10        10
         6         5        10        10
        31        26        32        32
         4         2         3         3
         5         6         3         3
        11        13        14        14
        22        23        27        27
        28        24        27        27
        15        13         7         7
         2        12         1         1
        29        25        33        33
        23        10         9         9
        21        26        18        18
        16        14        15        15
        18        17        15        15
        29        32        21        21
        22        24        20        20
        28        33        25        25
        11         1        12        12
        31        30        17        17
         5         9        10        10
zone t="boundary 3 bc-3", solutiontime= 0.3000000E+02, strandid=1003, i=33, j=48, f=feblock
  0.375059096892E+01  0.249769609313E+01  0.500322133174E+01  0.403612218725E+01  0.287976772365E+01  0.124541910518E+01  0.190552237404E+01
  0.500000000000E+01  0.326671104552E+01  0.423253755448E+01  0.201271136506E+01 -0.547468544169E-02  0.958895643487E+00  0.500000000000E+01
  0.266968147299E+01  0.385584487271E+01  0.890374214836E+00  0.154654013699E+01  0.000000000000E+00  0.500000000000E+01  0.315261136744E+01
  0.218304199515E+01  0.398195307895E+01  0.000000000000E+00  0.697379952124E+00  0.963757277315E+00  0.125000000000E+01  0.000000000000E+00
  0.500000000000E+01  0.310330738524E+01  0.250000000000E+01  0.375000000000E+01  0.000000000000E+00
  0.250494197117E+01  0.250494197117E+01  0.250494197117E+01  0.250494197117E+01  0.250494197117E+01  0.250494197117E+01  0.250494197117E+01
  0.250494197117E+01  0.250494197117E+01  0.250494197117E+01  0.250494197117E+01  0.250494197117E+01  0.250494197117E+01  0.250494197117E+01
  0.250494197117E+01  0.250494197117E+01  0.250494197117E+01  0.250494197117E+01  0.250494197117E+01  0.250494197117E+01  0.250494197117E+01
  0.250494197117E+01  0.250494197117E+01  0.250494197117E+01  0.250494197117E+01  0.250494197117E+01  0.250494197117E+01  0.250494197117E+01
  0.250494197117E+01  0.250494197117E+01  0.250494197117E+01  0.250494197117E+01  0.250494197117E+01
  0.135649900494E-03  0.110129816467E-03  0.966887303890E-04  0.101756752009E+01  0.908094589218E+00  0.103942505801E-03  0.722629083213E+00
  0.125000000000E+01  0.188965661746E+01  0.191862696980E+01  0.176708239098E+01  0.803813859867E-04  0.969652551954E+00  0.250000000000E+01
  0.285339433501E+01  0.293325058812E+01  0.205656223819E+01  0.293157016932E+01  0.125000000000E+01  0.375000000000E+01  0.363766838842E+01
  0.396069444983E+01  0.407056385475E+01  0.250000000000E+01  0.307031995245E+01  0.397359820314E+01  0.500000000000E+01  0.375000000000E+01
  0.500000000000E+01  0.433260781310E+01  0.500000000000E+01  0.500000000000E+01  0.500000000000E+01
  0.000000000000E+00  0.000000000000E+00  0.000000000000E+00  0.444961626928E+00  0.402838316190E+00  0.000000000000E+00  0.379029001549E+00
  0.508827846411E+00  0.575719767468E+00  0.573484231916E+00  0.562571091033E+00  0.000000000000E+00  0.491643474339E+00  0.534340493553E+00
  0.556353506125E+00  0.564141623675E+00  0.522489639030E+00  0.521815314100E+00  0.440672136512E+00  0.517132480923E+00  0.524064820256E+00
  0.503612613683E+00  0.509416634110E+00  0.469886789982E+00  0.495646532245E+00  0.494503101969E+00  0.488630053423E+00  0.489035017215E+00
  0.492985464012E+00  0.498953669977E+00  0.486505314975E+00  0.484610387305E+00  0.495364848064E+00
  0.999989345567E+00  0.999989414891E+00  0.999989632591E+00  0.981375695393E+00  0.988672653297E+00  0.999989832933E+00  0.982271891095E+00
  0.984075644303E+00  0.990406052732E+00  0.990320090376E+00  0.994390331428E+00  0.999990300362E+00  0.988743428079E+00  0.100365390733E+01
  0.999774597300E+00  0.100117529834E+01  0.100830077599E+01  0.100251293722E+01  0.102982970104E+01  0.100442054131E+01  0.100199281310E+01
  0.100081994749E+01  0.100137956774E+01  0.100825795511E+01  0.100297377722E+01  0.100191712118E+01  0.100214790177E+01  0.100354817652E+01
  0.100047567419E+01  0.100056574043E+01  0.100126719373E+01  0.100066769089E+01  0.100178625606E+01
  0.427139174544E-01 -0.330705364184E-01  0.706454055402E-01 -0.390754492930E+00 -0.152859914466E+01 -0.961517560805E-01 -0.152105740892E+01
  0.241993000719E+00  0.123205751638E+00  0.152478310052E+00 -0.252756376983E+00 -0.152673195415E+00 -0.103005717403E+01  0.115818914231E+00
  0.133951368785E+00  0.951789546844E-01 -0.295237209179E-01  0.129457892292E+00 -0.767406065808E+00  0.788778634520E-01  0.576443421931E-01
  0.789096181002E-01  0.601507288383E-01  0.412767663169E-01  0.112860621692E+00  0.208603066371E+00  0.641295162491E+00  0.232943133934E+00
  0.747618308326E-01  0.919511420366E-01  0.599546043837E+00  0.325302822634E+00  0.850501517780E+00
  0.989985528400E-02  0.960385981542E-02 -0.175872325135E-01 -0.110648348190E+00 -0.211160292731E+00  0.200056937687E-01 -0.188188480590E+00
 -0.396765439196E-01  0.211665077132E-02 -0.209049974643E-01 -0.459624936140E-02 -0.598461611662E-02 -0.775758764121E-01 -0.303048166564E-01
  0.191355690258E-02 -0.158255594495E-01  0.287075419091E-01  0.135968742101E-01 -0.111257084191E+00 -0.193375840387E-01 -0.167198952380E-01
 -0.906513736276E-02 -0.195277780654E-01  0.195820891156E-01  0.264732197935E-01  0.262244510446E-01  0.113756976341E+00  0.512700619140E-01
 -0.679773436113E-02 -0.107624053540E-01  0.929807400825E-01  0.323285075501E-01  0.174638545544E+00
  0.186962200380E-02 -0.994220765043E-03 -0.239299897362E-02  0.741709585339E-02  0.214768073560E-01 -0.839062182101E-02  0.318260510645E-03
 -0.477279333383E-04  0.239810960888E-02 -0.401579195090E-03  0.202191306767E-02 -0.101525161332E-01 -0.116467482739E-01 -0.881931919506E-03
  0.101265672933E-03 -0.121449674354E-03  0.397688877100E-02  0.149359862219E-02 -0.321167487450E-02 -0.493370332518E-03 -0.241794093777E-03
 -0.107171262681E-02 -0.192332757440E-04  0.333224829313E-03  0.904926856287E-03 -0.305223924597E-03 -0.429069706190E-03  0.722362000771E-04
 -0.173147310806E-03  0.621505212488E-05 -0.979877927897E-04  0.252665597344E-04 -0.828500883382E-04
  0.115725880484E-01  0.216685784811E-01  0.606159174037E-02 -0.163759951539E-01 -0.261206252418E-01  0.208853031974E-01 -0.828164603466E-02
 -0.936745498243E-02 -0.479329247918E-01 -0.232673848018E-01 -0.694749234481E-01  0.368772715649E-01 -0.228370346929E-01 -0.930173973614E-02
 -0.246917428116E-01 -0.206779148714E-01 -0.585402646966E-01 -0.262817362545E-01  0.335928405635E-01 -0.824800072228E-02 -0.237573376203E-01
 -0.245599886053E-01 -0.177687716321E-01 -0.388448721725E-01 -0.378418510242E-01 -0.253321847070E-01 -0.182154546426E-01 -0.322301370678E-01
 -0.877215644448E-02 -0.230872781173E-01 -0.220814488723E-01 -0.201362119191E-01 -0.115499345276E-01
 -0.176764627896E+00 -0.753779037936E-01 -0.332210451776E-01  0.203322323917E+00  0.661857542909E+00 -0.477504573527E-02  0.638806755378E+00
 -0.616431488739E-01 -0.382417575522E-01 -0.393798495285E-01  0.987320638676E-01  0.121946275526E+00  0.405847114400E+00 -0.217981723667E-01
 -0.423059533754E-01 -0.215743230934E-01  0.884296508002E-02 -0.448227372593E-01  0.316066960894E+00 -0.154799812474E-01 -0.953657379755E-02
 -0.203437448555E-01 -0.980741739688E-02 -0.166040783149E-01 -0.413324807556E-01 -0.784811912981E-01 -0.259270519367E+00 -0.939482419645E-01
 -0.211865242505E-01 -0.242929657082E-01 -0.237903845275E+00 -0.121780860420E+00 -0.353071575152E+00
        15         9        16        16
        15        18        11        11
        22        15        21        21
        11         5         9         9
         5         7         2         2
        11         9        15        15
        16        21        15        15
        16        10        14        14
        18        17        11        11
        17        25        24        24
        22        18        15        15
        22        30        31        31
        30        21        23        23
        16        20        23        23
        22        27        26        26
        10         9         4         4
         7        11        13        13
        25        18        26        26
        11         7         5         5
         5         1         4         4
        17        19        13        13
        23        32        30        30
        23        20        29        29
         4         9         5         5
         4         8        10        10
        26        18        22        22
        26        28        25        25
        13        11        17        17
        13         6         7         7
        31        30        32        32
         2         1         5         5
         2         7         6         6
        14        10         8         8
        24        19        17        17
        24        25        28        28
         9        10        16        16
         3         4         1         1
        33        26        27        27
        12        13        19        19
        21        30        22        22
        16        14        20        20
        16        23        21        21
        22        31        27        27
        18        25        17        17
        26        33        28        28
         4         3         8         8
        23        29        32        32
        13        12         6         6
zone t="boundary 4 bc-4", solutiontime= 0.3000000E+02, strandid=1004, i=32, j=46, f=feblock
  0.125000000000E+01  0.219251206392E+01  0.103724302461E+01  0.500000000000E+01  0.250000000000E+01  0.375000000000E+01  0.404200324774E+01
  0.500000000000E+01  0.000000000000E+00  0.310152362409E+01  0.202479342020E+01  0.324151231464E+01  0.922061490191E+00  0.000000000000E+00
  0.299062775774E+01  0.394624082883E+01  0.500000000000E+01  0.409252726285E+01  0.500000000000E+01  0.429310310915E+01  0.175434191980E+01
  0.284428995242E+01  0.000000000000E+00  0.000000000000E+00  0.715990576545E+00  0.930412228790E+00  0.125000000000E+01  0.187029682677E+01
  0.500000000000E+01  0.375000000000E+01  0.250000000000E+01  0.000000000000E+00
  0.250494197117E+01  0.157686156160E+01  0.146289271009E+01  0.250494197117E+01  0.250494197117E+01  0.250494197117E+01  0.155830813274E+01
  0.125000000000E+01  0.250494197117E+01  0.177790177481E+01  0.477386199275E+00  0.742988685424E+00  0.308372018325E+00  0.125000000000E+01
 -0.487811078581E+00 -0.144524380962E+01 -0.125000000000E+01 -0.345533899378E+00  0.000000000000E+00  0.627766083140E+00 -0.739814786992E+00
 -0.158811787973E+01  0.000000000000E+00 -0.125000000000E+01 -0.600232012419E+00 -0.154800130438E+01 -0.249658903664E+01 -0.178862290564E+01
 -0.249658903664E+01 -0.249658903664E+01 -0.249658903664E+01 -0.249658903664E+01
  0.500000000000E+01  0.500000000000E+01  0.500000000000E+01  0.500000000000E+01  0.500000000000E+01  0.500000000000E+01  0.500000000000E+01
  0.500000000000E+01  0.500000000000E+01  0.500000000000E+01  0.500000000000E+01  0.500000000000E+01  0.500000000000E+01  0.500000000000E+01
  0.500000000000E+01  0.500000000000E+01  0.500000000000E+01  0.500000000000E+01  0.500000000000E+01  0.500000000000E+01  0.500000000000E+01
  0.500000000000E+01  0.500000000000E+01  0.500000000000E+01  0.500000000000E+01  0.500000000000E+01  0.500000000000E+01  0.500000000000E+01
  0.500000000000E+01  0.500000000000E+01  0.500000000000E+01  0.500000000000E+01
  0.488630053423E+00  0.488907200673E+00  0.490613524454E+00  0.492985464012E+00  0.486505314975E+00  0.484610387305E+00  0.485346346417E+00
  0.494164094826E+00  0.495364848064E+00  0.486544301825E+00  0.487826539497E+00  0.487053944491E+00  0.494057895498E+00  0.496127940578E+00
  0.487590739712E+00  0.483169495133E+00  0.492384717662E+00  0.487198320547E+00  0.494738341209E+00  0.487947262281E+00  0.489650836219E+00
  0.487975047811E+00  0.497248366859E+00  0.496055083747E+00  0.494947818077E+00  0.492777844524E+00  0.489959820989E+00  0.489963118744E+00
  0.491323935798E+00  0.486019442841E+00  0.489980976742E+00  0.495089980244E+00
  0.100214790177E+01  0.100152376261E+01  0.100177920363E+01  0.100047567419E+01  0.100126719373E+01  0.100066769089E+01  0.100025509248E+01
  0.100050308878E+01  0.100178625606E+01  0.100112381228E+01  0.100132857256E+01  0.100072299640E+01  0.100164084009E+01  0.100168369530E+01
  0.100096380429E+01  0.100001109262E+01  0.100083219162E+01  0.100022379580E+01  0.100062130449E+01  0.100023379273E+01  0.100174737467E+01
  0.100099023681E+01  0.100118721261E+01  0.100134451878E+01  0.100132726122E+01  0.100179980273E+01  0.100192626091E+01  0.100163810987E+01
  0.100045827286E+01  0.100058947226E+01  0.100110091494E+01  0.100176433139E+01
  0.641295162491E+00  0.622086800511E+00  0.638932101201E+00  0.747618308326E-01  0.599546043837E+00  0.325302822634E+00  0.226124164851E+00
  0.744100707820E-01  0.850501517780E+00  0.498615097753E+00  0.668720682262E+00  0.468606334287E+00  0.778983402259E+00  0.880602145588E+00
  0.528141499320E+00  0.217763918427E+00  0.842956435514E-01  0.277298789634E+00  0.691092710454E-01  0.277003378779E+00  0.822955424417E+00
  0.497044659484E+00  0.970638681182E+00  0.856698258940E+00  0.902524228016E+00  0.723662388623E+00  0.724204504849E+00  0.765811261182E+00
  0.865078679029E-01  0.331120775933E+00  0.636270975517E+00  0.805079391019E+00