# vtk DataFile Version 2.0
FUN3D:global_image_vtk
ASCII
DATASET UNSTRUCTURED_GRID
POINTS 213 double
   -0.5474685441687843E-02    0.2504941971167291E+01    0.8038138598670545E-04
    0.1245419105183472E+01    0.2504941971167291E+01    0.1039425058013134E-03
    0.2497696093128780E+01    0.2504941971167291E+01    0.1101298164665756E-03
    0.3750590968915824E+01    0.2504941971167291E+01    0.1356499004944170E-03
    0.5003221331742151E+01    0.2504941971167291E+01    0.9668873038898313E-04
    0.5004676687979097E+01    0.1281291202167040E+01    0.1638053019384359E-03
    0.5004772673778115E+01    0.2775079906482900E-01    0.1903478008447593E-03
    0.5003581183341212E+01   -0.1225853508883529E+01    0.1607765204486580E-03
    0.5001952533742191E+01   -0.2496589036641631E+01    0.1082258890302559E-03
    0.3750348111606544E+01   -0.2496589036641631E+01    0.1458753696815809E-03
    0.2498611462994928E+01   -0.2496589036641631E+01    0.1008933264248226E-03
    0.1247175269333276E+01   -0.2496589036641631E+01    0.1108587619169656E-03
   -0.3383959865719272E-02   -0.2496589036641631E+01    0.8107259626494183E-04
   -0.4257768979765605E-02   -0.1225734811642590E+01    0.3415458742295214E-04
   -0.5251592448509267E-02    0.2619486024420457E-01    0.1038724387187886E-03
   -0.5676060312426854E-02    0.1278221569065707E+01    0.8224601702150351E-04
    0.9003209617952581E+00    0.1608979112280158E+01    0.8704140727677796E-04
    0.3983172210692289E+01   -0.1561211904840279E+01    0.1757116720370604E-03
    0.4035602039224469E+01    0.1486760030415520E+01    0.1713312862106634E-03
    0.1036613723302902E+01   -0.1455626429916848E+01    0.1047189301532916E-03
    0.1094353480630802E+01   -0.2964622010671852E+00    0.1260590236917272E-03
    0.7298400267480001E+00    0.6874684746719117E+00    0.1044598640544960E-03
    0.1617018659308944E+01    0.8553208024939370E+00    0.1529810904974397E-03
    0.2143199662875790E+01   -0.1627128509216730E+01    0.1606170425226819E-03
    0.4088840445400889E+01   -0.4351047825936263E+00    0.2719933294109139E-03
    0.2977916511248925E+01   -0.8334991483094500E+00    0.2245596931861331E-03
    0.3044093241383418E+01   -0.1814361225108581E+01    0.1617000112420500E-03
    0.3427866614805211E+01    0.3813904839972497E+00    0.2936955483430765E-03
    0.4313225355351749E+01    0.5489133376342497E+00    0.2313009573592377E-03
    0.1823032737597358E+01    0.1771265193544254E+01    0.1836202887151587E-03
    0.2806311152168375E+01    0.1358629373600680E+01    0.1943492163983821E-03
    0.1891860875936711E+01   -0.8481310365607546E+00    0.1670645501816174E-03
    0.2268769200166909E+01    0.7723691819196571E-01    0.2072307783085319E-03
    0.5000000000000000E+01    0.2504941971167291E+01    0.1250000000000000E+01
    0.5000000000000000E+01    0.2504941971167291E+01    0.2500000000000000E+01
    0.5000000000000000E+01    0.2504941971167291E+01    0.3750000000000000E+01
    0.5000000000000000E+01    0.2504941971167291E+01    0.5000000000000000E+01
    0.3750000000000000E+01    0.2504941971167291E+01    0.5000000000000000E+01
    0.2500000000000000E+01    0.2504941971167291E+01    0.5000000000000000E+01
    0.1250000000000000E+01    0.2504941971167291E+01    0.5000000000000000E+01
    0.0000000000000000E+00    0.2504941971167291E+01    0.5000000000000000E+01
    0.0000000000000000E+00    0.2504941971167291E+01    0.3750000000000000E+01
    0.0000000000000000E+00    0.2504941971167291E+01    0.2500000000000000E+01
    0.0000000000000000E+00    0.2504941971167291E+01    0.1250000000000000E+01
    0.9588956434871090E+00    0.2504941971167291E+01    0.9696525519543870E+00
    0.3981953078951401E+01    0.2504941971167291E+01    0.4070563854751270E+01
    0.4036122187252336E+01    0.2504941971167291E+01    0.1017567520094671E+01
    0.9637572773153887E+00    0.2504941971167291E+01    0.3973598203142228E+01
    0.1546540136992395E+01    0.2504941971167291E+01    0.2931570169315600E+01
    0.6973799521244306E+00    0.2504941971167291E+01    0.3070319952453755E+01
    0.8903742148356872E+00    0.2504941971167291E+01    0.2056562238187737E+01
    0.2183041995146012E+01    0.2504941971167291E+01    0.3960694449828018E+01
    0.3855844872709869E+01    0.2504941971167291E+01    0.2933250588118629E+01
    0.3152611367438029E+01    0.2504941971167291E+01    0.3637668388416192E+01
    0.3103307385241870E+01    0.2504941971167291E+01    0.4332607813099730E+01
    0.3266711045517938E+01    0.2504941971167291E+01    0.1889656617463737E+01
    0.4232537554484795E+01    0.2504941971167291E+01    0.1918626969802350E+01
    0.1905522374036519E+01    0.2504941971167291E+01    0.7226290832134606E+00
    0.2879767723645805E+01    0.2504941971167291E+01    0.9080945892181977E+00
    0.2012711365064514E+01    0.2504941971167291E+01    0.1767082390977753E+01
    0.2669681472994636E+01    0.2504941971167291E+01    0.2853394335010790E+01
    0.5000000000000000E+01    0.1250000000000000E+01    0.5000000000000000E+01
    0.5000000000000000E+01    0.0000000000000000E+00    0.5000000000000000E+01
    0.5000000000000000E+01   -0.1250000000000000E+01    0.5000000000000000E+01
    0.5000000000000000E+01   -0.2496589036641631E+01    0.5000000000000000E+01
    0.5000000000000000E+01   -0.2496589036641631E+01    0.3750000000000000E+01
    0.5000000000000000E+01   -0.2496589036641631E+01    0.2500000000000000E+01
    0.5000000000000000E+01   -0.2496589036641631E+01    0.1250000000000000E+01
    0.5000000000000000E+01    0.1578994732800803E+01    0.9058375365086910E+00
    0.5000000000000000E+01   -0.1583989954232354E+01    0.3982050490726493E+01
    0.5000000000000000E+01    0.1453322699199022E+01    0.4033849428301197E+01
    0.5000000000000000E+01   -0.1479596339503735E+01    0.1040505887381675E+01
    0.5000000000000000E+01   -0.3227322616384110E+00    0.1099454400140349E+01
    0.5000000000000000E+01    0.6593508822075582E+00    0.7354504170366591E+00
    0.5000000000000000E+01    0.8256214013940779E+00    0.1622302608453282E+01
    0.5000000000000000E+01   -0.1650070333782557E+01    0.2145871574390382E+01
    0.5000000000000000E+01   -0.4612828702537229E+00    0.4086422318222992E+01
    0.5000000000000000E+01   -0.8579242121530853E+00    0.2979540174134984E+01
    0.5000000000000000E+01   -0.1836846154397680E+01    0.3045064261640043E+01
    0.5000000000000000E+01    0.3508002863614053E+00    0.3428197553792836E+01
    0.5000000000000000E+01    0.5185680230613409E+00    0.4309693860063405E+01
    0.5000000000000000E+01    0.1738996113203182E+01    0.1827272193562204E+01
    0.5000000000000000E+01    0.1325493893339706E+01    0.2808563282768077E+01
    0.5000000000000000E+01   -0.8731419609589618E+00    0.1895995683864404E+01
    0.5000000000000000E+01    0.4906150219227333E-01    0.2273179336307740E+01
    0.0000000000000000E+00    0.1250000000000000E+01    0.5000000000000000E+01
    0.0000000000000000E+00    0.0000000000000000E+00    0.5000000000000000E+01
    0.0000000000000000E+00   -0.1250000000000000E+01    0.5000000000000000E+01
    0.0000000000000000E+00   -0.2496589036641631E+01    0.5000000000000000E+01
    0.1250000000000000E+01   -0.2496589036641631E+01    0.5000000000000000E+01
    0.2500000000000000E+01   -0.2496589036641631E+01    0.5000000000000000E+01
    0.3750000000000000E+01   -0.2496589036641631E+01    0.5000000000000000E+01
    0.4042003247744892E+01    0.1558308132739014E+01    0.5000000000000000E+01
    0.9304122287900499E+00   -0.1548001304379777E+01    0.5000000000000000E+01
    0.1037243024609388E+01    0.1462892710085612E+01    0.5000000000000000E+01
    0.3946240828834967E+01   -0.1445243809615570E+01    0.5000000000000000E+01
    0.4092527262848217E+01   -0.3455338993778935E+00    0.5000000000000000E+01
    0.4293103109154542E+01    0.6277660831404320E+00    0.5000000000000000E+01
    0.3241512314643519E+01    0.7429886854239611E+00    0.5000000000000000E+01
    0.2844289952419609E+01   -0.1588117879734118E+01    0.5000000000000000E+01
    0.7159905765450471E+00   -0.6002320124191652E+00    0.5000000000000000E+01
    0.1754341919796891E+01   -0.7398147869923652E+00    0.5000000000000000E+01
    0.1870296826774691E+01   -0.1788622905643739E+01    0.5000000000000000E+01
    0.9220614901912976E+00    0.3083720183248586E+00    0.5000000000000000E+01
    0.3101523624086016E+01    0.1777901774806180E+01    0.5000000000000000E+01
    0.2192512063922564E+01    0.1576861561598471E+01    0.5000000000000000E+01
    0.2024793420196460E+01    0.4773861992750707E+00    0.5000000000000000E+01
    0.2990627757741975E+01   -0.4878110785814084E+00    0.5000000000000000E+01
    0.0000000000000000E+00   -0.2496589036641631E+01    0.1250000000000000E+01
    0.0000000000000000E+00   -0.2496589036641631E+01    0.2500000000000000E+01
    0.0000000000000000E+00   -0.2496589036641631E+01    0.3750000000000000E+01
    0.0000000000000000E+00    0.1558308132739014E+01    0.4042003247744892E+01
    0.0000000000000000E+00   -0.1548001304379777E+01    0.9304122287900499E+00
    0.0000000000000000E+00    0.1462892710085612E+01    0.1037243024609388E+01
    0.0000000000000000E+00   -0.1445243809615570E+01    0.3946240828834967E+01
    0.0000000000000000E+00   -0.3455338993778935E+00    0.4092527262848217E+01
    0.0000000000000000E+00    0.6277660831404320E+00    0.4293103109154542E+01
    0.0000000000000000E+00    0.7429886854239611E+00    0.3241512314643519E+01
    0.0000000000000000E+00   -0.1588117879734118E+01    0.2844289952419609E+01
    0.0000000000000000E+00   -0.6002320124191652E+00    0.7159905765450471E+00
    0.0000000000000000E+00   -0.7398147869923652E+00    0.1754341919796891E+01
    0.0000000000000000E+00   -0.1788622905643739E+01    0.1870296826774691E+01
    0.0000000000000000E+00    0.3083720183248586E+00    0.9220614901912976E+00
    0.0000000000000000E+00    0.1777901774806180E+01    0.3101523624086016E+01
    0.0000000000000000E+00    0.1576861561598471E+01    0.2192512063922564E+01
[...]
POINT_DATA 213
SCALARS p double 1
LOOKUP_TABLE default
   0.9615090270461889E+00
   0.6837133719730056E+00
   0.6757800352245791E+00
   0.6729809066589122E+00
   0.6025723803857450E+00
   0.5529964077715461E+00
   0.5448262876920041E+00
   0.5472458031527472E+00
   0.5936019706812325E+00
   0.6681106560870148E+00
   0.6674268615085385E+00
   0.6868452073072461E+00
   0.1034621192868642E+01
   0.1068150095134785E+01
   0.1176243428670172E+01
   0.1018996343389530E+01
   0.7212845351350456E+00
   0.6793852943305226E+00
   0.6741566409665810E+00
   0.6838869927926644E+00
   0.6724824126109191E+00
   0.7407920042686243E+00
   0.6612900262973208E+00
   0.6658881007016316E+00
   0.6812904896329017E+00
   0.6800263496102458E+00
   0.6679221965179155E+00
   0.6832461640361835E+00
   0.6699009217732929E+00
   0.6645159936657442E+00
   0.6747441315816378E+00
   0.6330203176627608E+00
   0.6731403010506355E+00
   0.6774107700026154E+00
   0.7228907437039384E+00
   0.7222597021427314E+00
   0.7160256047819444E+00
   0.7170629685783136E+00
   0.7181378238121868E+00
   0.7195479147661400E+00
   0.7186026151201601E+00
   0.7227466829824499E+00
   0.7373732103187324E+00
   0.7824880541051622E+00
   0.7199367094512866E+00
   0.7165435400128811E+00
   0.6761661180696568E+00
   0.7194216583800167E+00
   0.7166145636637207E+00
   0.7226390995287718E+00
   0.7259999477908362E+00
   0.7165546636138920E+00
   0.7137110303090644E+00
   0.7161345987928159E+00
   0.7158487109950781E+00
   0.6952726759187139E+00
   0.6963372788907353E+00
   0.6899963638880701E+00
   0.6913945997339329E+00
   0.7035168684562033E+00
   0.7094989619550168E+00
   0.7160808592936851E+00
   0.7162535295029778E+00
   0.7165050834299856E+00
   0.7158945100947919E+00
   0.7248110606850838E+00
   0.7210300445554240E+00
   0.6727696847463600E+00
   0.6453757690642368E+00
   0.7221259523099647E+00
   0.7196819208005137E+00
   0.6359304262508759E+00
   0.6309666866476049E+00
   0.5996041063119222E+00
   0.6915945307500249E+00
   0.7156066489148188E+00
   0.7212073087543015E+00
   0.7290382459353925E+00
   0.7269565327744708E+00
   0.7265130640623745E+00
   0.7204389504627871E+00
   0.7038443633849206E+00
   0.7205086244515474E+00
   0.7023921856295040E+00
   0.7220871189033830E+00
   0.7185220018676500E+00
   0.7171978020515858E+00
   0.7176427234778043E+00
   0.7184073563353477E+00
   0.7193234409034522E+00
   0.7173776055384525E+00
   0.7166144495505795E+00
   0.7163185779140486E+00
   0.7184836661359481E+00
   0.7186370006603183E+00
   0.7154672477676672E+00
   0.7160740451633971E+00
   0.7162725978847319E+00
   0.7172843919107067E+00
   0.7174103684410562E+00
   0.7175466641816793E+00
   0.7187042652335741E+00
   0.7185503416799758E+00
   0.7180715815601874E+00
   0.7177479884414159E+00
   0.7184641990630986E+00
   0.7184268983503610E+00
   0.7175694881993658E+00
   0.7909545884809420E+00
   0.7417772454775992E+00
   0.7240735121365669E+00
   0.7207773593130556E+00
   0.8581022297679395E+00
   0.8086350761924587E+00
   0.7221194122267187E+00
   0.7211551066761769E+00
   0.7210126470990795E+00
   0.7257924571603872E+00
   0.7326205690047752E+00
   0.9164972239123441E+00
   0.7574803385218039E+00
   0.7599365097419126E+00
   0.8799590534958881E+00
   0.7291434991366369E+00
   0.7461110836441297E+00
   0.7436509191718483E+00
   0.7280735771658277E+00
   0.7234035720786821E+00
   0.7165946600862497E+00
   0.6758544096661868E+00
   0.7210190880481572E+00
   0.7177435949002220E+00
   0.7243684915878166E+00
   0.7309127288730808E+00
   0.7153818920470921E+00
   0.7127069637016905E+00
   0.7133122195205787E+00
   0.7154718288137103E+00
   0.6958561565176945E+00
   0.6941123107772521E+00
   0.6792681254885899E+00
   0.6842858436019331E+00
   0.7022975214911104E+00
   0.7064276550258820E+00
   0.7092639167787061E+00
   0.7176250736162013E+00
   0.7173827341671103E+00
   0.7117399660339808E+00
   0.7287968913839021E+00
   0.7352756192792546E+00
   0.7097316727913138E+00
   0.7230298957884066E+00
   0.7189769496861728E+00
   0.7231309007020784E+00
   0.7128921578945943E+00
   0.6922549659868694E+00
   0.7175444897974502E+00
   0.7113550431662813E+00
   0.6973970278760592E+00
   0.7095833011349674E+00
   0.7134676295851866E+00
   0.7079227498993574E+00
   0.7159287310428731E+00
   0.7175553864453168E+00
   0.7167030177255577E+00
   0.7110825192098523E+00
   0.7103510270400825E+00
   0.7187134444478759E+00
   0.7362440671405505E+00
   0.7209851904120541E+00
   0.6967151938930985E+00
   0.7191760799932686E+00
   0.7279869911864058E+00
   0.6958387148727806E+00
   0.6741066095445463E+00
   0.7021104083599986E+00
   0.7007174984704780E+00
   0.6996471376384793E+00
   0.7043910123687326E+00
   0.6878262404083343E+00
   0.7541078215474842E+00
   0.7254179408273832E+00
   0.7163759580008178E+00
   0.7164924045905384E+00
   0.7072942082244336E+00
   0.7062530203784473E+00
   0.6799096517453614E+00
   0.7081442603666066E+00
   0.7212278436764816E+00
   0.7177576749401496E+00
   0.7069395199174531E+00
   0.6847925063582510E+00
   0.6587353577287404E+00
   0.6908614465278368E+00
   0.6956175770553278E+00
   0.6931679759189796E+00
   0.6874262965941246E+00
   0.6732335082619344E+00
   0.6670674277366050E+00
   0.6794797823673412E+00
   0.7172133908406971E+00
   0.7168144142328011E+00
   0.7154594994097833E+00
   0.7175335913095043E+00
   0.6790224983936629E+00
   0.6691939862981908E+00
   0.6792021820170702E+00
   0.7156331665005868E+00
   0.7153053764628278E+00
   0.7168587799687927E+00
   0.6951014853436938E+00
   0.6910741672166653E+00
   0.6839136771975020E+00
SCALARS mach double 1
LOOKUP_TABLE default
   0.0000000000000000E+00
   0.0000000000000000E+00
   0.0000000000000000E+00
   0.0000000000000000E+00
   0.0000000000000000E+00
   0.0000000000000000E+00
   0.0000000000000000E+00
   0.0000000000000000E+00
   0.0000000000000000E+00
   0.0000000000000000E+00
   0.0000000000000000E+00
   0.0000000000000000E+00
   0.0000000000000000E+00
   0.0000000000000000E+00
   0.0000000000000000E+00
   0.0000000000000000E+00
   0.0000000000000000E+00
   0.0000000000000000E+00
   0.0000000000000000E+00
   0.0000000000000000E+00
   0.0000000000000000E+00
   0.0000000000000000E+00
   0.0000000000000000E+00
   0.0000000000000000E+00
   0.0000000000000000E+00
   0.0000000000000000E+00
   0.0000000000000000E+00
   0.0000000000000000E+00
   0.0000000000000000E+00
   0.0000000000000000E+00
   0.0000000000000000E+00
   0.0000000000000000E+00
   0.0000000000000000E+00
   0.5088278464108542E+00
   0.5343404935530147E+00
   0.5171324809225150E+00
   0.4929854640118680E+00
   0.4846103873054259E+00
   0.4865053149750529E+00
   0.4886300534227875E+00
   0.4953648480644029E+00
   0.4890350172147708E+00
   0.4698867899823700E+00
   0.4406721365121295E+00
   0.4916434743393142E+00
   0.5094166341104852E+00
   0.4449616269282298E+00
   0.4945031019694918E+00
   0.5218153140999749E+00
   0.4956465322454047E+00
   0.5224896390298288E+00
   0.5036126136826856E+00
   0.5641416236745956E+00
   0.5240648202558044E+00
   0.4989536699772574E+00
   0.5757197674679773E+00
   0.5734842319160719E+00
   0.3790290015492672E+00
   0.4028383161899560E+00
   0.5625710910333596E+00
   0.5563535061252514E+00
   0.4941640948263690E+00
   0.4947383412086433E+00
   0.4923847176620778E+00
   0.4913239357977276E+00
   0.5150149701705319E+00
   0.5371602080804564E+00
   0.5087694601479652E+00
   0.4717140518477248E+00
   0.5119324676809519E+00
   0.5110126450077802E+00
   0.4958198681552397E+00
   0.5102768305790423E+00
   0.4804275397729896E+00
   0.5352195379474507E+00
   0.5339912395326832E+00
   0.5120155934121832E+00
   0.5312230768755269E+00
   0.5296265103056192E+00
   0.5292676032538021E+00
   0.5056207345718283E+00
   0.5355371812688726E+00
   0.5406810120999122E+00
   0.5432012090051606E+00
   0.5391817815786387E+00
   0.4961279405777367E+00
   0.4972483668592025E+00
   0.4960550837471198E+00
   0.4950899802440782E+00
   0.4899598209894888E+00
   0.4899809767415729E+00
   0.4860194428405463E+00
   0.4853463464171175E+00
   0.4927778445237841E+00
   0.4906135244542504E+00
   0.4831694951334708E+00
   0.4871983205465291E+00
   0.4879472622812388E+00
   0.4870539444913176E+00
   0.4879750478105397E+00
   0.4949478180771547E+00
   0.4896508362191714E+00
   0.4899631187436365E+00
   0.4940578954982542E+00
   0.4865443018254118E+00
   0.4889072006726343E+00
   0.4878265394971169E+00
   0.4875907397121093E+00
   0.4438919094038575E+00
   0.4677403996897035E+00
   0.4881872281711968E+00
   0.4880029023656236E+00
   0.4652376983306734E+00
   0.4746180258200344E+00
   0.4869281470254980E+00
   0.4862766320932216E+00
   0.4902932571905425E+00
   0.4787497394908663E+00
   0.4643564465190834E+00
   0.4025346239385105E+00
   0.4895557565065475E+00
   0.4458502651906280E+00
   0.4686393201432793E+00
   0.4831300379901461E+00
   0.4601250686009095E+00
   0.4641931073672906E+00
   0.4737591271764286E+00
   0.5009595789132782E+00
   0.5082567650613202E+00
   0.4343124197714694E+00
   0.4921479264117520E+00
   0.5318570690838053E+00
   0.4907030781455428E+00
   0.5210445737391822E+00
   0.5060133911794775E+00
   0.5691056457824827E+00
   0.5273540369883997E+00
   0.5013880003195474E+00
   0.5852444969247542E+00
   0.5728179194514647E+00
   0.3432130811713793E+00
   0.3805349338927156E+00
   0.5794993442053762E+00
   0.5676561824894328E+00
   0.5706562945968466E+00
   0.5289494757109328E+00
   0.5445336084153662E+00
   0.5732968236027055E+00
   0.5380254886501765E+00
   0.5543141514156811E+00
   0.5870710731753264E+00
   0.4918692562138945E+00
   0.5037853464957780E+00
   0.4954667735479114E+00
   0.5579111112015329E+00
   0.4897927034542544E+00
   0.4947289254917192E+00
   0.5495411673176133E+00
   0.5911005052454008E+00
   0.5842749236716061E+00
   0.5464465390886131E+00
   0.5813642346082304E+00
   0.5103733312540401E+00
   0.5025849584044032E+00
   0.5030165217164599E+00
   0.5674949101502215E+00
   0.5563848366145353E+00
   0.4944253866272803E+00
   0.5525179061180316E+00
   0.5531771336237475E+00
   0.5691413112554401E+00
   0.4915523593208705E+00
   0.4914338402902175E+00
   0.3895354644561083E+00
   0.3712062254161552E+00
   0.5592296484395947E+00
   0.5782801809642965E+00
   0.4228152295372909E+00
   0.5853095617089218E+00
   0.4396767593542992E+00
   0.5448891012157654E+00
   0.5173421589228978E+00
   0.5115522101765203E+00
   0.5045595787730451E+00
   0.5758760301231631E+00
   0.5886507965624623E+00
   0.5429648096014517E+00
   0.5689503868685284E+00
   0.5342437468240868E+00
   0.5330765011334707E+00
   0.5587864661079036E+00
   0.5561714398732824E+00
   0.4325507952903626E+00
   0.5315405364833072E+00
   0.5814004397232797E+00
   0.3318453238117219E+00
   0.4787091126554783E+00
   0.5494851328418097E+00
   0.4853296712582516E+00
   0.3009872732473318E+00
   0.5030315721440692E+00
   0.5014772282733305E+00
   0.5126263813764116E+00
   0.5406388648385164E+00
   0.3454450646321580E+00
   0.3423297261694005E+00
   0.3205015388762347E+00
   0.5064303475597783E+00
   0.5121494958194049E+00
   0.5322644503195143E+00
   0.5911324859058024E+00
   0.4690727830938121E+00
   0.3540211941340960E+00
SCALARS temperature double 1
LOOKUP_TABLE default
   0.9999903003623241E+00
   0.9999898329329607E+00
   0.9999894148910743E+00
   0.9999893455669318E+00
   0.9999896325913095E+00
   0.9999902849804327E+00
   0.9999914932303515E+00
   0.9999928226452274E+00
   0.9999934884845501E+00
   0.9999936909423944E+00
   0.9999935442419013E+00
   0.9999931390534121E+00
   0.9999927241863860E+00
   0.9999921710674028E+00
   0.9999914205523117E+00
   0.9999907626120439E+00
   0.9999903748724313E+00
   0.9999933964915853E+00
   0.9999896034316981E+00
   0.9999925208048329E+00
   0.9999916472132104E+00
   0.9999909215273296E+00
   0.9999905846190382E+00
   0.9999931543716691E+00
   0.9999921426075931E+00
   0.9999926904968586E+00
   0.9999934799338207E+00
   0.9999904928902464E+00
   0.9999906871046428E+00
   0.9999898021824374E+00
   0.9999896231600165E+00
   0.9999923196042685E+00
   0.9999912328824416E+00
   0.9840756443026990E+00
   0.1003653907329834E+01
   0.1004420541312633E+01
   0.1000475674185232E+01
   0.1000667690892861E+01
   0.1001267193734726E+01
   0.1002147901765707E+01
   0.1001786256064556E+01
   0.1003548176524078E+01
   0.1008257955105015E+01
   0.1029829701040573E+01
   0.9887434280793108E+00
   0.1001379567744703E+01
   0.9813756953934856E+00
   0.1001917121182474E+01
   0.1002512937220996E+01
   0.1002973777222053E+01
   0.1008300775988010E+01
   0.1000819947488452E+01
   0.1001175298343385E+01
   0.1001992813095939E+01
   0.1000565740434028E+01
   0.9904060527316071E+00
   0.9903200903763916E+00
   0.9822718910947318E+00
   0.9886726532967829E+00
   0.9943903314280560E+00
   0.9997745973000218E+00
   0.1000503088778073E+01
   0.1000621304491119E+01
   0.1000832191620140E+01
   0.1000458272859696E+01
   0.1004872686836796E+01
   0.1002923748279705E+01
   0.9851399818632205E+00
   0.9764686176662744E+00
   0.1003895145346077E+01
   0.1003049453882848E+01
   0.9735520320685742E+00
   0.9716280253757656E+00
   0.9590922597460163E+00
   0.9912248911266403E+00
   0.1001318242730935E+01
   0.1003841297271930E+01
   0.1007659479294186E+01
   0.1005992073401913E+01
   0.1006633209898691E+01
   0.1003140832411382E+01
   0.9944053172190415E+00
   0.1003541284188254E+01
   0.9972301192492246E+00
   0.1005299676597640E+01
   0.1001683695304701E+01
   0.1001187212607654E+01
   0.1001344518781705E+01
   0.1001764331394795E+01
   0.1001926260911126E+01
   0.1001100914944315E+01
   0.1000589472260262E+01
   0.1000255092476481E+01
   0.1001799802725715E+01
   0.1001779203630106E+01
   0.1000011092623650E+01
   0.1000223795796270E+01
   0.1000233792728405E+01
   0.1000722996400312E+01
   0.1000990236814154E+01
   0.1001327261216594E+01
   0.1001747374671040E+01
   0.1001638109865689E+01
   0.1001640840094727E+01
   0.1001123812280720E+01
   0.1001523762605337E+01
   0.1001328572563472E+01
   0.1000963804288595E+01
   0.1040250090629886E+01
   0.1009764600995965E+01
   0.1004056342118533E+01
   0.1002445324323701E+01
   0.1032099919456193E+01
   0.1042414363879340E+01
   0.1003034777911217E+01
   0.1002347459367477E+01
   0.1002603265257332E+01
   0.1003016455747424E+01
   0.1006206109607921E+01
   0.1038823254293928E+01
   0.1027055942547914E+01
   0.1016571679237747E+01
   0.1025164006119377E+01
   0.1006041143091452E+01
   0.1011876633183376E+01
   0.1012535360958752E+01
   0.1004594257710029E+01
   0.9842203875281352E+00
   0.1001227247690020E+01
   0.9848177125661816E+00
   0.1002549527299892E+01
   0.1003509422008664E+01
   0.1003279597331750E+01
   0.1010907074339136E+01
   0.1000593654142201E+01
   0.9998577313998487E+00
   0.1000569838101171E+01
   0.1000468045715516E+01
   0.9898394888474824E+00
   0.9900664770895186E+00
   0.9856040910278622E+00
   0.9895966740848089E+00
   0.9917306176902637E+00
   0.9978882569641403E+00
   0.1000412735867374E+01
   0.1002941508247871E+01
   0.1005014134740591E+01
   0.1002305046947216E+01
   0.1013241818180750E+01
   0.1006624423761834E+01
   0.9925110503682801E+00
   0.1003427480616938E+01
   0.1001784166103759E+01
   0.1003323801584913E+01
   0.1001333600558875E+01
   0.9637909372828022E+00
   0.1001232500932187E+01
   0.1000915135455805E+01
   0.9928852039698013E+00
   0.9989586806695209E+00
   0.1001510463745792E+01
   0.9978252480881540E+00
   0.1000986320558472E+01
   0.1001571375893337E+01
   0.1001192440873004E+01
   0.1000807847210488E+01
   0.1000711890438086E+01
   0.1001330284857578E+01
   0.1010429101715493E+01
   0.1004016578697373E+01
   0.9935774189375866E+00
   0.1001861747535311E+01
   0.1006722023262169E+01
   0.9866306636291250E+00
   0.9880864437595549E+00
   0.9963777349805958E+00
   0.9943332534642471E+00
   0.9873968487682463E+00
   0.9926521811512270E+00
   0.9667602278348476E+00
   0.1017683785059094E+01
   0.9829836806247535E+00
   0.1001480845736921E+01
   0.1001157558358385E+01
   0.9989742245132044E+00
   0.9976209137384121E+00
   0.9864688957988907E+00
   0.9980158233243204E+00
   0.1003607937035722E+01
   0.1002892987828504E+01
   0.9988418966126363E+00
   0.9840715410369237E+00
   0.9789309654535779E+00
   0.9847739220898458E+00
   0.9942692630539914E+00
   0.9999999444783841E+00
   0.9900343801237391E+00
   0.9861266795443301E+00
   0.9832556248356703E+00
   0.9982023841940636E+00
   0.1001457646174384E+01
   0.1001061249979748E+01
   0.1001129477190314E+01
   0.1002866486433531E+01
   0.9891995812935253E+00
   0.9869629634282731E+00
   0.9919050208191416E+00
   0.1000764113607327E+01
   0.1000926472097807E+01
   0.1002438358286916E+01
   0.9922499076972535E+00
   0.9866841567366296E+00
   0.9943481483727160E+00
SCALARS lambda1 double 1
LOOKUP_TABLE default
  -0.1516689834576971E+00
  -0.9284548853040886E-01
  -0.2948729433654813E-01
   0.4167994712143898E-01
   0.7016500594372632E-01
   0.6225753495429355E-01
   0.8118152827435204E-01
   0.5284550206791652E-01
   0.6223192099576130E-01
   0.4899095533017593E-01
   0.2924366475516369E-01
  -0.5759270013975634E-01
  -0.7362781129633650E-01
  -0.4065386000202113E-01
  -0.1215852389158159E+00
  -0.1721033371831728E+00
  -0.1036594002194233E+00
   0.5612087874843447E-01
   0.5862247390455868E-01
  -0.4794121890418907E-01
  -0.3574921857393516E-01
  -0.8683917039971441E-01
  -0.3703710166551338E-01
  -0.2668017775510884E-02
   0.6487748241222600E-01
   0.4614986093305758E-02
   0.5192028795723318E-02
   0.2621454478266557E-01
   0.6577787303856829E-01
  -0.3812929362008480E-01
  -0.7701581393776972E-02
  -0.3427597090910234E-01
  -0.1650687088558761E-01
   0.2429243539570612E+00
   0.1145659121828488E+00
   0.7884475433678313E-01
   0.7511049191349863E-01
   0.3345526929768239E+00
   0.5891846719789612E+00
   0.6223401395871607E+00
   0.7525819927831898E+00
   0.2776642474232289E+00
   0.7260183446930170E-02
  -0.7520027357160154E+00
  -0.1005055566662545E+01
   0.5987878065488762E-01
  -0.3989064063506232E+00
   0.2163635536684893E+00
   0.1281380814442973E+00
   0.1258650283117150E+00
  -0.4671349773945869E-01
   0.8862877063173900E-01
   0.9471734979706849E-01
   0.5177090878897967E-01
   0.9887180765157197E-01
   0.1143409577112101E+00
   0.1536223993360864E+00
  -0.1445430377477749E+01
  -0.1437103453797391E+01
  -0.2434299577413077E+00
   0.1320242049253184E+00
   0.7379927524210035E-01
   0.6893208797076755E-01
   0.8401950615246537E-01
   0.8774775394122356E-01
   0.7367716607524583E-01
   0.1093199985280856E+00
   0.1657072002737734E+00
   0.3046597983744290E+00
   0.6022940451234440E-01
   0.6233178446447527E-01
   0.1068323432563882E+00
   0.1352312086293670E+00
   0.8404489703085863E-01
   0.1761663645978472E+00
   0.1267070713358020E+00
   0.5399133615263241E-01
   0.9422859955529818E-01
   0.9226755707429193E-01
   0.7981494165040733E-01
   0.4919773119565798E-01
   0.1544664029905240E+00
   0.9893779017899874E-01
   0.1348138030225781E+00
   0.1209595813171946E+00
   0.7925509554508806E+00
   0.8651956205289087E+00
   0.7816754566699142E+00
   0.7457422757003280E+00
   0.7061441314342227E+00
   0.6327085328105609E+00
   0.3323862951544013E+00
   0.2308915091846172E+00
   0.6818375147350121E+00
   0.5927684328237063E+00
   0.2167029620664812E+00
   0.2818196297116690E+00
   0.2817639510905245E+00
   0.4701656105371020E+00
   0.4827570184606077E+00
   0.8154947064322724E+00
   0.7885978072535367E+00
   0.7447044956617067E+00
   0.7018542905062675E+00
   0.4903083384699796E+00
   0.6037291088088290E+00
   0.6487132325663073E+00
   0.5213761738600471E+00
  -0.6031732692175306E+00
   0.7745832255148027E-01
   0.2121516189255445E+00
   0.2839490292062672E+00
  -0.9433076149099823E+00
  -0.1189599294471169E+01
   0.2117695648710477E+00
   0.2537774900838649E+00
   0.3482358444827194E+00
   0.1881900761989897E+00
   0.1165895907045644E+00
  -0.1421466031365101E+01
  -0.1492030238972078E+00
  -0.7358793915482414E-01