title="tecplot geometry and solution file"
variables = x y z mach temperature lambda1 lambda2 lambda3 lambda4 lambda5
zone t="boundary 1 bc-1", solutiontime= 0.4000000E+02, strandid=1001, i=32, j=46, f=feblock
 -0.547468544169E-02  0.000000000000E+00 -0.567606031243E-02  0.000000000000E+00  0.000000000000E+00  0.000000000000E+00 -0.525159244851E-02
 -0.425776897977E-02  0.000000000000E+00  0.000000000000E+00  0.000000000000E+00  0.000000000000E+00  0.000000000000E+00  0.000000000000E+00
  0.000000000000E+00  0.000000000000E+00 -0.338395986572E-02  0.000000000000E+00  0.000000000000E+00  0.000000000000E+00  0.000000000000E+00
  0.000000000000E+00  0.000000000000E+00  0.000000000000E+00  0.000000000000E+00  0.000000000000E+00  0.000000000000E+00  0.000000000000E+00
  0.000000000000E+00  0.000000000000E+00  0.000000000000E+00  0.000000000000E+00
  0.250494197117E+01  0.250494197117E+01  0.127822156907E+01  0.146289271009E+01  0.157686156160E+01  0.308372018325E+00  0.261948602442E-01
 -0.122573481164E+01 -0.600232012419E+00  0.250494197117E+01  0.477386199275E+00  0.742988685424E+00 -0.739814786992E+00  0.177790177481E+01
  0.155830813274E+01  0.250494197117E+01 -0.249658903664E+01 -0.154800130438E+01 -0.487811078581E+00  0.250494197117E+01  0.627766083140E+00
 -0.345533899378E+00 -0.178862290564E+01 -0.158811787973E+01  0.125000000000E+01 -0.249658903664E+01 -0.144524380962E+01  0.000000000000E+00
 -0.125000000000E+01 -0.249658903664E+01 -0.249658903664E+01 -0.249658903664E+01
  0.803813859867E-04  0.125000000000E+01  0.822460170215E-04  0.103724302461E+01  0.219251206392E+01  0.922061490191E+00  0.103872438719E-03
  0.341545874230E-04  0.715990576545E+00  0.250000000000E+01  0.202479342020E+01  0.324151231464E+01  0.175434191980E+01  0.310152362409E+01
  0.404200324774E+01  0.375000000000E+01  0.810725962649E-04  0.930412228790E+00  0.299062775774E+01  0.500000000000E+01  0.429310310915E+01
  0.409252726285E+01  0.187029682677E+01  0.284428995242E+01  0.500000000000E+01  0.125000000000E+01  0.394624082883E+01  0.500000000000E+01
  0.500000000000E+01  0.250000000000E+01  0.375000000000E+01  0.500000000000E+01
  0.000000000000E+00  0.440672136512E+00  0.000000000000E+00  0.474618025820E+00  0.460125068601E+00  0.468639320143E+00  0.000000000000E+00
  0.000000000000E+00  0.402534623939E+00  0.469886789982E+00  0.464193107367E+00  0.478749739491E+00  0.489555756507E+00  0.483130037990E+00
  0.488002902366E+00  0.489035017215E+00  0.000000000000E+00  0.465237698331E+00  0.473759127176E+00  0.495364848064E+00  0.490293257191E+00
  0.486276632093E+00  0.445850265191E+00  0.464356446519E+00  0.496127940578E+00  0.443891909404E+00  0.486928147025E+00  0.497248366859E+00
  0.496055083747E+00  0.467740399690E+00  0.488187228171E+00  0.495089980244E+00
  0.999990300362E+00  0.102982970104E+01  0.999990762612E+00  0.104241436388E+01  0.101187663318E+01  0.102516400612E+01  0.999991420552E+00
  0.999992171067E+00  0.103882325429E+01  0.100825795511E+01  0.101253536096E+01  0.100301645575E+01  0.102705594255E+01  0.100604114309E+01
  0.100244532432E+01  0.100354817652E+01  0.999992724186E+00  0.103209991946E+01  0.100459425771E+01  0.100178625606E+01  0.100260326526E+01
  0.100234745937E+01  0.101657167924E+01  0.100620610961E+01  0.100168369530E+01  0.104025009063E+01  0.100303477791E+01  0.100118721261E+01
  0.100134451878E+01  0.100976460100E+01  0.100405634212E+01  0.100176433139E+01
 -0.152675374697E+00 -0.767467500920E+00 -0.174803767983E+00 -0.123325308850E+01 -0.867795289459E-01 -0.146920470605E+01 -0.128188168057E+00
 -0.426985306861E-01 -0.145841985111E+01  0.413003513846E-01 -0.975625807748E-01  0.175658277171E+00 -0.823976058660E-01  0.975084461501E-01
  0.233568088421E+00  0.233001486339E+00 -0.772237986522E-01 -0.965118499149E+00  0.129093381498E+00  0.850490185673E+00  0.303698864149E+00
  0.203364006390E+00 -0.466677046090E-01  0.111043463847E+00  0.880617139870E+00 -0.622437573311E+00  0.158440817575E+00  0.970624639621E+00
  0.856622336628E+00  0.903438597807E-01  0.174452625886E+00  0.805076588220E+00
 -0.598446388382E-02 -0.111269682814E+00 -0.829456389105E-02 -0.157595639421E+00 -0.412866954561E-02 -0.222267414169E+00 -0.904721546862E-02
 -0.804633445825E-02 -0.217242266282E+00  0.195858194441E-01 -0.868298475842E-02  0.370707932988E-01  0.243281854655E-02  0.285986065984E-01
  0.457889110746E-01  0.512783304684E-01 -0.711450535422E-02 -0.150473952567E+00  0.258795838726E-01  0.174652094374E+00  0.602183453182E-01
  0.389388647138E-01  0.520097725185E-02  0.213088334951E-01  0.184370844282E+00 -0.766669209304E-01  0.312313320285E-01  0.203907321167E+00
  0.179217529622E+00  0.226412009557E-01  0.371599362569E-01  0.167463592257E+00
 -0.101535767555E-01 -0.321188809437E-02 -0.136833742805E-01 -0.312887342019E-01 -0.368874196058E-02 -0.151839891229E-01 -0.116969484056E-01
  0.437444742402E-02  0.834794916936E-03  0.333041085169E-03 -0.321289720813E-02 -0.333361848450E-02  0.352065359577E-02 -0.628895663294E-03
  0.124003906665E-02  0.719065567509E-04  0.613214777183E-02  0.198750817231E-01 -0.382590511765E-03 -0.831609132124E-04  0.801509524040E-03
  0.953703720759E-03  0.415022335295E-03  0.343100851313E-02 -0.224601935554E-02  0.256551466549E-02  0.196658295379E-02  0.428662645342E-03
  0.189184761409E-02  0.550211872896E-03  0.200557333916E-03 -0.163906056452E-03
  0.368775417448E-01  0.335888188586E-01  0.402174599971E-01  0.176947450569E-03 -0.355650066075E-01 -0.383936450563E-01  0.225251007098E-01
  0.196862503893E-01 -0.272151186192E-01 -0.388475044635E-01 -0.724900735567E-01 -0.399168572272E-01 -0.800199664254E-01 -0.371063679705E-01
 -0.274173637080E-01 -0.322231877796E-01  0.152560015374E-01 -0.229469382951E-01 -0.458921546999E-01 -0.115531578775E-01 -0.254607610844E-01
 -0.303348281204E-01 -0.545354404671E-01 -0.372309032803E-01 -0.110913164437E-01 -0.281613469759E-01 -0.278259780025E-01 -0.104990346487E-01
 -0.125443939936E-01 -0.422024035198E-01 -0.285040970662E-01 -0.123080703815E-01
  0.121948830904E+00  0.316092832794E+00  0.166580510106E+00  0.493582278845E+00  0.360877901859E-01  0.609863692713E+00 -0.814847923315E-02
 -0.260941178141E-01  0.606078325791E+00 -0.166135998540E-01  0.426574570577E-01 -0.686755996179E-01  0.355409997438E-01 -0.384226112450E-01
 -0.932798969849E-01 -0.939725663503E-01  0.254324798910E-01  0.403483113598E+00 -0.478392409194E-01 -0.353068853864E+00 -0.122653063094E+00
 -0.804280347533E-01  0.224549962297E-01 -0.397779473184E-01 -0.366234737929E+00  0.253750745484E+00 -0.617879165289E-01 -0.404849760577E+00
 -0.356473782092E+00 -0.328550688335E-01 -0.693132059599E-01 -0.334150336546E+00
        12        19        11        11
        11         5        12        12
        10        14         5         5
        19        13        11        11
        19        24        13        13
        30        23        24        24
        19        12        22        22
        28        22        21        21
        11        13         6         6
         7         6         9         9
        15        12        14        14
        18        13        23        23
        15        25        21        21
        27        19        22        22
        18         8         9         9
        27        31        24        24
         4        11         6         6
         5        14        12        12
         4         2         5         5
        21        12        15        15
        14        16        15        15
        24        19        27        27
        22        29        27        27
        23        26        18        18
        17         8        18        18
         5        11         4         4
         6         3         4         4
        26        23        30        30
         5         2        10        10
        16        14        10        10
         3         6         7         7
        21        25        28        28
        29        22        28        28
         6        13         9         9
         2         4         1         1
        31        27        32        32
        25        15        20        20
        24        23        13        13
         8         7         9         9
        13        18         9         9
        31        30        24        24
        12        21        22        22
        29        32        27        27
         3         1         4         4
        26        17        18        18
        16        20        15        15
zone t="boundary 2 bc-2", solutiontime= 0.4000000E+02, strandid=1002, i=33, j=48, f=feblock
  0.500195253374E+01  0.375034811161E+01  0.249861146299E+01  0.288036674177E+01  0.124717526933E+01  0.190856698521E+01  0.326577190273E+01
  0.201394856120E+01 -0.338395986572E-02  0.962374249381E+00  0.500000000000E+01  0.403430190008E+01  0.423029563807E+01  0.500000000000E+01
  0.385439188940E+01  0.500000000000E+01  0.398133433176E+01  0.315200081417E+01  0.266958028869E+01  0.154798029824E+01  0.218327860466E+01
  0.893688440338E+00  0.000000000000E+00  0.699009761768E+00  0.964460899052E+00  0.310303671659E+01  0.000000000000E+00  0.000000000000E+00
  0.125000000000E+01  0.500000000000E+01  0.375000000000E+01  0.250000000000E+01  0.000000000000E+00
 -0.249658903664E+01 -0.249658903664E+01 -0.249658903664E+01 -0.249658903664E+01 -0.249658903664E+01 -0.249658903664E+01 -0.249658903664E+01
 -0.249658903664E+01 -0.249658903664E+01 -0.249658903664E+01 -0.249658903664E+01 -0.249658903664E+01 -0.249658903664E+01 -0.249658903664E+01
 -0.249658903664E+01 -0.249658903664E+01 -0.249658903664E+01 -0.249658903664E+01 -0.249658903664E+01 -0.249658903664E+01 -0.249658903664E+01
 -0.249658903664E+01 -0.249658903664E+01 -0.249658903664E+01 -0.249658903664E+01 -0.249658903664E+01 -0.249658903664E+01 -0.249658903664E+01
 -0.249658903664E+01 -0.249658903664E+01 -0.249658903664E+01 -0.249658903664E+01 -0.249658903664E+01
  0.108225889030E-03  0.145875369682E-03  0.100893326425E-03  0.901663374396E+00  0.110858761917E-03  0.714928318829E+00  0.188140648011E+01
  0.175892165504E+01  0.810725962649E-04  0.957504300331E+00  0.125000000000E+01  0.100596698996E+01  0.191313519089E+01  0.250000000000E+01
  0.292898096716E+01  0.375000000000E+01  0.406883369524E+01  0.363389289944E+01  0.284756860985E+01  0.292582308120E+01  0.395754054931E+01
  0.205027256979E+01  0.125000000000E+01  0.306703272692E+01  0.397155766662E+01  0.433068622168E+01  0.250000000000E+01  0.375000000000E+01
  0.500000000000E+01  0.500000000000E+01  0.500000000000E+01  0.500000000000E+01  0.500000000000E+01
  0.000000000000E+00  0.000000000000E+00  0.000000000000E+00  0.380534933893E+00  0.000000000000E+00  0.343213081171E+00  0.585244496925E+00
  0.579499344205E+00  0.000000000000E+00  0.500959578913E+00  0.508769460148E+00  0.434312419771E+00  0.572817919451E+00  0.537160208080E+00
  0.569105645782E+00  0.515014970171E+00  0.508256765061E+00  0.527354036988E+00  0.567656182489E+00  0.531857069084E+00  0.506013391179E+00
  0.521044573739E+00  0.443891909404E+00  0.490703078146E+00  0.492147926412E+00  0.501388000320E+00  0.467740399690E+00  0.488187228171E+00
  0.489959820989E+00  0.491323935798E+00  0.486019442841E+00  0.489980976742E+00  0.495089980244E+00
  0.999993488485E+00  0.999993690942E+00  0.999993544242E+00  0.989596674085E+00  0.999993139053E+00  0.985604091028E+00  0.989839488847E+00
  0.991730617690E+00  0.999992724186E+00  0.984220387528E+00  0.985139981863E+00  0.984817712566E+00  0.990066477090E+00  0.100292374828E+01
  0.999857731400E+00  0.100487268684E+01  0.100122724769E+01  0.100056983810E+01  0.997888256964E+00  0.100350942201E+01  0.100059365414E+01
  0.101090707434E+01  0.104025009063E+01  0.100327959733E+01  0.100254952730E+01  0.100046804572E+01  0.100976460100E+01  0.100405634212E+01
  0.100192626091E+01  0.100045827286E+01  0.100058947226E+01  0.100110091494E+01  0.100176433139E+01
  0.631400012123E-01  0.495105889333E-01  0.304018702310E-01 -0.597668570488E+00 -0.604519730565E-01 -0.195993108769E+01  0.128443317672E+00
 -0.236324624890E-01 -0.772237986522E-01 -0.911088615552E+00  0.165043843761E+00  0.190818973393E+00  0.129547287208E+00  0.110744915232E+00
  0.814357103289E-01  0.743242571099E-01  0.547238722344E-01  0.633348879479E-01  0.104807781020E+00  0.125416465917E+00  0.824192597106E-01
 -0.328109634946E-01 -0.622437573311E+00  0.847675123960E-01  0.152395469503E+00  0.992252215203E-01  0.903438597807E-01  0.174452625886E+00
  0.724164587903E+00  0.865066163611E-01  0.331119118618E+00  0.636258674683E+00  0.805076588220E+00
 -0.172161540480E-01  0.481315772294E-02 -0.465100673223E-03 -0.102710141122E+00  0.111975298666E-01 -0.243522914827E+00  0.481889679398E-03
  0.969953681325E-02 -0.711450535422E-02 -0.107538679080E+00 -0.373679198335E-01 -0.128455294444E-02 -0.189853663713E-01 -0.283141530713E-01
 -0.188499759348E-01 -0.174274041751E-01 -0.208757312398E-01 -0.173969042678E-01 -0.640753446525E-02  0.106018519625E-01 -0.747048953112E-02
  0.902288795697E-02 -0.766669209304E-01  0.575486923156E-02  0.175498522965E-01 -0.103056947719E-01  0.226412009557E-01  0.371599362569E-01
  0.130270192346E+00 -0.436153066823E-02  0.332669767410E-01  0.989112781770E-01  0.167463592257E+00
  0.388935870790E-02 -0.102855011333E-02 -0.604765340183E-02 -0.139610362792E-01 -0.321147759119E-02 -0.243507665095E-01  0.190378994658E-02
 -0.216789737646E-03  0.613214777183E-02 -0.933623708440E-02  0.221305809908E-02  0.712715260288E-02 -0.132619405082E-03 -0.209114227944E-03
 -0.172022115533E-03  0.334183781241E-03 -0.405617848151E-04  0.178205827067E-03 -0.289662478698E-03 -0.691376877897E-03  0.423298333194E-03
 -0.724690804025E-03  0.256551466549E-02 -0.136695843460E-03  0.665350822816E-04  0.148115385866E-03  0.550211872896E-03  0.200557333916E-03
  0.653754578080E-04  0.595745404271E-04 -0.129904916249E-04 -0.434372949264E-04 -0.163906056452E-03
  0.496705617039E-02  0.512739479670E-02  0.774942414559E-02 -0.258819010527E-01  0.179336369041E-01 -0.561691582414E-02 -0.390452302939E-01
 -0.522303777553E-01  0.152560015374E-01 -0.245454274489E-01 -0.747452950571E-02 -0.273254041968E-01 -0.156872147512E-01 -0.709099438743E-02
 -0.161911528203E-01 -0.592733162215E-02 -0.157440964649E-01 -0.222371358541E-01 -0.263827696603E-01 -0.274213368780E-01 -0.256753616847E-01
 -0.415156459935E-01 -0.281613469759E-01 -0.291772848906E-01 -0.257150989248E-01 -0.221966167695E-01 -0.422024035198E-01 -0.285040970662E-01
 -0.173006698315E-01 -0.922292591304E-02 -0.200633246327E-01 -0.217603757495E-01 -0.123080703815E-01
 -0.179782498210E-01 -0.495111494286E-01 -0.858266262352E-01  0.272389161501E+00 -0.102373282765E+00  0.839460619671E+00 -0.381330842820E-01
  0.121422049354E-01  0.254324798910E-01  0.377520515618E+00 -0.356728307914E-01 -0.579395950686E-01 -0.318224010366E-01 -0.212343340642E-01
 -0.159120196093E-01 -0.150290116123E-01 -0.752182145264E-02 -0.115296144069E-01 -0.287448776960E-01 -0.426307987175E-01 -0.220310192867E-01
  0.149664294371E-01  0.253750745484E+00 -0.273256063638E-01 -0.556000614662E-01 -0.270722448381E-01 -0.328550688335E-01 -0.693132059599E-01
 -0.294231352504E+00 -0.261443089301E-01 -0.124253552303E+00 -0.252981689265E+00 -0.334150336546E+00
        15         7        19        19
         8        20        19        19
        18        19        21        21
         7         4         8         8
         3         6         4         4
        19         7         8         8
        19        18        15        15
        14        13        15        15
         8        22        20        20
        27        24        22        22
        19        20        21        21
        32        26        21        21
        17        18        26        26
        17        16        15        15
        25        29        21        21
        12         7        13        13
        10         8         6         6
        25        20        24        24
         4         6         8         8
        12         2         4         4
        10        23        22        22
        26        31        17        17
        30        16        17        17
         4         7        12        12
        13        11        12        12
        21        20        25        25
        24        28        25        25
        22         8        10        10
         6         5        10        10
        31        26        32        32
         4         2         3         3
         5         6         3         3
        11        13        14        14
        22        23        27        27
        28        24        27        27
        15        13         7         7
         2        12         1         1
        29        25        33        33
        23        10         9         9
        21        26        18        18
        16        14        15        15
        18        17        15        15
        29        32        21        21
        22        24        20        20
        28        33        25        25
        11         1        12        12
        31        30        17        17
         5         9        10        10
zone t="boundary 3 bc-3", solutiontime= 0.4000000E+02, strandid=1003, i=33, j=48, f=feblock
  0.375059096892E+01  0.249769609313E+01  0.500322133174E+01  0.403612218725E+01  0.287976772365E+01  0.124541910518E+01  0.190552237404E+01
  0.500000000000E+01  0.326671104552E+01  0.423253755448E+01  0.201271136506E+01 -0.547468544169E-02  0.958895643487E+00  0.500000000000E+01
  0.266968147299E+01  0.385584487271E+01  0.890374214836E+00  0.154654013699E+01  0.000000000000E+00  0.500000000000E+01  0.315261136744E+01
  0.218304199515E+01  0.398195307895E+01  0.000000000000E+00  0.697379952124E+00  0.963757277315E+00  0.125000000000E+01  0.000000000000E+00
  0.500000000000E+01  0.310330738524E+01  0.250000000000E+01  0.375000000000E+01  0.000000000000E+00
  0.250494197117E+01  0.250494197117E+01  0.250494197117E+01  0.250494197117E+01  0.250494197117E+01  0.250494197117E+01  0.250494197117E+01
  0.250494197117E+01  0.250494197117E+01  0.250494197117E+01  0.250494197117E+01  0.250494197117E+01  0.250494197117E+01  0.250494197117E+01
  0.250494197117E+01  0.250494197117E+01  0.250494197117E+01  0.250494197117E+01  0.250494197117E+01  0.250494197117E+01  0.250494197117E+01
  0.250494197117E+01  0.250494197117E+01  0.250494197117E+01  0.250494197117E+01  0.250494197117E+01  0.250494197117E+01  0.250494197117E+01
  0.250494197117E+01  0.250494197117E+01  0.250494197117E+01  0.250494197117E+01  0.250494197117E+01
  0.135649900494E-03  0.110129816467E-03  0.966887303890E-04  0.101756752009E+01  0.908094589218E+00  0.103942505801E-03  0.722629083213E+00
  0.125000000000E+01  0.188965661746E+01  0.191862696980E+01  0.176708239098E+01  0.803813859867E-04  0.969652551954E+00  0.250000000000E+01
  0.285339433501E+01  0.293325058812E+01  0.205656223819E+01  0.293157016932E+01  0.125000000000E+01  0.375000000000E+01  0.363766838842E+01
  0.396069444983E+01  0.407056385475E+01  0.250000000000E+01  0.307031995245E+01  0.397359820314E+01  0.500000000000E+01  0.375000000000E+01
  0.500000000000E+01  0.433260781310E+01  0.500000000000E+01  0.500000000000E+01  0.500000000000E+01
  0.000000000000E+00  0.000000000000E+00  0.000000000000E+00  0.444961626928E+00  0.402838316190E+00  0.000000000000E+00  0.379029001549E+00
  0.508827846411E+00  0.575719767468E+00  0.573484231916E+00  0.562571091033E+00  0.000000000000E+00  0.491643474339E+00  0.534340493553E+00
  0.556353506125E+00  0.564141623675E+00  0.522489639030E+00  0.521815314100E+00  0.440672136512E+00  0.517132480923E+00  0.524064820256E+00
  0.503612613683E+00  0.509416634110E+00  0.469886789982E+00  0.495646532245E+00  0.494503101969E+00  0.488630053423E+00  0.489035017215E+00
  0.492985464012E+00  0.498953669977E+00  0.486505314975E+00  0.484610387305E+00  0.495364848064E+00
  0.999989345567E+00  0.999989414891E+00  0.999989632591E+00  0.981375695393E+00  0.988672653297E+00  0.999989832933E+00  0.982271891095E+00
  0.984075644303E+00  0.990406052732E+00  0.990320090376E+00  0.994390331428E+00  0.999990300362E+00  0.988743428079E+00  0.100365390733E+01
  0.999774597300E+00  0.100117529834E+01  0.100830077599E+01  0.100251293722E+01  0.102982970104E+01  0.100442054131E+01  0.100199281310E+01
  0.100081994749E+01  0.100137956774E+01  0.100825795511E+01  0.100297377722E+01  0.100191712118E+01  0.100214790177E+01  0.100354817652E+01
  0.100047567419E+01  0.100056574043E+01  0.100126719373E+01  0.100066769089E+01  0.100178625606E+01
  0.427190944853E-01 -0.330726996125E-01  0.706455226709E-01 -0.390689776411E+00 -0.152872409495E+01 -0.961540563010E-01 -0.152118793524E+01
  0.241981692042E+00  0.123230587655E+00  0.152465432252E+00 -0.252755841360E+00 -0.152675374697E+00 -0.103013467797E+01  0.115821508947E+00
  0.133951311825E+00  0.951773028414E-01 -0.295262443220E-01  0.129452572527E+00 -0.767467500920E+00  0.788780072529E-01  0.576461140910E-01
  0.789020614033E-01  0.601483005295E-01  0.413003513846E-01  0.112848294974E+00  0.208624175643E+00  0.641256949269E+00  0.233001486339E+00
  0.747615501458E-01  0.919553870160E-01  0.599551033133E+00  0.325298456802E+00  0.850490185673E+00
  0.990059145985E-02  0.960537164612E-02 -0.175882269874E-01 -0.110642697542E+00 -0.211188719749E+00  0.200062738663E-01 -0.188220871074E+00
 -0.396802889819E-01  0.212235041674E-02 -0.209092045354E-01 -0.459824330053E-02 -0.598446388382E-02 -0.775982930784E-01 -0.303044329245E-01
  0.191435778834E-02 -0.158259546135E-01  0.287015089097E-01  0.135951552041E-01 -0.111269682814E+00 -0.193377724052E-01 -0.167188804742E-01
 -0.906755334600E-02 -0.195284759235E-01  0.195858194441E-01  0.264642473354E-01  0.262286438111E-01  0.113745789383E+00  0.512783304684E-01
 -0.679763804289E-02 -0.107628648229E-01  0.929874637126E-01  0.323280326265E-01  0.174652094374E+00
  0.186969216060E-02 -0.994310514989E-03 -0.239332469383E-02  0.741722725486E-02  0.214783481798E-01 -0.839087010555E-02  0.318813371972E-03
 -0.476915743998E-04  0.239781238954E-02 -0.401402641889E-03  0.202187994318E-02 -0.101535767555E-01 -0.116455528287E-01 -0.881926159612E-03
  0.101138107863E-03 -0.121483089946E-03  0.397773758603E-02  0.149392167481E-02 -0.321188809437E-02 -0.493386820601E-03 -0.241843714416E-03
 -0.107163856934E-02 -0.191938680881E-04  0.333041085169E-03  0.904919017864E-03 -0.305105670148E-03 -0.428654051295E-03  0.719065567509E-04
 -0.173147633493E-03  0.625418225230E-05 -0.979999062443E-04  0.253183118068E-04 -0.831609132124E-04
  0.115719336118E-01  0.216701289337E-01  0.606205746325E-02 -0.163799895582E-01 -0.261205990464E-01  0.208862757337E-01 -0.827805832128E-02
 -0.936620260702E-02 -0.479338273990E-01 -0.232674454756E-01 -0.694771243526E-01  0.368775417448E-01 -0.228340211039E-01 -0.930199648576E-02
 -0.246919243886E-01 -0.206784043730E-01 -0.585372856811E-01 -0.262818056712E-01  0.335888188586E-01 -0.824797517310E-02 -0.237573396288E-01
 -0.245611255184E-01 -0.177687428364E-01 -0.388475044635E-01 -0.378403497960E-01 -0.253342898321E-01 -0.182147438283E-01 -0.322231877796E-01
 -0.877214131369E-02 -0.230882511620E-01 -0.220812388984E-01 -0.201361594537E-01 -0.115531578775E-01
 -0.176767337851E+00 -0.753760929519E-01 -0.332194329307E-01  0.203296149687E+00  0.661912051121E+00 -0.477303308601E-02  0.638864430303E+00
 -0.616375166839E-01 -0.382527639009E-01 -0.393737639980E-01  0.987319125692E-01  0.121948830904E+00  0.405881516917E+00 -0.217991905375E-01
 -0.423060692241E-01 -0.215735693735E-01  0.884492882516E-02 -0.448203841570E-01  0.316092832794E+00 -0.154799478535E-01 -0.953755480493E-02
 -0.203403426926E-01 -0.980631901068E-02 -0.166135998540E-01 -0.413256669075E-01 -0.784900316455E-01 -0.259253622322E+00 -0.939725663503E-01
 -0.211864656366E-01 -0.242944381902E-01 -0.237907234047E+00 -0.121779204342E+00 -0.353068853864E+00
        15         9        16        16
        15        18        11        11
        22        15        21        21
        11         5         9         9
         5         7         2         2
        11         9        15        15
        16        21        15        15
        16        10        14        14
        18        17        11        11
        17        25        24        24
        22        18        15        15
        22        30        31        31
        30        21        23        23
        16        20        23        23
        22        27        26        26
        10         9         4         4
         7        11        13        13
        25        18        26        26
        11         7         5         5
         5         1         4         4
        17        19        13        13
        23        32        30        30
        23        20        29        29
         4         9         5         5
         4         8        10        10
        26        18        22        22
        26        28        25        25
        13        11        17        17
        13         6         7         7
        31        30        32        32
         2         1         5         5
         2         7         6         6
        14        10         8         8
        24        19        17        17
        24        25        28        28
         9        10        16        16
         3         4         1         1
        33        26        27        27
        12        13        19        19
        21        30        22        22
        16        14        20        20
        16        23        21        21
        22        31        27        27
        18        25        17        17
        26        33        28        28
         4         3         8         8
        23        29        32        32
        13        12         6         6
zone t="boundary 4 bc-4", solutiontime= 0.4000000E+02, strandid=1004, i=32, j=46, f=feblock
  0.125000000000E+01  0.219251206392E+01  0.103724302461E+01  0.500000000000E+01  0.250000000000E+01  0.375000000000E+01  0.404200324774E+01
  0.500000000000E+01  0.000000000000E+00  0.310152362409E+01  0.202479342020E+01  0.324151231464E+01  0.922061490191E+00  0.000000000000E+00
  0.299062775774E+01  0.394624082883E+01  0.500000000000E+01  0.409252726285E+01  0.500000000000E+01  0.429310310915E+01  0.175434191980E+01
  0.284428995242E+01  0.000000000000E+00  0.000000000000E+00  0.715990576545E+00  0.930412228790E+00  0.125000000000E+01  0.187029682677E+01
  0.500000000000E+01  0.375000000000E+01  0.250000000000E+01  0.000000000000E+00
  0.250494197117E+01  0.157686156160E+01  0.146289271009E+01  0.250494197117E+01  0.250494197117E+01  0.250494197117E+01  0.155830813274E+01
  0.125000000000E+01  0.250494197117E+01  0.177790177481E+01  0.477386199275E+00  0.742988685424E+00  0.308372018325E+00  0.125000000000E+01
 -0.487811078581E+00 -0.144524380962E+01 -0.125000000000E+01 -0.345533899378E+00  0.000000000000E+00  0.627766083140E+00 -0.739814786992E+00
 -0.158811787973E+01  0.000000000000E+00 -0.125000000000E+01 -0.600232012419E+00 -0.154800130438E+01 -0.249658903664E+01 -0.178862290564E+01
 -0.249658903664E+01 -0.249658903664E+01 -0.249658903664E+01 -0.249658903664E+01
  0.500000000000E+01  0.500000000000E+01  0.500000000000E+01  0.500000000000E+01  0.500000000000E+01  0.500000000000E+01  0.500000000000E+01
  0.500000000000E+01  0.500000000000E+01  0.500000000000E+01  0.500000000000E+01  0.500000000000E+01  0.500000000000E+01  0.500000000000E+01
  0.500000000000E+01  0.500000000000E+01  0.500000000000E+01  0.500000000000E+01  0.500000000000E+01  0.500000000000E+01  0.500000000000E+01
  0.500000000000E+01  0.500000000000E+01  0.500000000000E+01  0.500000000000E+01  0.500000000000E+01  0.500000000000E+01  0.500000000000E+01
  0.500000000000E+01  0.500000000000E+01  0.500000000000E+01  0.500000000000E+01
  0.488630053423E+00  0.488907200673E+00  0.490613524454E+00  0.492985464012E+00  0.486505314975E+00  0.484610387305E+00  0.485346346417E+00
  0.494164094826E+00  0.495364848064E+00  0.486544301825E+00  0.487826539497E+00  0.487053944491E+00  0.494057895498E+00  0.496127940578E+00
  0.487590739712E+00  0.483169495133E+00  0.492384717662E+00  0.487198320547E+00  0.494738341209E+00  0.487947262281E+00  0.489650836219E+00
  0.487975047811E+00  0.497248366859E+00  0.496055083747E+00  0.494947818077E+00  0.492777844524E+00  0.489959820989E+00  0.489963118744E+00
  0.491323935798E+00  0.486019442841E+00  0.489980976742E+00  0.495089980244E+00
  0.100214790177E+01  0.100152376261E+01  0.100177920363E+01  0.100047567419E+01  0.100126719373E+01  0.100066769089E+01  0.100025509248E+01
  0.100050308878E+01  0.100178625606E+01  0.100112381228E+01  0.100132857256E+01  0.100072299640E+01  0.100164084009E+01  0.100168369530E+01
  0.100096380429E+01  0.100001109262E+01  0.100083219162E+01  0.100022379580E+01  0.100062130449E+01  0.100023379273E+01  0.100174737467E+01
  0.100099023681E+01  0.100118721261E+01  0.100134451878E+01  0.100132726122E+01  0.100179980273E+01  0.100192626091E+01  0.100163810987E+01
  0.100045827286E+01  0.100058947226E+01  0.100110091494E+01  0.100176433139E+01
  0.641256949269E+00  0.622102040280E+00  0.638905238347E+00  0.747615501458E-01  0.599551033133E+00  0.325298456802E+00  0.226126446742E+00
  0.744094700122E-01  0.850490185673E+00  0.498597270414E+00  0.668678146135E+00  0.468606628774E+00  0.778903604488E+00  0.880617139870E+00
  0.528143240573E+00  0.217762637281E+00  0.842959810412E-01  0.277294168267E+00  0.691104064048E-01  0.277003784682E+00  0.822956586524E+00
  0.497039038371E+00  0.970624639621E+00  0.856622336628E+00  0.902366444934E+00  0.723655757774E+00  0.724164587903E+00  0.765796954047E+00
  0.865066163611E-01  0.331119118618E+00  0.636258674683E+00  0.805076588220E+00