title="tecplot geometry and solution file"
variables = x y z mach temperature lambda1 lambda2 lambda3 lambda4 lambda5
zone t="boundary 1 bc-1", solutiontime= 0.5000000E+02, strandid=1001, i=32, j=46, f=feblock
 -0.547468544169E-02  0.000000000000E+00 -0.567606031243E-02  0.000000000000E+00  0.000000000000E+00  0.000000000000E+00 -0.525159244851E-02
 -0.425776897977E-02  0.000000000000E+00  0.000000000000E+00  0.000000000000E+00  0.000000000000E+00  0.000000000000E+00  0.000000000000E+00
  0.000000000000E+00  0.000000000000E+00 -0.338395986572E-02  0.000000000000E+00  0.000000000000E+00  0.000000000000E+00  0.000000000000E+00
  0.000000000000E+00  0.000000000000E+00  0.000000000000E+00  0.000000000000E+00  0.000000000000E+00  0.000000000000E+00  0.000000000000E+00
  0.000000000000E+00  0.000000000000E+00  0.000000000000E+00  0.000000000000E+00
  0.250494197117E+01  0.250494197117E+01  0.127822156907E+01  0.146289271009E+01  0.157686156160E+01  0.308372018325E+00  0.261948602442E-01
 -0.122573481164E+01 -0.600232012419E+00  0.250494197117E+01  0.477386199275E+00  0.742988685424E+00 -0.739814786992E+00  0.177790177481E+01
  0.155830813274E+01  0.250494197117E+01 -0.249658903664E+01 -0.154800130438E+01 -0.487811078581E+00  0.250494197117E+01  0.627766083140E+00
 -0.345533899378E+00 -0.178862290564E+01 -0.158811787973E+01  0.125000000000E+01 -0.249658903664E+01 -0.144524380962E+01  0.000000000000E+00
 -0.125000000000E+01 -0.249658903664E+01 -0.249658903664E+01 -0.249658903664E+01
  0.803813859867E-04  0.125000000000E+01  0.822460170215E-04  0.103724302461E+01  0.219251206392E+01  0.922061490191E+00  0.103872438719E-03
  0.341545874230E-04  0.715990576545E+00  0.250000000000E+01  0.202479342020E+01  0.324151231464E+01  0.175434191980E+01  0.310152362409E+01
  0.404200324774E+01  0.375000000000E+01  0.810725962649E-04  0.930412228790E+00  0.299062775774E+01  0.500000000000E+01  0.429310310915E+01
  0.409252726285E+01  0.187029682677E+01  0.284428995242E+01  0.500000000000E+01  0.125000000000E+01  0.394624082883E+01  0.500000000000E+01
  0.500000000000E+01  0.250000000000E+01  0.375000000000E+01  0.500000000000E+01
  0.000000000000E+00  0.440672136512E+00  0.000000000000E+00  0.474618025820E+00  0.460125068601E+00  0.468639320143E+00  0.000000000000E+00
  0.000000000000E+00  0.402534623939E+00  0.469886789982E+00  0.464193107367E+00  0.478749739491E+00  0.489555756507E+00  0.483130037990E+00
  0.488002902366E+00  0.489035017215E+00  0.000000000000E+00  0.465237698331E+00  0.473759127176E+00  0.495364848064E+00  0.490293257191E+00
  0.486276632093E+00  0.445850265191E+00  0.464356446519E+00  0.496127940578E+00  0.443891909404E+00  0.486928147025E+00  0.497248366859E+00
  0.496055083747E+00  0.467740399690E+00  0.488187228171E+00  0.495089980244E+00
  0.999990300362E+00  0.102982970104E+01  0.999990762612E+00  0.104241436388E+01  0.101187663318E+01  0.102516400612E+01  0.999991420552E+00
  0.999992171067E+00  0.103882325429E+01  0.100825795511E+01  0.101253536096E+01  0.100301645575E+01  0.102705594255E+01  0.100604114309E+01
  0.100244532432E+01  0.100354817652E+01  0.999992724186E+00  0.103209991946E+01  0.100459425771E+01  0.100178625606E+01  0.100260326526E+01
  0.100234745937E+01  0.101657167924E+01  0.100620610961E+01  0.100168369530E+01  0.104025009063E+01  0.100303477791E+01  0.100118721261E+01
  0.100134451878E+01  0.100976460100E+01  0.100405634212E+01  0.100176433139E+01
 -0.152675649340E+00 -0.767469031477E+00 -0.174803539929E+00 -0.123325289023E+01 -0.867791960346E-01 -0.146920103808E+01 -0.128187733669E+00
 -0.426986104029E-01 -0.145841903199E+01  0.413008744647E-01 -0.975638679039E-01  0.175658428794E+00 -0.823999155499E-01  0.975085761803E-01
  0.233568538994E+00  0.233001978695E+00 -0.772238448526E-01 -0.965120808768E+00  0.129093366194E+00  0.850488638173E+00  0.303700843605E+00
  0.203369864429E+00 -0.466666578833E-01  0.111043179517E+00  0.880613828149E+00 -0.622433841859E+00  0.158441403125E+00  0.970616511305E+00
  0.856618853310E+00  0.903438924866E-01  0.174452379438E+00  0.805076166512E+00
 -0.598447105317E-02 -0.111270052062E+00 -0.829459860942E-02 -0.157595739817E+00 -0.412862387199E-02 -0.222266707559E+00 -0.904721165929E-02
 -0.804635679676E-02 -0.217242243577E+00  0.195859013969E-01 -0.868319834661E-02  0.370708854766E-01  0.243231428071E-02  0.285986162764E-01
  0.457888148261E-01  0.512784311806E-01 -0.711449628914E-02 -0.150474392690E+00  0.258796270108E-01  0.174652076291E+00  0.602186201770E-01
  0.389401454550E-01  0.520118644144E-02  0.213087097755E-01  0.184370431764E+00 -0.766662047423E-01  0.312313053897E-01  0.203905936859E+00
  0.179216907613E+00  0.226412158142E-01  0.371598075900E-01  0.167463803672E+00
 -0.101536107475E-01 -0.321189530822E-02 -0.136834492656E-01 -0.312890864509E-01 -0.368877800478E-02 -0.151842437032E-01 -0.116969217137E-01
  0.437448446861E-02  0.834668263775E-03  0.333037385767E-03 -0.321294338025E-02 -0.333346955781E-02  0.352069278561E-02 -0.628872867611E-03
  0.124004000648E-02  0.719121381101E-04  0.613214551954E-02  0.198752679933E-01 -0.382541975215E-03 -0.831592127376E-04  0.801707884832E-03
  0.953823814958E-03  0.414986280148E-03  0.343099610640E-02 -0.224614424230E-02  0.256551931624E-02  0.196657975521E-02  0.428336223095E-03
  0.189166439540E-02  0.550209417869E-03  0.200551878690E-03 -0.163906081456E-03
  0.368775782849E-01  0.335889831707E-01  0.402174058555E-01  0.176925338053E-03 -0.355650761327E-01 -0.383936151846E-01  0.225250329088E-01
  0.196862787690E-01 -0.272150260226E-01 -0.388474738414E-01 -0.724899553403E-01 -0.399169756609E-01 -0.800197967718E-01 -0.371063987144E-01
 -0.274172995773E-01 -0.322230294215E-01  0.152560063723E-01 -0.229468320924E-01 -0.458921768875E-01 -0.115532294716E-01 -0.254604881061E-01
 -0.303346007053E-01 -0.545354449996E-01 -0.372309381042E-01 -0.110912918671E-01 -0.281613816243E-01 -0.278260146205E-01 -0.104989361040E-01
 -0.125443345759E-01 -0.422024221233E-01 -0.285040446694E-01 -0.123080748707E-01
  0.121949075995E+00  0.316093498029E+00  0.166580254741E+00  0.493582218330E+00  0.360876517529E-01  0.609862200729E+00 -0.814871055687E-02
 -0.260940153387E-01  0.606078011318E+00 -0.166138158260E-01  0.426579850450E-01 -0.686756633389E-01  0.355419724306E-01 -0.384226572732E-01
 -0.932800669933E-01 -0.939727898070E-01  0.254325306446E-01  0.403484063579E+00 -0.478392420494E-01 -0.353068225525E+00 -0.122653911768E+00
 -0.804305665744E-01  0.224545578383E-01 -0.397778222463E-01 -0.366233381629E+00  0.253749202428E+00 -0.617881492706E-01 -0.404846359952E+00
 -0.356472301757E+00 -0.328550800862E-01 -0.693131078328E-01 -0.334150194481E+00
        12        19        11        11
        11         5        12        12
        10        14         5         5
        19        13        11        11
        19        24        13        13
        30        23        24        24
        19        12        22        22
        28        22        21        21
        11        13         6         6
         7         6         9         9
        15        12        14        14
        18        13        23        23
        15        25        21        21
        27        19        22        22
        18         8         9         9
        27        31        24        24
         4        11         6         6
         5        14        12        12
         4         2         5         5
        21        12        15        15
        14        16        15        15
        24        19        27        27
        22        29        27        27
        23        26        18        18
        17         8        18        18
         5        11         4         4
         6         3         4         4
        26        23        30        30
         5         2        10        10
        16        14        10        10
         3         6         7         7
        21        25        28        28
        29        22        28        28
         6        13         9         9
         2         4         1         1
        31        27        32        32
        25        15        20        20
        24        23        13        13
         8         7         9         9
        13        18         9         9
        31        30        24        24
        12        21        22        22
        29        32        27        27
         3         1         4         4
        26        17        18        18
        16        20        15        15
zone t="boundary 2 bc-2", solutiontime= 0.5000000E+02, strandid=1002, i=33, j=48, f=feblock
  0.500195253374E+01  0.375034811161E+01  0.249861146299E+01  0.288036674177E+01  0.124717526933E+01  0.190856698521E+01  0.326577190273E+01
  0.201394856120E+01 -0.338395986572E-02  0.962374249381E+00  0.500000000000E+01  0.403430190008E+01  0.423029563807E+01  0.500000000000E+01
  0.385439188940E+01  0.500000000000E+01  0.398133433176E+01  0.315200081417E+01  0.266958028869E+01  0.154798029824E+01  0.218327860466E+01
  0.893688440338E+00  0.000000000000E+00  0.699009761768E+00  0.964460899052E+00  0.310303671659E+01  0.000000000000E+00  0.000000000000E+00
  0.125000000000E+01  0.500000000000E+01  0.375000000000E+01  0.250000000000E+01  0.000000000000E+00
 -0.249658903664E+01 -0.249658903664E+01 -0.249658903664E+01 -0.249658903664E+01 -0.249658903664E+01 -0.249658903664E+01 -0.249658903664E+01
 -0.249658903664E+01 -0.249658903664E+01 -0.249658903664E+01 -0.249658903664E+01 -0.249658903664E+01 -0.249658903664E+01 -0.249658903664E+01
 -0.249658903664E+01 -0.249658903664E+01 -0.249658903664E+01 -0.249658903664E+01 -0.249658903664E+01 -0.249658903664E+01 -0.249658903664E+01
 -0.249658903664E+01 -0.249658903664E+01 -0.249658903664E+01 -0.249658903664E+01 -0.249658903664E+01 -0.249658903664E+01 -0.249658903664E+01
 -0.249658903664E+01 -0.249658903664E+01 -0.249658903664E+01 -0.249658903664E+01 -0.249658903664E+01
  0.108225889030E-03  0.145875369682E-03  0.100893326425E-03  0.901663374396E+00  0.110858761917E-03  0.714928318829E+00  0.188140648011E+01
  0.175892165504E+01  0.810725962649E-04  0.957504300331E+00  0.125000000000E+01  0.100596698996E+01  0.191313519089E+01  0.250000000000E+01
  0.292898096716E+01  0.375000000000E+01  0.406883369524E+01  0.363389289944E+01  0.284756860985E+01  0.292582308120E+01  0.395754054931E+01
  0.205027256979E+01  0.125000000000E+01  0.306703272692E+01  0.397155766662E+01  0.433068622168E+01  0.250000000000E+01  0.375000000000E+01
  0.500000000000E+01  0.500000000000E+01  0.500000000000E+01  0.500000000000E+01  0.500000000000E+01
  0.000000000000E+00  0.000000000000E+00  0.000000000000E+00  0.380534933893E+00  0.000000000000E+00  0.343213081171E+00  0.585244496925E+00
  0.579499344205E+00  0.000000000000E+00  0.500959578913E+00  0.508769460148E+00  0.434312419771E+00  0.572817919451E+00  0.537160208080E+00
  0.569105645782E+00  0.515014970171E+00  0.508256765061E+00  0.527354036988E+00  0.567656182489E+00  0.531857069084E+00  0.506013391179E+00
  0.521044573739E+00  0.443891909404E+00  0.490703078146E+00  0.492147926412E+00  0.501388000320E+00  0.467740399690E+00  0.488187228171E+00
  0.489959820989E+00  0.491323935798E+00  0.486019442841E+00  0.489980976742E+00  0.495089980244E+00
  0.999993488485E+00  0.999993690942E+00  0.999993544242E+00  0.989596674085E+00  0.999993139053E+00  0.985604091028E+00  0.989839488847E+00
  0.991730617690E+00  0.999992724186E+00  0.984220387528E+00  0.985139981863E+00  0.984817712566E+00  0.990066477090E+00  0.100292374828E+01
  0.999857731400E+00  0.100487268684E+01  0.100122724769E+01  0.100056983810E+01  0.997888256964E+00  0.100350942201E+01  0.100059365414E+01
  0.101090707434E+01  0.104025009063E+01  0.100327959733E+01  0.100254952730E+01  0.100046804572E+01  0.100976460100E+01  0.100405634212E+01
  0.100192626091E+01  0.100045827286E+01  0.100058947226E+01  0.100110091494E+01  0.100176433139E+01
  0.631400612286E-01  0.495105821988E-01  0.304018054526E-01 -0.597668283782E+00 -0.604520137513E-01 -0.195993086059E+01  0.128443552090E+00
 -0.236320662076E-01 -0.772238448526E-01 -0.911089038694E+00  0.165043640884E+00  0.190820777910E+00  0.129546941289E+00  0.110744962307E+00
  0.814356685078E-01  0.743242586761E-01  0.547238794849E-01  0.633349299680E-01  0.104807672576E+00  0.125417116877E+00  0.824196064834E-01
 -0.328111659268E-01 -0.622433841859E+00  0.847676028733E-01  0.152394558964E+00  0.992254193148E-01  0.903438924866E-01  0.174452379438E+00
  0.724162483497E+00  0.865065784236E-01  0.331118988520E+00  0.636258408939E+00  0.805076166512E+00
 -0.172161636445E-01  0.481317832865E-02 -0.465103865295E-03 -0.102710037882E+00  0.111975317885E-01 -0.243522901704E+00  0.481954597786E-03
  0.969970054115E-02 -0.711449628914E-02 -0.107538781079E+00 -0.373679718040E-01 -0.128414423657E-02 -0.189854603727E-01 -0.283141437984E-01
 -0.188499694642E-01 -0.174274067200E-01 -0.208757346430E-01 -0.173969007183E-01 -0.640748431215E-02  0.106020975815E-01 -0.747049424060E-02
  0.902299104094E-02 -0.766662047423E-01  0.575488233208E-02  0.175495362694E-01 -0.103057142524E-01  0.226412158142E-01  0.371598075900E-01
  0.130269984387E+00 -0.436153304300E-02  0.332669821370E-01  0.989113909049E-01  0.167463803672E+00
  0.388935060953E-02 -0.102855874051E-02 -0.604765777329E-02 -0.139610257158E-01 -0.321147625690E-02 -0.243507614426E-01  0.190379645123E-02
 -0.216784104892E-03  0.613214551954E-02 -0.933624969618E-02  0.221305730762E-02  0.712716936061E-02 -0.132623425213E-03 -0.209114113579E-03
 -0.172023317869E-03  0.334184574877E-03 -0.405621872966E-04  0.178208328413E-03 -0.289661495675E-03 -0.691373112571E-03  0.423306045610E-03
 -0.724705666720E-03  0.256551931624E-02 -0.136697359869E-03  0.665273474049E-04  0.148115731028E-03  0.550209417869E-03  0.200551878690E-03
  0.653734018725E-04  0.595746486834E-04 -0.129914183819E-04 -0.434369437703E-04 -0.163906081456E-03
  0.496705232549E-02  0.512739772745E-02  0.774942907927E-02 -0.258819234767E-01  0.179336365980E-01 -0.561690788912E-02 -0.390452616698E-01
 -0.522304034610E-01  0.152560063723E-01 -0.245454837814E-01 -0.747453591222E-02 -0.273255407931E-01 -0.156872192737E-01 -0.709099595279E-02
 -0.161911503117E-01 -0.592733132946E-02 -0.157440988333E-01 -0.222371243725E-01 -0.263827753512E-01 -0.274212697623E-01 -0.256753909428E-01
 -0.415155763794E-01 -0.281613816243E-01 -0.291772415774E-01 -0.257150912639E-01 -0.221966509880E-01 -0.422024221233E-01 -0.285040446694E-01
 -0.173006765087E-01 -0.922292163879E-02 -0.200633169245E-01 -0.217603507927E-01 -0.123080748707E-01
 -0.179782979217E-01 -0.495111646002E-01 -0.858266255016E-01  0.272389023315E+00 -0.102373284773E+00  0.839460522002E+00 -0.381331903932E-01
  0.121420095247E-01  0.254325306446E-01  0.377520693363E+00 -0.356727405369E-01 -0.579403926811E-01 -0.318222465680E-01 -0.212343538571E-01
 -0.159120087413E-01 -0.150290112333E-01 -0.752182416232E-02 -0.115296356239E-01 -0.287448514109E-01 -0.426311103663E-01 -0.220311539387E-01
  0.149664828237E-01  0.253749202428E+00 -0.273256504731E-01 -0.555996545742E-01 -0.270723146455E-01 -0.328550800862E-01 -0.693131078328E-01
 -0.294230507309E+00 -0.261442958118E-01 -0.124253507996E+00 -0.252981621725E+00 -0.334150194481E+00
        15         7        19        19
         8        20        19        19
        18        19        21        21
         7         4         8         8
         3         6         4         4
        19         7         8         8
        19        18        15        15
        14        13        15        15
         8        22        20        20
        27        24        22        22
        19        20        21        21
        32        26        21        21
        17        18        26        26
        17        16        15        15
        25        29        21        21
        12         7        13        13
        10         8         6         6
        25        20        24        24
         4         6         8         8
        12         2         4         4
        10        23        22        22
        26        31        17        17
        30        16        17        17
         4         7        12        12
        13        11        12        12
        21        20        25        25
        24        28        25        25
        22         8        10        10
         6         5        10        10
        31        26        32        32
         4         2         3         3
         5         6         3         3
        11        13        14        14
        22        23        27        27
        28        24        27        27
        15        13         7         7
         2        12         1         1
        29        25        33        33
        23        10         9         9
        21        26        18        18
        16        14        15        15
        18        17        15        15
        29        32        21        21
        22        24        20        20
        28        33        25        25
        11         1        12        12
        31        30        17        17
         5         9        10        10
zone t="boundary 3 bc-3", solutiontime= 0.5000000E+02, strandid=1003, i=33, j=48, f=feblock
  0.375059096892E+01  0.249769609313E+01  0.500322133174E+01  0.403612218725E+01  0.287976772365E+01  0.124541910518E+01  0.190552237404E+01
  0.500000000000E+01  0.326671104552E+01  0.423253755448E+01  0.201271136506E+01 -0.547468544169E-02  0.958895643487E+00  0.500000000000E+01
  0.266968147299E+01  0.385584487271E+01  0.890374214836E+00  0.154654013699E+01  0.000000000000E+00  0.500000000000E+01  0.315261136744E+01
  0.218304199515E+01  0.398195307895E+01  0.000000000000E+00  0.697379952124E+00  0.963757277315E+00  0.125000000000E+01  0.000000000000E+00
  0.500000000000E+01  0.310330738524E+01  0.250000000000E+01  0.375000000000E+01  0.000000000000E+00
  0.250494197117E+01  0.250494197117E+01  0.250494197117E+01  0.250494197117E+01  0.250494197117E+01  0.250494197117E+01  0.250494197117E+01
  0.250494197117E+01  0.250494197117E+01  0.250494197117E+01  0.250494197117E+01  0.250494197117E+01  0.250494197117E+01  0.250494197117E+01
  0.250494197117E+01  0.250494197117E+01  0.250494197117E+01  0.250494197117E+01  0.250494197117E+01  0.250494197117E+01  0.250494197117E+01
  0.250494197117E+01  0.250494197117E+01  0.250494197117E+01  0.250494197117E+01  0.250494197117E+01  0.250494197117E+01  0.250494197117E+01
  0.250494197117E+01  0.250494197117E+01  0.250494197117E+01  0.250494197117E+01  0.250494197117E+01
  0.135649900494E-03  0.110129816467E-03  0.966887303890E-04  0.101756752009E+01  0.908094589218E+00  0.103942505801E-03  0.722629083213E+00
  0.125000000000E+01  0.188965661746E+01  0.191862696980E+01  0.176708239098E+01  0.803813859867E-04  0.969652551954E+00  0.250000000000E+01
  0.285339433501E+01  0.293325058812E+01  0.205656223819E+01  0.293157016932E+01  0.125000000000E+01  0.375000000000E+01  0.363766838842E+01
  0.396069444983E+01  0.407056385475E+01  0.250000000000E+01  0.307031995245E+01  0.397359820314E+01  0.500000000000E+01  0.375000000000E+01
  0.500000000000E+01  0.433260781310E+01  0.500000000000E+01  0.500000000000E+01  0.500000000000E+01
  0.000000000000E+00  0.000000000000E+00  0.000000000000E+00  0.444961626928E+00  0.402838316190E+00  0.000000000000E+00  0.379029001549E+00
  0.508827846411E+00  0.575719767468E+00  0.573484231916E+00  0.562571091033E+00  0.000000000000E+00  0.491643474339E+00  0.534340493553E+00
  0.556353506125E+00  0.564141623675E+00  0.522489639030E+00  0.521815314100E+00  0.440672136512E+00  0.517132480923E+00  0.524064820256E+00
  0.503612613683E+00  0.509416634110E+00  0.469886789982E+00  0.495646532245E+00  0.494503101969E+00  0.488630053423E+00  0.489035017215E+00
  0.492985464012E+00  0.498953669977E+00  0.486505314975E+00  0.484610387305E+00  0.495364848064E+00
  0.999989345567E+00  0.999989414891E+00  0.999989632591E+00  0.981375695393E+00  0.988672653297E+00  0.999989832933E+00  0.982271891095E+00
  0.984075644303E+00  0.990406052732E+00  0.990320090376E+00  0.994390331428E+00  0.999990300362E+00  0.988743428079E+00  0.100365390733E+01
  0.999774597300E+00  0.100117529834E+01  0.100830077599E+01  0.100251293722E+01  0.102982970104E+01  0.100442054131E+01  0.100199281310E+01
  0.100081994749E+01  0.100137956774E+01  0.100825795511E+01  0.100297377722E+01  0.100191712118E+01  0.100214790177E+01  0.100354817652E+01
  0.100047567419E+01  0.100056574043E+01  0.100126719373E+01  0.100066769089E+01  0.100178625606E+01
  0.427192862739E-01 -0.330727455242E-01  0.706455180468E-01 -0.390687158528E+00 -0.152872739384E+01 -0.961541660320E-01 -0.152119132056E+01
  0.241981226932E+00  0.123231392723E+00  0.152464898527E+00 -0.252755440041E+00 -0.152675649340E+00 -0.103013851688E+01  0.115821568492E+00
  0.133951105691E+00  0.951772687975E-01 -0.295261512437E-01  0.129452733989E+00 -0.767469031477E+00  0.788780074504E-01  0.576460541984E-01
  0.789020102096E-01  0.601481715172E-01  0.413008744647E-01  0.112847876790E+00  0.208624154710E+00  0.641256281529E+00  0.233001978695E+00
  0.747615219552E-01  0.919555858095E-01  0.599550476848E+00  0.325298394933E+00  0.850488638173E+00
  0.990061201225E-02  0.960541469443E-02 -0.175882587854E-01 -0.110642521248E+00 -0.211189692592E+00  0.200063509350E-01 -0.188221903747E+00
 -0.396804249746E-01  0.212256356692E-02 -0.209093634255E-01 -0.459822696472E-02 -0.598447105317E-02 -0.775994167418E-01 -0.303044094818E-01
  0.191435358670E-02 -0.158259529850E-01  0.287013859417E-01  0.135952303533E-01 -0.111270052062E+00 -0.193377697587E-01 -0.167188793567E-01
 -0.906757088969E-02 -0.195285044812E-01  0.195859013969E-01  0.264640763753E-01  0.262286910096E-01  0.113745495946E+00  0.512784311806E-01
 -0.679763252618E-02 -0.107628313482E-01  0.929875135796E-01  0.323280345101E-01  0.174652076291E+00
  0.186969520289E-02 -0.994313217223E-03 -0.239333603399E-02  0.741723557651E-02  0.214783989209E-01 -0.839087539403E-02  0.318822800043E-03
 -0.476908197588E-04  0.239779854329E-02 -0.401395836479E-03  0.202187367240E-02 -0.101536107475E-01 -0.116454894264E-01 -0.881925876363E-03
  0.101133065480E-03 -0.121484040635E-03  0.397780881390E-02  0.149392779018E-02 -0.321189530822E-02 -0.493387942326E-03 -0.241843322912E-03
 -0.107164120529E-02 -0.191935248535E-04  0.333037385767E-03  0.904921134474E-03 -0.305101030913E-03 -0.428648154985E-03  0.719121381101E-04
 -0.173148101426E-03  0.625574486032E-05 -0.980023606337E-04  0.253195050618E-04 -0.831592127376E-04
  0.115719072099E-01  0.216701703291E-01  0.606207374309E-02 -0.163801186538E-01 -0.261205373934E-01  0.208862957221E-01 -0.827792743037E-02
 -0.936615322602E-02 -0.479338397994E-01 -0.232674481861E-01 -0.694771499845E-01  0.368775782849E-01 -0.228339094914E-01 -0.930200397394E-02
 -0.246919182466E-01 -0.206784176974E-01 -0.585372283595E-01 -0.262817505317E-01  0.335889831707E-01 -0.824797142906E-02 -0.237573507906E-01
 -0.245611251341E-01 -0.177687402560E-01 -0.388474738414E-01 -0.378402515484E-01 -0.253343028045E-01 -0.182147028060E-01 -0.322230294215E-01
 -0.877213864742E-02 -0.230882692827E-01 -0.220812379117E-01 -0.201361481464E-01 -0.115532294716E-01
 -0.176767420121E+00 -0.753760516508E-01 -0.332193675728E-01  0.203295097051E+00  0.661913520390E+00 -0.477301724106E-02  0.638865951549E+00
 -0.616372943558E-01 -0.382531338415E-01 -0.393735203261E-01  0.987317303854E-01  0.121949075995E+00  0.405883220290E+00 -0.217992203320E-01
 -0.423059918329E-01 -0.215735591266E-01  0.884490861971E-02 -0.448204664712E-01  0.316093498029E+00 -0.154799490667E-01 -0.953753614723E-02
 -0.203403239777E-01 -0.980626513161E-02 -0.166138158260E-01 -0.413254608877E-01 -0.784900376369E-01 -0.259253310771E+00 -0.939727898070E-01
 -0.211864585051E-01 -0.242945249469E-01 -0.237907029315E+00 -0.121779186599E+00 -0.353068225525E+00
        15         9        16        16
        15        18        11        11
        22        15        21        21
        11         5         9         9
         5         7         2         2
        11         9        15        15
        16        21        15        15
        16        10        14        14
        18        17        11        11
        17        25        24        24
        22        18        15        15
        22        30        31        31
        30        21        23        23
        16        20        23        23
        22        27        26        26
        10         9         4         4
         7        11        13        13
        25        18        26        26
        11         7         5         5
         5         1         4         4
        17        19        13        13
        23        32        30        30
        23        20        29        29
         4         9         5         5
         4         8        10        10
        26        18        22        22
        26        28        25        25
        13        11        17        17
        13         6         7         7
        31        30        32        32
         2         1         5         5
         2         7         6         6
        14        10         8         8
        24        19        17        17
        24        25        28        28
         9        10        16        16
         3         4         1         1
        33        26        27        27
        12        13        19        19
        21        30        22        22
        16        14        20        20
        16        23        21        21
        22        31        27        27
        18        25        17        17
        26        33        28        28
         4         3         8         8
        23        29        32        32
        13        12         6         6
zone t="boundary 4 bc-4", solutiontime= 0.5000000E+02, strandid=1004, i=32, j=46, f=feblock
  0.125000000000E+01  0.219251206392E+01  0.103724302461E+01  0.500000000000E+01  0.250000000000E+01  0.375000000000E+01  0.404200324774E+01
  0.500000000000E+01  0.000000000000E+00  0.310152362409E+01  0.202479342020E+01  0.324151231464E+01  0.922061490191E+00  0.000000000000E+00
  0.299062775774E+01  0.394624082883E+01  0.500000000000E+01  0.409252726285E+01  0.500000000000E+01  0.429310310915E+01  0.175434191980E+01
  0.284428995242E+01  0.000000000000E+00  0.000000000000E+00  0.715990576545E+00  0.930412228790E+00  0.125000000000E+01  0.187029682677E+01
  0.500000000000E+01  0.375000000000E+01  0.250000000000E+01  0.000000000000E+00
  0.250494197117E+01  0.157686156160E+01  0.146289271009E+01  0.250494197117E+01  0.250494197117E+01  0.250494197117E+01  0.155830813274E+01
  0.125000000000E+01  0.250494197117E+01  0.177790177481E+01  0.477386199275E+00  0.742988685424E+00  0.308372018325E+00  0.125000000000E+01
 -0.487811078581E+00 -0.144524380962E+01 -0.125000000000E+01 -0.345533899378E+00  0.000000000000E+00  0.627766083140E+00 -0.739814786992E+00
 -0.158811787973E+01  0.000000000000E+00 -0.125000000000E+01 -0.600232012419E+00 -0.154800130438E+01 -0.249658903664E+01 -0.178862290564E+01
 -0.249658903664E+01 -0.249658903664E+01 -0.249658903664E+01 -0.249658903664E+01
  0.500000000000E+01  0.500000000000E+01  0.500000000000E+01  0.500000000000E+01  0.500000000000E+01  0.500000000000E+01  0.500000000000E+01
  0.500000000000E+01  0.500000000000E+01  0.500000000000E+01  0.500000000000E+01  0.500000000000E+01  0.500000000000E+01  0.500000000000E+01
  0.500000000000E+01  0.500000000000E+01  0.500000000000E+01  0.500000000000E+01  0.500000000000E+01  0.500000000000E+01  0.500000000000E+01
  0.500000000000E+01  0.500000000000E+01  0.500000000000E+01  0.500000000000E+01  0.500000000000E+01  0.500000000000E+01  0.500000000000E+01
  0.500000000000E+01  0.500000000000E+01  0.500000000000E+01  0.500000000000E+01
  0.488630053423E+00  0.488907200673E+00  0.490613524454E+00  0.492985464012E+00  0.486505314975E+00  0.484610387305E+00  0.485346346417E+00
  0.494164094826E+00  0.495364848064E+00  0.486544301825E+00  0.487826539497E+00  0.487053944491E+00  0.494057895498E+00  0.496127940578E+00
  0.487590739712E+00  0.483169495133E+00  0.492384717662E+00  0.487198320547E+00  0.494738341209E+00  0.487947262281E+00  0.489650836219E+00
  0.487975047811E+00  0.497248366859E+00  0.496055083747E+00  0.494947818077E+00  0.492777844524E+00  0.489959820989E+00  0.489963118744E+00
  0.491323935798E+00  0.486019442841E+00  0.489980976742E+00  0.495089980244E+00
  0.100214790177E+01  0.100152376261E+01  0.100177920363E+01  0.100047567419E+01  0.100126719373E+01  0.100066769089E+01  0.100025509248E+01
  0.100050308878E+01  0.100178625606E+01  0.100112381228E+01  0.100132857256E+01  0.100072299640E+01  0.100164084009E+01  0.100168369530E+01
  0.100096380429E+01  0.100001109262E+01  0.100083219162E+01  0.100022379580E+01  0.100062130449E+01  0.100023379273E+01  0.100174737467E+01
  0.100099023681E+01  0.100118721261E+01  0.100134451878E+01  0.100132726122E+01  0.100179980273E+01  0.100192626091E+01  0.100163810987E+01
  0.100045827286E+01  0.100058947226E+01  0.100110091494E+01  0.100176433139E+01
  0.641256281529E+00  0.622101692944E+00  0.638904629784E+00  0.747615219552E-01  0.599550476848E+00  0.325298394933E+00  0.226126494942E+00
  0.744094441781E-01  0.850488638173E+00  0.498596510984E+00  0.668677788224E+00  0.468606438556E+00  0.778899688906E+00  0.880613828149E+00
  0.528142796604E+00  0.217762647380E+00  0.842960141218E-01  0.277293974853E+00  0.691104463254E-01  0.277003605703E+00  0.822957240962E+00
  0.497038439211E+00  0.970616511305E+00  0.856618853310E+00  0.902363855372E+00  0.723655933595E+00  0.724162483497E+00  0.765795924658E+00
  0.865065784236E-01  0.331118988520E+00  0.636258408939E+00  0.805076166512E+00