title="tecplot geometry and solution file"
variables = x y z mach temperature lambda1 lambda2 lambda3 lambda4 lambda5
zone t="boundary 1 bc-1", solutiontime= 0.6000000E+02, strandid=1001, i=32, j=46, f=feblock
 -0.547468544169E-02  0.000000000000E+00 -0.567606031243E-02  0.000000000000E+00  0.000000000000E+00  0.000000000000E+00 -0.525159244851E-02
 -0.425776897977E-02  0.000000000000E+00  0.000000000000E+00  0.000000000000E+00  0.000000000000E+00  0.000000000000E+00  0.000000000000E+00
  0.000000000000E+00  0.000000000000E+00 -0.338395986572E-02  0.000000000000E+00  0.000000000000E+00  0.000000000000E+00  0.000000000000E+00
  0.000000000000E+00  0.000000000000E+00  0.000000000000E+00  0.000000000000E+00  0.000000000000E+00  0.000000000000E+00  0.000000000000E+00
  0.000000000000E+00  0.000000000000E+00  0.000000000000E+00  0.000000000000E+00
  0.250494197117E+01  0.250494197117E+01  0.127822156907E+01  0.146289271009E+01  0.157686156160E+01  0.308372018325E+00  0.261948602442E-01
 -0.122573481164E+01 -0.600232012419E+00  0.250494197117E+01  0.477386199275E+00  0.742988685424E+00 -0.739814786992E+00  0.177790177481E+01
  0.155830813274E+01  0.250494197117E+01 -0.249658903664E+01 -0.154800130438E+01 -0.487811078581E+00  0.250494197117E+01  0.627766083140E+00
 -0.345533899378E+00 -0.178862290564E+01 -0.158811787973E+01  0.125000000000E+01 -0.249658903664E+01 -0.144524380962E+01  0.000000000000E+00
 -0.125000000000E+01 -0.249658903664E+01 -0.249658903664E+01 -0.249658903664E+01
  0.803813859867E-04  0.125000000000E+01  0.822460170215E-04  0.103724302461E+01  0.219251206392E+01  0.922061490191E+00  0.103872438719E-03
  0.341545874230E-04  0.715990576545E+00  0.250000000000E+01  0.202479342020E+01  0.324151231464E+01  0.175434191980E+01  0.310152362409E+01
  0.404200324774E+01  0.375000000000E+01  0.810725962649E-04  0.930412228790E+00  0.299062775774E+01  0.500000000000E+01  0.429310310915E+01
  0.409252726285E+01  0.187029682677E+01  0.284428995242E+01  0.500000000000E+01  0.125000000000E+01  0.394624082883E+01  0.500000000000E+01
  0.500000000000E+01  0.250000000000E+01  0.375000000000E+01  0.500000000000E+01
  0.000000000000E+00  0.440672136512E+00  0.000000000000E+00  0.474618025820E+00  0.460125068601E+00  0.468639320143E+00  0.000000000000E+00
  0.000000000000E+00  0.402534623939E+00  0.469886789982E+00  0.464193107367E+00  0.478749739491E+00  0.489555756507E+00  0.483130037990E+00
  0.488002902366E+00  0.489035017215E+00  0.000000000000E+00  0.465237698331E+00  0.473759127176E+00  0.495364848064E+00  0.490293257191E+00
  0.486276632093E+00  0.445850265191E+00  0.464356446519E+00  0.496127940578E+00  0.443891909404E+00  0.486928147025E+00  0.497248366859E+00
  0.496055083747E+00  0.467740399690E+00  0.488187228171E+00  0.495089980244E+00
  0.999990300362E+00  0.102982970104E+01  0.999990762612E+00  0.104241436388E+01  0.101187663318E+01  0.102516400612E+01  0.999991420552E+00
  0.999992171067E+00  0.103882325429E+01  0.100825795511E+01  0.101253536096E+01  0.100301645575E+01  0.102705594255E+01  0.100604114309E+01
  0.100244532432E+01  0.100354817652E+01  0.999992724186E+00  0.103209991946E+01  0.100459425771E+01  0.100178625606E+01  0.100260326526E+01
  0.100234745937E+01  0.101657167924E+01  0.100620610961E+01  0.100168369530E+01  0.104025009063E+01  0.100303477791E+01  0.100118721261E+01
  0.100134451878E+01  0.100976460100E+01  0.100405634212E+01  0.100176433139E+01
 -0.152675657323E+00 -0.767469080522E+00 -0.174803536068E+00 -0.123325289177E+01 -0.867791666760E-01 -0.146920094113E+01 -0.128187722652E+00
 -0.426986164047E-01 -0.145841901300E+01  0.413008941359E-01 -0.975638874152E-01  0.175658396293E+00 -0.823999350633E-01  0.975085864830E-01
  0.233568572860E+00  0.233001977635E+00 -0.772238475383E-01 -0.965120956851E+00  0.129093344392E+00  0.850488569971E+00  0.303700967062E+00
  0.203370011766E+00 -0.466666324663E-01  0.111043191854E+00  0.880613666975E+00 -0.622433688722E+00  0.158441426487E+00  0.970616232132E+00
  0.856618774571E+00  0.903438872541E-01  0.174452393049E+00  0.805076106852E+00
 -0.598447125866E-02 -0.111270064276E+00 -0.829459972803E-02 -0.157595743620E+00 -0.412861758995E-02 -0.222266687062E+00 -0.904721192612E-02
 -0.804635707629E-02 -0.217242244571E+00  0.195859052702E-01 -0.868320125295E-02  0.370708797137E-01  0.243230911985E-02  0.285986189206E-01
  0.457888200652E-01  0.512784318135E-01 -0.711449544692E-02 -0.150474418060E+00  0.258796224845E-01  0.174652066216E+00  0.602186480854E-01
  0.389401827176E-01  0.520119247740E-02  0.213087109179E-01  0.184370401834E+00 -0.766661737613E-01  0.312313056077E-01  0.203905880497E+00
  0.179216895387E+00  0.226412157280E-01  0.371598079620E-01  0.167463800928E+00
 -0.101536112820E-01 -0.321189542529E-02 -0.136834511722E-01 -0.312890976136E-01 -0.368877822507E-02 -0.151842541883E-01 -0.116969211443E-01
  0.437448546613E-02  0.834661953081E-03  0.333037422409E-03 -0.321294259714E-02 -0.333346707484E-02  0.352069351210E-02 -0.628872263538E-03
  0.124004003085E-02  0.719124653201E-04  0.613214547194E-02  0.198752745095E-01 -0.382539958573E-03 -0.831590212617E-04  0.801713181135E-03
  0.953824700852E-03  0.414982210630E-03  0.343099412887E-02 -0.224614723365E-02  0.256551971791E-02  0.196657777420E-02  0.428334310242E-03
  0.189166346688E-02  0.550209277770E-03  0.200551685262E-03 -0.163906153303E-03
  0.368775796980E-01  0.335889904545E-01  0.402174050252E-01  0.176926583761E-03 -0.355650765209E-01 -0.383936147632E-01  0.225250311122E-01
  0.196862800637E-01 -0.272150206179E-01 -0.388474717694E-01 -0.724899537487E-01 -0.399169804780E-01 -0.800197895779E-01 -0.371063988577E-01
 -0.274172991826E-01 -0.322230255581E-01  0.152560063932E-01 -0.229468329555E-01 -0.458921780872E-01 -0.115532300248E-01 -0.254604806205E-01
 -0.303345951848E-01 -0.545354460037E-01 -0.372309392286E-01 -0.110912889364E-01 -0.281613853628E-01 -0.278260138692E-01 -0.104989297762E-01
 -0.125443326038E-01 -0.422024234526E-01 -0.285040404686E-01 -0.123080748148E-01
  0.121949083203E+00  0.316093519357E+00  0.166580250377E+00  0.493582219455E+00  0.360876390584E-01  0.609862161082E+00 -0.814871730814E-02
 -0.260940095404E-01  0.606078003580E+00 -0.166138243002E-01  0.426579927073E-01 -0.686756494267E-01  0.355419806824E-01 -0.384226616457E-01
 -0.932800817979E-01 -0.939727898965E-01  0.254325324347E-01  0.403484124043E+00 -0.478392328696E-01 -0.353068196891E+00 -0.122653966260E+00
 -0.804306318996E-01  0.224545470466E-01 -0.397778273940E-01 -0.366233314189E+00  0.253749138628E+00 -0.617881588033E-01 -0.404846241944E+00
 -0.356472268509E+00 -0.328550780589E-01 -0.693131141002E-01 -0.334150170286E+00
        12        19        11        11
        11         5        12        12
        10        14         5         5
        19        13        11        11
        19        24        13        13
        30        23        24        24
        19        12        22        22
        28        22        21        21
        11        13         6         6
         7         6         9         9
        15        12        14        14
        18        13        23        23
        15        25        21        21
        27        19        22        22
        18         8         9         9
        27        31        24        24
         4        11         6         6
         5        14        12        12
         4         2         5         5
        21        12        15        15
        14        16        15        15
        24        19        27        27
        22        29        27        27
        23        26        18        18
        17         8        18        18
         5        11         4         4
         6         3         4         4
        26        23        30        30
         5         2        10        10
        16        14        10        10
         3         6         7         7
        21        25        28        28
        29        22        28        28
         6        13         9         9
         2         4         1         1
        31        27        32        32
        25        15        20        20
        24        23        13        13
         8         7         9         9
        13        18         9         9
        31        30        24        24
        12        21        22        22
        29        32        27        27
         3         1         4         4
        26        17        18        18
        16        20        15        15
zone t="boundary 2 bc-2", solutiontime= 0.6000000E+02, strandid=1002, i=33, j=48, f=feblock
  0.500195253374E+01  0.375034811161E+01  0.249861146299E+01  0.288036674177E+01  0.124717526933E+01  0.190856698521E+01  0.326577190273E+01
  0.201394856120E+01 -0.338395986572E-02  0.962374249381E+00  0.500000000000E+01  0.403430190008E+01  0.423029563807E+01  0.500000000000E+01
  0.385439188940E+01  0.500000000000E+01  0.398133433176E+01  0.315200081417E+01  0.266958028869E+01  0.154798029824E+01  0.218327860466E+01
  0.893688440338E+00  0.000000000000E+00  0.699009761768E+00  0.964460899052E+00  0.310303671659E+01  0.000000000000E+00  0.000000000000E+00
  0.125000000000E+01  0.500000000000E+01  0.375000000000E+01  0.250000000000E+01  0.000000000000E+00
 -0.249658903664E+01 -0.249658903664E+01 -0.249658903664E+01 -0.249658903664E+01 -0.249658903664E+01 -0.249658903664E+01 -0.249658903664E+01
 -0.249658903664E+01 -0.249658903664E+01 -0.249658903664E+01 -0.249658903664E+01 -0.249658903664E+01 -0.249658903664E+01 -0.249658903664E+01
 -0.249658903664E+01 -0.249658903664E+01 -0.249658903664E+01 -0.249658903664E+01 -0.249658903664E+01 -0.249658903664E+01 -0.249658903664E+01
 -0.249658903664E+01 -0.249658903664E+01 -0.249658903664E+01 -0.249658903664E+01 -0.249658903664E+01 -0.249658903664E+01 -0.249658903664E+01
 -0.249658903664E+01 -0.249658903664E+01 -0.249658903664E+01 -0.249658903664E+01 -0.249658903664E+01
  0.108225889030E-03  0.145875369682E-03  0.100893326425E-03  0.901663374396E+00  0.110858761917E-03  0.714928318829E+00  0.188140648011E+01
  0.175892165504E+01  0.810725962649E-04  0.957504300331E+00  0.125000000000E+01  0.100596698996E+01  0.191313519089E+01  0.250000000000E+01
  0.292898096716E+01  0.375000000000E+01  0.406883369524E+01  0.363389289944E+01  0.284756860985E+01  0.292582308120E+01  0.395754054931E+01
  0.205027256979E+01  0.125000000000E+01  0.306703272692E+01  0.397155766662E+01  0.433068622168E+01  0.250000000000E+01  0.375000000000E+01
  0.500000000000E+01  0.500000000000E+01  0.500000000000E+01  0.500000000000E+01  0.500000000000E+01
  0.000000000000E+00  0.000000000000E+00  0.000000000000E+00  0.380534933893E+00  0.000000000000E+00  0.343213081171E+00  0.585244496925E+00
  0.579499344205E+00  0.000000000000E+00  0.500959578913E+00  0.508769460148E+00  0.434312419771E+00  0.572817919451E+00  0.537160208080E+00
  0.569105645782E+00  0.515014970171E+00  0.508256765061E+00  0.527354036988E+00  0.567656182489E+00  0.531857069084E+00  0.506013391179E+00
  0.521044573739E+00  0.443891909404E+00  0.490703078146E+00  0.492147926412E+00  0.501388000320E+00  0.467740399690E+00  0.488187228171E+00
  0.489959820989E+00  0.491323935798E+00  0.486019442841E+00  0.489980976742E+00  0.495089980244E+00
  0.999993488485E+00  0.999993690942E+00  0.999993544242E+00  0.989596674085E+00  0.999993139053E+00  0.985604091028E+00  0.989839488847E+00
  0.991730617690E+00  0.999992724186E+00  0.984220387528E+00  0.985139981863E+00  0.984817712566E+00  0.990066477090E+00  0.100292374828E+01
  0.999857731400E+00  0.100487268684E+01  0.100122724769E+01  0.100056983810E+01  0.997888256964E+00  0.100350942201E+01  0.100059365414E+01
  0.101090707434E+01  0.104025009063E+01  0.100327959733E+01  0.100254952730E+01  0.100046804572E+01  0.100976460100E+01  0.100405634212E+01
  0.100192626091E+01  0.100045827286E+01  0.100058947226E+01  0.100110091494E+01  0.100176433139E+01
  0.631400640058E-01  0.495105821732E-01  0.304018014408E-01 -0.597668288729E+00 -0.604520138327E-01 -0.195993082881E+01  0.128443568008E+00
 -0.236320525353E-01 -0.772238475383E-01 -0.911089034410E+00  0.165043630764E+00  0.190820867119E+00  0.129546922758E+00  0.110744965027E+00
  0.814356665740E-01  0.743242597716E-01  0.547238767517E-01  0.633349297904E-01  0.104807661758E+00  0.125417132282E+00  0.824196208971E-01
 -0.328112195126E-01 -0.622433688722E+00  0.847676157624E-01  0.152394562946E+00  0.992254252891E-01  0.903438872541E-01  0.174452393049E+00
  0.724162441758E+00  0.865065766674E-01  0.331118986894E+00  0.636258410619E+00  0.805076106852E+00
 -0.172161641575E-01  0.481317940275E-02 -0.465104126659E-03 -0.102710035646E+00  0.111975316353E-01 -0.243522897299E+00  0.481958844619E-03
  0.969970621255E-02 -0.711449544692E-02 -0.107538779739E+00 -0.373679744044E-01 -0.128412422278E-02 -0.189854653812E-01 -0.283141432859E-01
 -0.188499693733E-01 -0.174274065693E-01 -0.208757352668E-01 -0.173969006280E-01 -0.640748500746E-02  0.106021050159E-01 -0.747049250970E-02
  0.902298397665E-02 -0.766661737613E-01  0.575488695699E-02  0.175495337024E-01 -0.103057140811E-01  0.226412157280E-01  0.371598079620E-01
  0.130269977974E+00 -0.436153323112E-02  0.332669826103E-01  0.989113942582E-01  0.167463800928E+00
  0.388935027658E-02 -0.102855917225E-02 -0.604765801568E-02 -0.139610253845E-01 -0.321147578550E-02 -0.243507607821E-01  0.190379677066E-02
 -0.216783842810E-03  0.613214547194E-02 -0.933624936081E-02  0.221305726238E-02  0.712717016583E-02 -0.132623622860E-03 -0.209114109872E-03
 -0.172023375245E-03  0.334184609875E-03 -0.405622313555E-04  0.178208371563E-03 -0.289661593836E-03 -0.691372969613E-03  0.423306211172E-03
 -0.724705710860E-03  0.256551971791E-02 -0.136696979151E-03  0.665272654126E-04  0.148115736711E-03  0.550209277770E-03  0.200551685262E-03
  0.653733076736E-04  0.595746510661E-04 -0.129914647675E-04 -0.434369123108E-04 -0.163906153303E-03
  0.496705215859E-02  0.512739777526E-02  0.774942949854E-02 -0.258819236283E-01  0.179336362930E-01 -0.561690790544E-02 -0.390452631448E-01
 -0.522304045062E-01  0.152560063932E-01 -0.245454863309E-01 -0.747453615407E-02 -0.273255476765E-01 -0.156872194636E-01 -0.709099606657E-02
 -0.161911503868E-01 -0.592733128775E-02 -0.157440989723E-01 -0.222371242225E-01 -0.263827760150E-01 -0.274212684874E-01 -0.256753912510E-01
 -0.415155738539E-01 -0.281613853628E-01 -0.291772402704E-01 -0.257150895501E-01 -0.221966513951E-01 -0.422024234526E-01 -0.285040404686E-01
 -0.173006766397E-01 -0.922292158231E-02 -0.200633166900E-01 -0.217603503067E-01 -0.123080748148E-01
 -0.179783001711E-01 -0.495111656765E-01 -0.858266249411E-01  0.272389024618E+00 -0.102373285018E+00  0.839460508265E+00 -0.381331975412E-01
  0.121420028135E-01  0.254325324347E-01  0.377520691181E+00 -0.356727360230E-01 -0.579404320464E-01 -0.318222382638E-01 -0.212343549894E-01
 -0.159120081510E-01 -0.150290116761E-01 -0.752182301658E-02 -0.115296357114E-01 -0.287448472263E-01 -0.426311181720E-01 -0.220311599642E-01
  0.149665045897E-01  0.253749138628E+00 -0.273256565397E-01 -0.555996558247E-01 -0.270723169891E-01 -0.328550780589E-01 -0.693131141002E-01
 -0.294230489945E+00 -0.261442951597E-01 -0.124253507580E+00 -0.252981623196E+00 -0.334150170286E+00
        15         7        19        19
         8        20        19        19
        18        19        21        21
         7         4         8         8
         3         6         4         4
        19         7         8         8
        19        18        15        15
        14        13        15        15
         8        22        20        20
        27        24        22        22
        19        20        21        21
        32        26        21        21
        17        18        26        26
        17        16        15        15
        25        29        21        21
        12         7        13        13
        10         8         6         6
        25        20        24        24
         4         6         8         8
        12         2         4         4
        10        23        22        22
        26        31        17        17
        30        16        17        17
         4         7        12        12
        13        11        12        12
        21        20        25        25
        24        28        25        25
        22         8        10        10
         6         5        10        10
        31        26        32        32
         4         2         3         3
         5         6         3         3
        11        13        14        14
        22        23        27        27
        28        24        27        27
        15        13         7         7
         2        12         1         1
        29        25        33        33
        23        10         9         9
        21        26        18        18
        16        14        15        15
        18        17        15        15
        29        32        21        21
        22        24        20        20
        28        33        25        25
        11         1        12        12
        31        30        17        17
         5         9        10        10
zone t="boundary 3 bc-3", solutiontime= 0.6000000E+02, strandid=1003, i=33, j=48, f=feblock
  0.375059096892E+01  0.249769609313E+01  0.500322133174E+01  0.403612218725E+01  0.287976772365E+01  0.124541910518E+01  0.190552237404E+01
  0.500000000000E+01  0.326671104552E+01  0.423253755448E+01  0.201271136506E+01 -0.547468544169E-02  0.958895643487E+00  0.500000000000E+01
  0.266968147299E+01  0.385584487271E+01  0.890374214836E+00  0.154654013699E+01  0.000000000000E+00  0.500000000000E+01  0.315261136744E+01
  0.218304199515E+01  0.398195307895E+01  0.000000000000E+00  0.697379952124E+00  0.963757277315E+00  0.125000000000E+01  0.000000000000E+00
  0.500000000000E+01  0.310330738524E+01  0.250000000000E+01  0.375000000000E+01  0.000000000000E+00
  0.250494197117E+01  0.250494197117E+01  0.250494197117E+01  0.250494197117E+01  0.250494197117E+01  0.250494197117E+01  0.250494197117E+01
  0.250494197117E+01  0.250494197117E+01  0.250494197117E+01  0.250494197117E+01  0.250494197117E+01  0.250494197117E+01  0.250494197117E+01
  0.250494197117E+01  0.250494197117E+01  0.250494197117E+01  0.250494197117E+01  0.250494197117E+01  0.250494197117E+01  0.250494197117E+01
  0.250494197117E+01  0.250494197117E+01  0.250494197117E+01  0.250494197117E+01  0.250494197117E+01  0.250494197117E+01  0.250494197117E+01
  0.250494197117E+01  0.250494197117E+01  0.250494197117E+01  0.250494197117E+01  0.250494197117E+01
  0.135649900494E-03  0.110129816467E-03  0.966887303890E-04  0.101756752009E+01  0.908094589218E+00  0.103942505801E-03  0.722629083213E+00
  0.125000000000E+01  0.188965661746E+01  0.191862696980E+01  0.176708239098E+01  0.803813859867E-04  0.969652551954E+00  0.250000000000E+01
  0.285339433501E+01  0.293325058812E+01  0.205656223819E+01  0.293157016932E+01  0.125000000000E+01  0.375000000000E+01  0.363766838842E+01
  0.396069444983E+01  0.407056385475E+01  0.250000000000E+01  0.307031995245E+01  0.397359820314E+01  0.500000000000E+01  0.375000000000E+01
  0.500000000000E+01  0.433260781310E+01  0.500000000000E+01  0.500000000000E+01  0.500000000000E+01
  0.000000000000E+00  0.000000000000E+00  0.000000000000E+00  0.444961626928E+00  0.402838316190E+00  0.000000000000E+00  0.379029001549E+00
  0.508827846411E+00  0.575719767468E+00  0.573484231916E+00  0.562571091033E+00  0.000000000000E+00  0.491643474339E+00  0.534340493553E+00
  0.556353506125E+00  0.564141623675E+00  0.522489639030E+00  0.521815314100E+00  0.440672136512E+00  0.517132480923E+00  0.524064820256E+00
  0.503612613683E+00  0.509416634110E+00  0.469886789982E+00  0.495646532245E+00  0.494503101969E+00  0.488630053423E+00  0.489035017215E+00
  0.492985464012E+00  0.498953669977E+00  0.486505314975E+00  0.484610387305E+00  0.495364848064E+00
  0.999989345567E+00  0.999989414891E+00  0.999989632591E+00  0.981375695393E+00  0.988672653297E+00  0.999989832933E+00  0.982271891095E+00
  0.984075644303E+00  0.990406052732E+00  0.990320090376E+00  0.994390331428E+00  0.999990300362E+00  0.988743428079E+00  0.100365390733E+01
  0.999774597300E+00  0.100117529834E+01  0.100830077599E+01  0.100251293722E+01  0.102982970104E+01  0.100442054131E+01  0.100199281310E+01
  0.100081994749E+01  0.100137956774E+01  0.100825795511E+01  0.100297377722E+01  0.100191712118E+01  0.100214790177E+01  0.100354817652E+01
  0.100047567419E+01  0.100056574043E+01  0.100126719373E+01  0.100066769089E+01  0.100178625606E+01
  0.427192927339E-01 -0.330727454042E-01  0.706455177428E-01 -0.390687070217E+00 -0.152872746209E+01 -0.961541684451E-01 -0.152119138095E+01
  0.241981212537E+00  0.123231414563E+00  0.152464881292E+00 -0.252755420698E+00 -0.152675657323E+00 -0.103013861454E+01  0.115821570111E+00
  0.133951097480E+00  0.951772679079E-01 -0.295261556680E-01  0.129452742871E+00 -0.767469080522E+00  0.788780074498E-01  0.576460513099E-01
  0.789020153439E-01  0.601481663598E-01  0.413008941359E-01  0.112847862910E+00  0.208624154230E+00  0.641256257760E+00  0.233001977635E+00
  0.747615203112E-01  0.919555897665E-01  0.599550467283E+00  0.325298399261E+00  0.850488569971E+00
  0.990061240002E-02  0.960541538094E-02 -0.175882597020E-01 -0.110642516655E+00 -0.211189720893E+00  0.200063534340E-01 -0.188221928514E+00
 -0.396804291070E-01  0.212256978670E-02 -0.209093685503E-01 -0.459822639509E-02 -0.598447125866E-02 -0.775994495671E-01 -0.303044086486E-01
  0.191435322451E-02 -0.158259526947E-01  0.287013809026E-01  0.135952340622E-01 -0.111270064276E+00 -0.193377696679E-01 -0.167188795788E-01
 -0.906756843302E-02 -0.195285054546E-01  0.195859052702E-01  0.264640740738E-01  0.262286926940E-01  0.113745485461E+00  0.512784318135E-01
 -0.679763263446E-02 -0.107628298879E-01  0.929875136788E-01  0.323280358319E-01  0.174652066216E+00
  0.186969534744E-02 -0.994313202771E-03 -0.239333637299E-02  0.741723593409E-02  0.214784004550E-01 -0.839087535969E-02  0.318822901675E-03
 -0.476907978051E-04  0.239779809468E-02 -0.401395617529E-03  0.202187335849E-02 -0.101536112820E-01 -0.116454875058E-01 -0.881925862233E-03
  0.101132933907E-03 -0.121484061497E-03  0.397781108758E-02  0.149392800109E-02 -0.321189542529E-02 -0.493387979258E-03 -0.241843299578E-03
 -0.107164131845E-02 -0.191935174996E-04  0.333037422409E-03  0.904921284236E-03 -0.305101011651E-03 -0.428648114590E-03  0.719124653201E-04
 -0.173148114187E-03  0.625575146953E-05 -0.980025179015E-04  0.253195094218E-04 -0.831590212617E-04
  0.115719062644E-01  0.216701713133E-01  0.606207423303E-02 -0.163801221956E-01 -0.261205332501E-01  0.208862960860E-01 -0.827792283217E-02
 -0.936615160391E-02 -0.479338398022E-01 -0.232674483047E-01 -0.694771480259E-01  0.368775796980E-01 -0.228339060329E-01 -0.930200412413E-02
 -0.246919181572E-01 -0.206784180915E-01 -0.585372276423E-01 -0.262817481003E-01  0.335889904545E-01 -0.824797127209E-02 -0.237573512638E-01
 -0.245611247028E-01 -0.177687402320E-01 -0.388474717694E-01 -0.378402475407E-01 -0.253343008739E-01 -0.182147015052E-01 -0.322230255581E-01
 -0.877213865174E-02 -0.230882691438E-01 -0.220812377359E-01 -0.201361477667E-01 -0.115532300248E-01
 -0.176767422211E+00 -0.753760507245E-01 -0.332193654092E-01  0.203295061802E+00  0.661913552024E+00 -0.477301786245E-02  0.638865979751E+00
 -0.616372875019E-01 -0.382531441077E-01 -0.393735124891E-01  0.987317220471E-01  0.121949083203E+00  0.405883264420E+00 -0.217992212265E-01
 -0.423059887113E-01 -0.215735589581E-01  0.884491105527E-02 -0.448204707541E-01  0.316093519357E+00 -0.154799491126E-01 -0.953753508718E-02
 -0.203403266379E-01 -0.980626301757E-02 -0.166138243002E-01 -0.413254547367E-01 -0.784900380972E-01 -0.259253299723E+00 -0.939727898965E-01
 -0.211864579061E-01 -0.242945269409E-01 -0.237907025545E+00 -0.121779188658E+00 -0.353068196891E+00
        15         9        16        16
        15        18        11        11
        22        15        21        21
        11         5         9         9
         5         7         2         2
        11         9        15        15
        16        21        15        15
        16        10        14        14
        18        17        11        11
        17        25        24        24
        22        18        15        15
        22        30        31        31
        30        21        23        23
        16        20        23        23
        22        27        26        26
        10         9         4         4
         7        11        13        13
        25        18        26        26
        11         7         5         5
         5         1         4         4
        17        19        13        13
        23        32        30        30
        23        20        29        29
         4         9         5         5
         4         8        10        10
        26        18        22        22
        26        28        25        25
        13        11        17        17
        13         6         7         7
        31        30        32        32
         2         1         5         5
         2         7         6         6
        14        10         8         8
        24        19        17        17
        24        25        28        28
         9        10        16        16
         3         4         1         1
        33        26        27        27
        12        13        19        19
        21        30        22        22
        16        14        20        20
        16        23        21        21
        22        31        27        27
        18        25        17        17
        26        33        28        28
         4         3         8         8
        23        29        32        32
        13        12         6         6
zone t="boundary 4 bc-4", solutiontime= 0.6000000E+02, strandid=1004, i=32, j=46, f=feblock
  0.125000000000E+01  0.219251206392E+01  0.103724302461E+01  0.500000000000E+01  0.250000000000E+01  0.375000000000E+01  0.404200324774E+01
  0.500000000000E+01  0.000000000000E+00  0.310152362409E+01  0.202479342020E+01  0.324151231464E+01  0.922061490191E+00  0.000000000000E+00
  0.299062775774E+01  0.394624082883E+01  0.500000000000E+01  0.409252726285E+01  0.500000000000E+01  0.429310310915E+01  0.175434191980E+01
  0.284428995242E+01  0.000000000000E+00  0.000000000000E+00  0.715990576545E+00  0.930412228790E+00  0.125000000000E+01  0.187029682677E+01
  0.500000000000E+01  0.375000000000E+01  0.250000000000E+01  0.000000000000E+00
  0.250494197117E+01  0.157686156160E+01  0.146289271009E+01  0.250494197117E+01  0.250494197117E+01  0.250494197117E+01  0.155830813274E+01
  0.125000000000E+01  0.250494197117E+01  0.177790177481E+01  0.477386199275E+00  0.742988685424E+00  0.308372018325E+00  0.125000000000E+01
 -0.487811078581E+00 -0.144524380962E+01 -0.125000000000E+01 -0.345533899378E+00  0.000000000000E+00  0.627766083140E+00 -0.739814786992E+00
 -0.158811787973E+01  0.000000000000E+00 -0.125000000000E+01 -0.600232012419E+00 -0.154800130438E+01 -0.249658903664E+01 -0.178862290564E+01
 -0.249658903664E+01 -0.249658903664E+01 -0.249658903664E+01 -0.249658903664E+01
  0.500000000000E+01  0.500000000000E+01  0.500000000000E+01  0.500000000000E+01  0.500000000000E+01  0.500000000000E+01  0.500000000000E+01
  0.500000000000E+01  0.500000000000E+01  0.500000000000E+01  0.500000000000E+01  0.500000000000E+01  0.500000000000E+01  0.500000000000E+01
  0.500000000000E+01  0.500000000000E+01  0.500000000000E+01  0.500000000000E+01  0.500000000000E+01  0.500000000000E+01  0.500000000000E+01
  0.500000000000E+01  0.500000000000E+01  0.500000000000E+01  0.500000000000E+01  0.500000000000E+01  0.500000000000E+01  0.500000000000E+01
  0.500000000000E+01  0.500000000000E+01  0.500000000000E+01  0.500000000000E+01
  0.488630053423E+00  0.488907200673E+00  0.490613524454E+00  0.492985464012E+00  0.486505314975E+00  0.484610387305E+00  0.485346346417E+00
  0.494164094826E+00  0.495364848064E+00  0.486544301825E+00  0.487826539497E+00  0.487053944491E+00  0.494057895498E+00  0.496127940578E+00
  0.487590739712E+00  0.483169495133E+00  0.492384717662E+00  0.487198320547E+00  0.494738341209E+00  0.487947262281E+00  0.489650836219E+00
  0.487975047811E+00  0.497248366859E+00  0.496055083747E+00  0.494947818077E+00  0.492777844524E+00  0.489959820989E+00  0.489963118744E+00
  0.491323935798E+00  0.486019442841E+00  0.489980976742E+00  0.495089980244E+00
  0.100214790177E+01  0.100152376261E+01  0.100177920363E+01  0.100047567419E+01  0.100126719373E+01  0.100066769089E+01  0.100025509248E+01
  0.100050308878E+01  0.100178625606E+01  0.100112381228E+01  0.100132857256E+01  0.100072299640E+01  0.100164084009E+01  0.100168369530E+01
  0.100096380429E+01  0.100001109262E+01  0.100083219162E+01  0.100022379580E+01  0.100062130449E+01  0.100023379273E+01  0.100174737467E+01
  0.100099023681E+01  0.100118721261E+01  0.100134451878E+01  0.100132726122E+01  0.100179980273E+01  0.100192626091E+01  0.100163810987E+01
  0.100045827286E+01  0.100058947226E+01  0.100110091494E+01  0.100176433139E+01
  0.641256257760E+00  0.622101670608E+00  0.638904610575E+00  0.747615203112E-01  0.599550467283E+00  0.325298399261E+00  0.226126499000E+00
  0.744094427978E-01  0.850488569971E+00  0.498596492150E+00  0.668677795103E+00  0.468606422161E+00  0.778899601796E+00  0.880613666975E+00
  0.528142769517E+00  0.217762649968E+00  0.842960134367E-01  0.277293974536E+00  0.691104465219E-01  0.277003602649E+00  0.822957207984E+00
  0.497038418389E+00  0.970616232132E+00  0.856618774571E+00  0.902363837674E+00  0.723655923132E+00  0.724162441758E+00  0.765795892543E+00
  0.865065766674E-01  0.331118986894E+00  0.636258410619E+00  0.805076106852E+00