# vtk DataFile Version 2.0
FUN3D:global_image_vtk
ASCII
DATASET UNSTRUCTURED_GRID
POINTS 213 double
    0.0000000000000000E+00    0.2500000000000000E+01    0.0000000000000000E+00
    0.1250000000000000E+01    0.2500000000000000E+01    0.0000000000000000E+00
    0.2500000000000000E+01    0.2500000000000000E+01    0.0000000000000000E+00
    0.3750000000000000E+01    0.2500000000000000E+01    0.0000000000000000E+00
    0.5000000000000000E+01    0.2500000000000000E+01    0.0000000000000000E+00
    0.5000000000000000E+01    0.1250000000000000E+01    0.0000000000000000E+00
    0.5000000000000000E+01    0.0000000000000000E+00    0.0000000000000000E+00
    0.5000000000000000E+01   -0.1250000000000000E+01    0.0000000000000000E+00
    0.5000000000000000E+01   -0.2500000000000000E+01    0.0000000000000000E+00
    0.3750000000000000E+01   -0.2500000000000000E+01    0.0000000000000000E+00
    0.2500000000000000E+01   -0.2500000000000000E+01    0.0000000000000000E+00
    0.1250000000000000E+01   -0.2500000000000000E+01    0.0000000000000000E+00
    0.0000000000000000E+00   -0.2500000000000000E+01    0.0000000000000000E+00
    0.0000000000000000E+00   -0.1250000000000000E+01    0.0000000000000000E+00
    0.0000000000000000E+00    0.0000000000000000E+00    0.0000000000000000E+00
    0.0000000000000000E+00    0.1250000000000000E+01    0.0000000000000000E+00
    0.9058375365086910E+00    0.1578994732800803E+01    0.0000000000000000E+00
    0.3982050490726493E+01   -0.1583989954232354E+01    0.0000000000000000E+00
    0.4033849428301197E+01    0.1453322699199022E+01    0.0000000000000000E+00
    0.1040505887381675E+01   -0.1479596339503735E+01    0.0000000000000000E+00
    0.1099454400140349E+01   -0.3227322616384110E+00    0.0000000000000000E+00
    0.7354504170366591E+00    0.6593508822075582E+00    0.0000000000000000E+00
    0.1622302608453282E+01    0.8256214013940779E+00    0.0000000000000000E+00
    0.2145871574390382E+01   -0.1650070333782557E+01    0.0000000000000000E+00
    0.4086422318222992E+01   -0.4612828702537229E+00    0.0000000000000000E+00
    0.2979540174134984E+01   -0.8579242121530853E+00    0.0000000000000000E+00
    0.3045064261640043E+01   -0.1836846154397680E+01    0.0000000000000000E+00
    0.3428197553792836E+01    0.3508002863614053E+00    0.0000000000000000E+00
    0.4309693860063405E+01    0.5185680230613409E+00    0.0000000000000000E+00
    0.1827272193562204E+01    0.1738996113203182E+01    0.0000000000000000E+00
    0.2808563282768077E+01    0.1325493893339706E+01    0.0000000000000000E+00
    0.1895995683864404E+01   -0.8731419609589618E+00    0.0000000000000000E+00
    0.2273179336307740E+01    0.4906150219227333E-01    0.0000000000000000E+00
    0.5000000000000000E+01    0.2500000000000000E+01    0.1250000000000000E+01
    0.5000000000000000E+01    0.2500000000000000E+01    0.2500000000000000E+01
    0.5000000000000000E+01    0.2500000000000000E+01    0.3750000000000000E+01
    0.5000000000000000E+01    0.2500000000000000E+01    0.5000000000000000E+01
    0.3750000000000000E+01    0.2500000000000000E+01    0.5000000000000000E+01
    0.2500000000000000E+01    0.2500000000000000E+01    0.5000000000000000E+01
    0.1250000000000000E+01    0.2500000000000000E+01    0.5000000000000000E+01
    0.0000000000000000E+00    0.2500000000000000E+01    0.5000000000000000E+01
    0.0000000000000000E+00    0.2500000000000000E+01    0.3750000000000000E+01
    0.0000000000000000E+00    0.2500000000000000E+01    0.2500000000000000E+01
    0.0000000000000000E+00    0.2500000000000000E+01    0.1250000000000000E+01
    0.9631080833812172E+00    0.2500000000000000E+01    0.9613285771248219E+00
    0.3981732467264904E+01    0.2500000000000000E+01    0.4069753913607991E+01
    0.4035525118777670E+01    0.2500000000000000E+01    0.1012015867579395E+01
    0.9641717640894248E+00    0.2500000000000000E+01    0.3972455192261839E+01
    0.1547743040396780E+01    0.2500000000000000E+01    0.2928177746738678E+01
    0.6985170616192014E+00    0.2500000000000000E+01    0.3068281976055466E+01
    0.8931277594515110E+00    0.2500000000000000E+01    0.2052465503257726E+01
    0.2183293750162785E+01    0.2500000000000000E+01    0.3959073795658649E+01
    0.3855333506014705E+01    0.2500000000000000E+01    0.2931218481500625E+01
    0.3152495579421047E+01    0.2500000000000000E+01    0.3635850502723324E+01
    0.3103247580566054E+01    0.2500000000000000E+01    0.4331682712472464E+01
    0.3266837581688852E+01    0.2500000000000000E+01    0.1886092433583972E+01
    0.4231539241296245E+01    0.2500000000000000E+01    0.1915865356532799E+01
    0.1909741006522088E+01    0.2500000000000000E+01    0.7170024419130505E+00
    0.2880784107213163E+01    0.2500000000000000E+01    0.9046598906449592E+00
    0.2014316024535771E+01    0.2500000000000000E+01    0.1762464314805728E+01
    0.2670003247036656E+01    0.2500000000000000E+01    0.2850479545835163E+01
    0.5000000000000000E+01    0.1250000000000000E+01    0.5000000000000000E+01
    0.5000000000000000E+01    0.0000000000000000E+00    0.5000000000000000E+01
    0.5000000000000000E+01   -0.1250000000000000E+01    0.5000000000000000E+01
    0.5000000000000000E+01   -0.2500000000000000E+01    0.5000000000000000E+01
    0.5000000000000000E+01   -0.2500000000000000E+01    0.3750000000000000E+01
    0.5000000000000000E+01   -0.2500000000000000E+01    0.2500000000000000E+01
    0.5000000000000000E+01   -0.2500000000000000E+01    0.1250000000000000E+01
    0.5000000000000000E+01    0.1578994732800803E+01    0.9058375365086910E+00
    0.5000000000000000E+01   -0.1583989954232354E+01    0.3982050490726493E+01
    0.5000000000000000E+01    0.1453322699199022E+01    0.4033849428301197E+01
    0.5000000000000000E+01   -0.1479596339503735E+01    0.1040505887381675E+01
    0.5000000000000000E+01   -0.3227322616384110E+00    0.1099454400140349E+01
    0.5000000000000000E+01    0.6593508822075582E+00    0.7354504170366591E+00
    0.5000000000000000E+01    0.8256214013940779E+00    0.1622302608453282E+01
    0.5000000000000000E+01   -0.1650070333782557E+01    0.2145871574390382E+01
    0.5000000000000000E+01   -0.4612828702537229E+00    0.4086422318222992E+01
    0.5000000000000000E+01   -0.8579242121530853E+00    0.2979540174134984E+01
    0.5000000000000000E+01   -0.1836846154397680E+01    0.3045064261640043E+01
    0.5000000000000000E+01    0.3508002863614053E+00    0.3428197553792836E+01
    0.5000000000000000E+01    0.5185680230613409E+00    0.4309693860063405E+01
    0.5000000000000000E+01    0.1738996113203182E+01    0.1827272193562204E+01
    0.5000000000000000E+01    0.1325493893339706E+01    0.2808563282768077E+01
    0.5000000000000000E+01   -0.8731419609589618E+00    0.1895995683864404E+01
    0.5000000000000000E+01    0.4906150219227333E-01    0.2273179336307740E+01
    0.0000000000000000E+00    0.1250000000000000E+01    0.5000000000000000E+01
    0.0000000000000000E+00    0.0000000000000000E+00    0.5000000000000000E+01
    0.0000000000000000E+00   -0.1250000000000000E+01    0.5000000000000000E+01
    0.0000000000000000E+00   -0.2500000000000000E+01    0.5000000000000000E+01
    0.1250000000000000E+01   -0.2500000000000000E+01    0.5000000000000000E+01
    0.2500000000000000E+01   -0.2500000000000000E+01    0.5000000000000000E+01
    0.3750000000000000E+01   -0.2500000000000000E+01    0.5000000000000000E+01
    0.4042003247744892E+01    0.1558308132739014E+01    0.5000000000000000E+01
    0.9304122287900499E+00   -0.1548001304379777E+01    0.5000000000000000E+01
    0.1037243024609388E+01    0.1462892710085612E+01    0.5000000000000000E+01
    0.3946240828834967E+01   -0.1445243809615570E+01    0.5000000000000000E+01
    0.4092527262848217E+01   -0.3455338993778935E+00    0.5000000000000000E+01
    0.4293103109154542E+01    0.6277660831404320E+00    0.5000000000000000E+01
    0.3241512314643519E+01    0.7429886854239611E+00    0.5000000000000000E+01
    0.2844289952419609E+01   -0.1588117879734118E+01    0.5000000000000000E+01
    0.7159905765450471E+00   -0.6002320124191652E+00    0.5000000000000000E+01
    0.1754341919796891E+01   -0.7398147869923652E+00    0.5000000000000000E+01
    0.1870296826774691E+01   -0.1788622905643739E+01    0.5000000000000000E+01
    0.9220614901912976E+00    0.3083720183248586E+00    0.5000000000000000E+01
    0.3101523624086016E+01    0.1777901774806180E+01    0.5000000000000000E+01
    0.2192512063922564E+01    0.1576861561598471E+01    0.5000000000000000E+01
    0.2024793420196460E+01    0.4773861992750707E+00    0.5000000000000000E+01
    0.2990627757741975E+01   -0.4878110785814084E+00    0.5000000000000000E+01
    0.0000000000000000E+00   -0.2500000000000000E+01    0.1250000000000000E+01
    0.0000000000000000E+00   -0.2500000000000000E+01    0.2500000000000000E+01
    0.0000000000000000E+00   -0.2500000000000000E+01    0.3750000000000000E+01
    0.0000000000000000E+00    0.1558308132739014E+01    0.4042003247744892E+01
    0.0000000000000000E+00   -0.1548001304379777E+01    0.9304122287900499E+00
    0.0000000000000000E+00    0.1462892710085612E+01    0.1037243024609388E+01
    0.0000000000000000E+00   -0.1445243809615570E+01    0.3946240828834967E+01
    0.0000000000000000E+00   -0.3455338993778935E+00    0.4092527262848217E+01
    0.0000000000000000E+00    0.6277660831404320E+00    0.4293103109154542E+01
    0.0000000000000000E+00    0.7429886854239611E+00    0.3241512314643519E+01
    0.0000000000000000E+00   -0.1588117879734118E+01    0.2844289952419609E+01
    0.0000000000000000E+00   -0.6002320124191652E+00    0.7159905765450471E+00
    0.0000000000000000E+00   -0.7398147869923652E+00    0.1754341919796891E+01
    0.0000000000000000E+00   -0.1788622905643739E+01    0.1870296826774691E+01
    0.0000000000000000E+00    0.3083720183248586E+00    0.9220614901912976E+00
    0.0000000000000000E+00    0.1777901774806180E+01    0.3101523624086016E+01
    0.0000000000000000E+00    0.1576861561598471E+01    0.2192512063922564E+01
[...]
POINT_DATA 213
SCALARS rho double 1
LOOKUP_TABLE default
   0.1344271447739723E+01
   0.9569758910521082E+00
   0.9462964175560402E+00
   0.9418612686244905E+00
   0.8437304874535466E+00
   0.7738004284635747E+00
   0.7629818915526781E+00
   0.7664577883998777E+00
   0.8307874039367464E+00
   0.9352972551681807E+00
   0.9342219821924097E+00
   0.9617195272011697E+00
   0.1449457443399309E+01
   0.1494090642046916E+01
   0.1644667275427440E+01
   0.1425832044253901E+01
   0.1009014433572050E+01
   0.9508810839746327E+00
   0.9436508479399374E+00
   0.9581561035329599E+00
   0.9415852462110953E+00
   0.1036377239933851E+01
   0.9256161097379758E+00
   0.9322349849710606E+00
   0.9537479574998717E+00
   0.9518769546418193E+00
   0.9348583100699581E+00
   0.9564028400831124E+00
   0.9376098388220099E+00
   0.9300661523537463E+00
   0.9445157476134032E+00
   0.8863506506622973E+00
   0.9423579947899909E+00
   0.9635003078677759E+00
   0.1008299039515797E+01
   0.1006735291827135E+01
   0.1001964617616136E+01
   0.1003219581492558E+01
   0.1004132053909876E+01
   0.1005228602877105E+01
   0.1004260408205618E+01
   0.1008308189904810E+01
   0.1023893137809090E+01
   0.1063553955931815E+01
   0.1019182513005304E+01
   0.1001780766374275E+01
   0.9643309935152483E+00
   0.1005283708916814E+01
   0.1000721163223285E+01
   0.1008742083719037E+01
   0.1008078083573997E+01
   0.1002349807047230E+01
   0.9979986847967837E+00
   0.1000583560891925E+01
   0.1001620123592902E+01
   0.9826893072208274E+00
   0.9842439641427884E+00
   0.9833314032612006E+00
   0.9788207406584254E+00
   0.9902638160297644E+00
   0.9934561552675193E+00
   0.1002011751697317E+01
   0.1002134465690366E+01
   0.1002276326501101E+01
   0.1001794758335623E+01
   0.1009778638922053E+01
   0.1006429109058246E+01
   0.9558786955210349E+00
   0.9249398403748939E+00
   0.1007036755544343E+01
   0.1004504925157262E+01
   0.9143642067478118E+00
   0.9089667856742037E+00
   0.8751688893236439E+00
   0.9767271883611128E+00
   0.1000452621135218E+01
   0.1005831087463311E+01
   0.1012882803345032E+01
   0.1011618951352770E+01
   0.1010438648648376E+01
   0.1005468280896580E+01
   0.9907612678424145E+00
   0.1005140325733325E+01
   0.9860567245975748E+00
   0.1005609737765468E+01
   0.1004248005670330E+01
   0.1002888437658386E+01
   0.1003345420415057E+01
   0.1003992731839074E+01
   0.1005101716114493E+01
   0.1003211645104895E+01
   0.1002663159925506E+01
   0.1002586231437122E+01
   0.1004060870905467E+01
   0.1004320345994212E+01
   0.1001641920330809E+01
   0.1002273115977839E+01
   0.1002543475626463E+01
   0.1003469520790118E+01
   0.1003372640223396E+01
   0.1003232230008687E+01
   0.1004423863407515E+01
   0.1004313070790342E+01
   0.1003659849368451E+01
   0.1003723103894310E+01
   0.1004329726390832E+01
   0.1004465021829696E+01
   0.1003623375282541E+01
   0.1064422801122900E+01
   0.1028473621146427E+01
   0.1009586657252320E+01
   0.1006638837419185E+01
   0.1163935521207359E+01
   0.1086087969723755E+01
   0.1007893419206511E+01
   0.1007245533247539E+01
   0.1006798074090620E+01
   0.1013018286836814E+01
   0.1019384609367525E+01
   0.1235203669275215E+01
   0.1032529466549786E+01
   0.1046681191275463E+01
   0.1200953641986960E+01
   0.1014718915939692E+01
   0.1032291153076501E+01
   0.1028095236517831E+01
   0.1014628639692678E+01
   0.1029216892374309E+01
   0.1001994816353030E+01
   0.9606929188044906E+00
   0.1006852582737636E+01
   0.1001327193300224E+01
   0.1010821905289580E+01
   0.1012246098869615E+01
   0.1000946006876512E+01
   0.9979121234146319E+00
   0.9980632372343939E+00
   0.1001184143332357E+01
   0.9841362010800232E+00
   0.9814879613791979E+00
   0.9648483316991010E+00
   0.9680877121903931E+00
   0.9914124469998521E+00
   0.9910858388136456E+00
   0.9925545095595484E+00
   0.1001727533822483E+01
   0.9993409401675918E+00
   0.9941410834895669E+00
   0.1007038753583106E+01
   0.1022539494056448E+01
   0.1001088098314946E+01
   0.1008798496187391E+01
   0.1004773846027601E+01
   0.1009050237372094E+01
   0.9966470331600473E+00
   0.1004988557309699E+01
   0.1003325535120809E+01
   0.9949431084926668E+00
   0.9832680781527119E+00
   0.9943957454974451E+00
   0.9973420656003925E+00
   0.9932190085737016E+00
   0.1001306487093496E+01
   0.1003001636895083E+01
   0.1002183579590031E+01
   0.9947078545348010E+00
   0.9937965521097348E+00
   0.1004867865458705E+01
   0.1020077607366924E+01
   0.1005364552307055E+01
   0.9816998152357478E+00
   0.1004973031181139E+01
   0.1012382323322832E+01
   0.9871424292701854E+00
   0.9551513532879280E+00
   0.9865075699833754E+00
   0.9864532949239749E+00
   0.9918946939824799E+00
   0.9933508197529127E+00
   0.9954406183887498E+00
   0.1037336789616226E+01
   0.1033536797833447E+01
   0.1001443320765488E+01
   0.1001930499712873E+01
   0.9912478516515842E+00
   0.9910920509384327E+00
   0.9648489987152646E+00
   0.9933282604822451E+00
   0.1006058638662188E+01
   0.1001954027115938E+01
   0.9908735804204835E+00
   0.9740945210647115E+00
   0.9418802133643002E+00
   0.9819379689388108E+00
   0.9794803560468042E+00
   0.9704172057750544E+00
   0.9720478942595083E+00
   0.9557351700869844E+00
   0.9496731208301094E+00
   0.9528673562338676E+00
   0.1002659533959769E+01
   0.1002471631877637E+01
   0.1000509329239911E+01
   0.1001677321737358E+01
   0.9607931426883557E+00
   0.9491625497966439E+00
   0.9584503054885618E+00
   0.1001121207703498E+01
   0.1000496140521014E+01
   0.1001156644154483E+01
   0.9807376182934512E+00
   0.9806000806403020E+00
   0.9628476101799909E+00
SCALARS u double 1
LOOKUP_TABLE default
   0.0000000000000000E+00
   0.0000000000000000E+00
   0.0000000000000000E+00
   0.0000000000000000E+00
   0.0000000000000000E+00
   0.0000000000000000E+00
   0.0000000000000000E+00
   0.0000000000000000E+00
   0.0000000000000000E+00
   0.0000000000000000E+00
   0.0000000000000000E+00
   0.0000000000000000E+00
   0.0000000000000000E+00
   0.0000000000000000E+00
   0.0000000000000000E+00
   0.0000000000000000E+00
   0.0000000000000000E+00
   0.0000000000000000E+00
   0.0000000000000000E+00
   0.0000000000000000E+00
   0.0000000000000000E+00
   0.0000000000000000E+00
   0.0000000000000000E+00
   0.0000000000000000E+00
   0.0000000000000000E+00
   0.0000000000000000E+00
   0.0000000000000000E+00
   0.0000000000000000E+00
   0.0000000000000000E+00
   0.0000000000000000E+00
   0.0000000000000000E+00
   0.0000000000000000E+00
   0.0000000000000000E+00
   0.4950176836087313E+00
   0.5338221299578142E+00
   0.5183269246467834E+00
   0.4930649880355838E+00
   0.4847578720833643E+00
   0.4867666425222538E+00
   0.4890763584406681E+00
   0.4957848880907537E+00
   0.4898301884880594E+00
   0.4717388495329262E+00
   0.4454814155442313E+00
   0.4833907047761651E+00
   0.5098397461816895E+00
   0.4390712705055523E+00
   0.4949403965597769E+00
   0.5225330362967711E+00
   0.4962454546647550E+00
   0.5226154964290376E+00
   0.5038881743640216E+00
   0.5646883608655651E+00
   0.5247509156754731E+00
   0.4991466119915609E+00
   0.5730561901772975E+00
   0.5696051097252811E+00
   0.3737941449230334E+00
   0.3998658126316422E+00
   0.5599326587120286E+00
   0.5564587630586182E+00
   0.4942627333359175E+00
   0.4948659466662879E+00
   0.4925735874354210E+00
   0.4914269544069421E+00
   0.5162356850217128E+00
   0.5361798304681075E+00
   0.4947413361545683E+00
   0.4524112209674170E+00
   0.5128777325052251E+00
   0.5117942039910411E+00
   0.4783517512905315E+00
   0.4931696659544754E+00
   0.4603173600798832E+00
   0.5244892721906146E+00
   0.5297434247711936E+00
   0.5129579300226623E+00
   0.5328358318122708E+00
   0.5308941036050395E+00
   0.5309856169189046E+00
   0.5063656735044535E+00
   0.5282461955721985E+00
   0.5410312729376618E+00
   0.5361261481607241E+00
   0.5374105274979465E+00
   0.4965364819197856E+00
   0.4975340904445298E+00
   0.4963842645024765E+00
   0.4955220268094732E+00
   0.4904581831978355E+00
   0.4903044386261237E+00
   0.4862182765000881E+00
   0.4854049562887724E+00
   0.4932164388826557E+00
   0.4909833313232256E+00
   0.4832194697486729E+00
   0.4872622778803126E+00
   0.4880124911579508E+00
   0.4872445933192631E+00
   0.4882696670356242E+00
   0.4952597557222890E+00
   0.4900967168836576E+00
   0.4904000091651061E+00
   0.4944232926376814E+00
   0.4868002482144126E+00
   0.4892385985086523E+00
   0.4881393371043382E+00
   0.4878457830222978E+00
   0.4446866579909439E+00
   0.4700028782306359E+00
   0.4891999057382375E+00
   0.4885247844517981E+00
   0.4506533051109669E+00
   0.4687378567294395E+00
   0.4877010457629372E+00
   0.4868353684139110E+00
   0.4908994716673610E+00
   0.4793551577919516E+00
   0.4658071748504122E+00
   0.3792725229418507E+00
   0.4901596531339411E+00
   0.4486686692374384E+00
   0.4436137392281824E+00
   0.4845147242263677E+00
   0.4621822646885155E+00
   0.4665749536152010E+00
   0.4748140300737795E+00
   0.4894494212950255E+00
   0.5085556973605205E+00
   0.4315073873998519E+00
   0.4927349361814283E+00
   0.5318289233984923E+00
   0.4913399196745580E+00
   0.5207019993288301E+00
   0.5060964599849122E+00
   0.5688797395003641E+00
   0.5273992817876824E+00
   0.5015044841910410E+00
   0.5821790087024223E+00
   0.5689618253032840E+00
   0.3406394441886276E+00
   0.3789869412824614E+00
   0.5751958206288657E+00
   0.5666485492998715E+00
   0.5704108783118884E+00
   0.5291056376347399E+00
   0.5451902711263277E+00
   0.5718804315125220E+00
   0.5389079126432104E+00
   0.5475507505058105E+00
   0.5821713868472228E+00
   0.4925601785047699E+00
   0.5042157546703488E+00
   0.4961735436778256E+00
   0.5565207962880202E+00
   0.4758845210021843E+00
   0.4950268384191727E+00
   0.5498525443431341E+00
   0.5891202296627777E+00
   0.5841957609146542E+00
   0.5469097664393926E+00
   0.5805417617626315E+00
   0.5106251438731416E+00
   0.5030200513539439E+00
   0.5033624680100706E+00
   0.5676446096037280E+00
   0.5563943082708359E+00
   0.4947255973907947E+00
   0.5505243828771982E+00
   0.5510857280955180E+00
   0.5657350949720066E+00
   0.4920070018339276E+00
   0.4927299097208829E+00
   0.3865140568525355E+00
   0.3687754532595541E+00
   0.5574921717266373E+00
   0.5763755545467387E+00
   0.4194304390006205E+00
   0.5824843240485026E+00
   0.4265209609080288E+00
   0.5392799844244485E+00
   0.5012032759540878E+00
   0.5119513208011988E+00
   0.5049119464003305E+00
   0.5751974973370098E+00
   0.5876371360224251E+00
   0.5379907807111376E+00
   0.5677472539992747E+00
   0.5351248666059188E+00
   0.5338056379045466E+00
   0.5580313798155102E+00
   0.5512707862173801E+00
   0.4261852756312208E+00
   0.5273356177777588E+00
   0.5795712529580048E+00
   0.3318687133063341E+00
   0.4760283324405332E+00
   0.5446196254139529E+00
   0.4798331900891669E+00
   0.3005293508222825E+00
   0.5031051138580036E+00
   0.5017115978173192E+00
   0.5129033211001779E+00
   0.5414840107891565E+00
   0.3437603854397438E+00
   0.3397710716083324E+00
   0.3189928570684774E+00
   0.5065936052343488E+00
   0.5123483780051142E+00
   0.5330313519143905E+00
   0.5879310000169843E+00
   0.4644180532964630E+00
   0.3531270508835983E+00
SCALARS v double 1
LOOKUP_TABLE default
   0.0000000000000000E+00
   0.0000000000000000E+00
   0.0000000000000000E+00
   0.0000000000000000E+00
   0.0000000000000000E+00
   0.0000000000000000E+00
   0.0000000000000000E+00
   0.0000000000000000E+00
   0.0000000000000000E+00
   0.0000000000000000E+00
   0.0000000000000000E+00
   0.0000000000000000E+00
   0.0000000000000000E+00
   0.0000000000000000E+00
   0.0000000000000000E+00
   0.0000000000000000E+00
   0.0000000000000000E+00
   0.0000000000000000E+00
   0.0000000000000000E+00
   0.0000000000000000E+00
   0.0000000000000000E+00
   0.0000000000000000E+00
   0.0000000000000000E+00
   0.0000000000000000E+00
   0.0000000000000000E+00
   0.0000000000000000E+00
   0.0000000000000000E+00
   0.0000000000000000E+00
   0.0000000000000000E+00
   0.0000000000000000E+00
   0.0000000000000000E+00
   0.0000000000000000E+00
   0.0000000000000000E+00
   0.0000000000000000E+00
   0.0000000000000000E+00
   0.0000000000000000E+00
   0.0000000000000000E+00
   0.0000000000000000E+00
   0.0000000000000000E+00
   0.0000000000000000E+00
   0.0000000000000000E+00
   0.0000000000000000E+00
   0.0000000000000000E+00
   0.0000000000000000E+00
   0.0000000000000000E+00
   0.0000000000000000E+00
   0.0000000000000000E+00
   0.0000000000000000E+00
   0.0000000000000000E+00
   0.0000000000000000E+00
   0.0000000000000000E+00
   0.0000000000000000E+00
   0.0000000000000000E+00
   0.0000000000000000E+00
   0.0000000000000000E+00
   0.0000000000000000E+00
   0.0000000000000000E+00
   0.0000000000000000E+00
   0.0000000000000000E+00
   0.0000000000000000E+00
   0.0000000000000000E+00
   0.7970254931321081E-03
  -0.1329294648704710E-02
  -0.1332592731718669E-02
   0.0000000000000000E+00
   0.0000000000000000E+00
   0.0000000000000000E+00
   0.0000000000000000E+00
  -0.1922562572918199E-01
   0.4770618039838527E-03
   0.2183360165333965E-02
   0.1427333026820121E-01
  -0.6488282170493036E-02
  -0.7821622859561837E-02
  -0.1327725055200147E-01
   0.4914481781142068E-02
   0.6907121582842032E-03
   0.3434418414568034E-02
   0.1920847371195870E-02
   0.3147960218295529E-02
   0.1704778350809441E-02
  -0.7316187383793235E-02
  -0.7701900952709378E-04
   0.4468737998418782E-02
  -0.4387156226684333E-03
  -0.6383742524388206E-04
  -0.1963394591638560E-03
   0.8071268004459036E-03
   0.0000000000000000E+00
   0.0000000000000000E+00
   0.0000000000000000E+00
   0.0000000000000000E+00
   0.4257020538284109E-03
   0.1616304630942189E-02
  -0.1297550940577304E-02
  -0.1022774943969625E-02
  -0.2134342364756320E-02
  -0.1064012612856422E-02
  -0.8200064085083349E-03
  -0.7617032845875467E-03
   0.5202259063248139E-04
  -0.6244091770817893E-03
   0.7916469168638368E-03
  -0.1745238504453998E-02
   0.2747128690367842E-03
  -0.8939747123973458E-04
  -0.9424310086963408E-03
  -0.1100227505761112E-02
   0.0000000000000000E+00
   0.0000000000000000E+00
   0.0000000000000000E+00
  -0.1061759105096120E-02
  -0.7641129344145786E-02
   0.1860854752045529E-01
  -0.2834553424983802E-04
  -0.1383129143516457E-02
  -0.2035122964749708E-02
  -0.5666383175860669E-02
  -0.1585210196317272E-02
  -0.5947016651052323E-02
  -0.4160602000111619E-02
   0.1565614845159776E-02
   0.3329524840349241E-01
   0.3055140770036922E-04
  -0.2766884884960096E-02
   0.3566484708078504E-02
   0.3596189471967239E-03
   0.0000000000000000E+00
   0.0000000000000000E+00
   0.0000000000000000E+00
   0.0000000000000000E+00
   0.0000000000000000E+00
   0.0000000000000000E+00
   0.0000000000000000E+00
   0.0000000000000000E+00
   0.0000000000000000E+00
   0.0000000000000000E+00
   0.0000000000000000E+00
   0.0000000000000000E+00
   0.0000000000000000E+00
   0.0000000000000000E+00
   0.0000000000000000E+00
   0.0000000000000000E+00
   0.0000000000000000E+00
   0.5047032570474905E-02
   0.3230791929571621E-02
   0.8149134274840703E-02
   0.6168366979044288E-02
   0.1122928638370560E-01
   0.1429277501883528E-01
  -0.2038826628586636E-03
   0.5118221820344744E-02
   0.2914950541032584E-02
   0.3373611828608421E-02
   0.3728336430619384E-02
  -0.1465719870806837E-01
  -0.6159699943181843E-03
   0.6651630343914280E-02
   0.1542014279403572E-02
   0.1969646532727561E-02
   0.4266273525045808E-02
  -0.2790960930522031E-02
   0.1226887052776147E-02
   0.2819172480145422E-02
   0.1497449153105393E-02
   0.2575339043790498E-02
   0.2030646427870040E-02
   0.2118046065185310E-02
   0.8700410412365045E-02
  -0.3733397032681844E-02
   0.6241189083393836E-02
   0.2516488816078151E-04
  -0.3854044984412121E-03
  -0.1674679007791667E-01
  -0.4881976865243531E-02
  -0.4720000797244412E-02
   0.3445223058731775E-02
  -0.6135724097251288E-02
   0.9934521653723220E-04
  -0.3291372911761083E-01
  -0.3046196901112323E-02
   0.4722743108156719E-02
   0.9228367696713158E-03
   0.2112175222638174E-02
   0.4518755681286016E-02
   0.2720465268693296E-02
   0.3212576516742246E-02
   0.5200804217548319E-02
   0.1941838954256836E-02
   0.7315897218959473E-03
  -0.2555240956833607E-04
  -0.5374632810675611E-02
  -0.6959591033506075E-02
  -0.9443816142919765E-03
   0.1105268424319119E-02
  -0.2080554061054347E-02
  -0.3200035923561824E-02
  -0.2527833362899887E-02
  -0.4115193627667551E-02
  -0.7593954923409284E-02
  -0.1985686411592673E-02
   0.6240402715095428E-03
  -0.2239082029039953E-03
   0.1216949767470178E-02
  -0.3483958286307349E-02
   0.5229139955483451E-02
  -0.8487626024577009E-02
   0.2315168179722069E-04
  -0.3395193002952235E-03
   0.2542663547208663E-02
   0.1663457666526698E-02
   0.2021438709005040E-02
  -0.5620783963778940E-02
SCALARS w double 1
LOOKUP_TABLE default
   0.0000000000000000E+00
   0.0000000000000000E+00
   0.0000000000000000E+00
   0.0000000000000000E+00
   0.0000000000000000E+00
   0.0000000000000000E+00
   0.0000000000000000E+00
   0.0000000000000000E+00
   0.0000000000000000E+00
   0.0000000000000000E+00
   0.0000000000000000E+00
   0.0000000000000000E+00
   0.0000000000000000E+00
   0.0000000000000000E+00
   0.0000000000000000E+00
   0.0000000000000000E+00
   0.0000000000000000E+00
   0.0000000000000000E+00
   0.0000000000000000E+00
   0.0000000000000000E+00
   0.0000000000000000E+00
   0.0000000000000000E+00
   0.0000000000000000E+00
   0.0000000000000000E+00
   0.0000000000000000E+00
   0.0000000000000000E+00
   0.0000000000000000E+00
   0.0000000000000000E+00
   0.0000000000000000E+00
   0.0000000000000000E+00
   0.0000000000000000E+00
   0.0000000000000000E+00
   0.0000000000000000E+00
  -0.1007612292279048E+00
  -0.4249297142615174E-01
   0.7371985794177011E-03
   0.5725799869360371E-02
   0.5699057472502926E-03
   0.1609783096972936E-02
   0.3375073026271988E-02
   0.2371773644640835E-02
   0.4590624755833637E-03
   0.3518225889450553E-02
   0.4521817574639909E-01
   0.6522937802887230E-01
   0.8689296927289097E-03
  -0.2261151845998580E-01
   0.4316553524299973E-02
   0.1358734834158775E-01
   0.1039452549840926E-01
   0.4900548405071337E-01
   0.2437443508719872E-02
  -0.6509941129235732E-02
  -0.7012227671525212E-03
   0.3411016317614592E-03
   0.3904107317630407E-02
  -0.3893254317655634E-01
   0.1798168099931788E-01
   0.1119638186726922E-01
   0.3403773249919696E-01
   0.8438810189566676E-02
   0.4937312191220794E-02
   0.4970345530796246E-02
   0.4871517428687430E-02
   0.6027191732871013E-02
   0.2599191756355215E-02
  -0.4144429610435432E-01
  -0.9954261890463535E-01
  -0.1121678224462135E+00
   0.5070875029174021E-02
   0.4230770643655191E-02
  -0.1004732307837433E+00
  -0.9895252533618693E-01
  -0.9875450984068210E-01
  -0.9462509641521472E-01
  -0.6807133849383940E-01
   0.5154922165487724E-02
  -0.1935330756387413E-01
  -0.1575800300154160E-01
  -0.6002862439136262E-02
   0.6819057329499004E-02
  -0.8010050829413699E-01
  -0.2781092467768462E-01
  -0.8096457379378967E-01
  -0.5873277574882597E-01
   0.3083625680954362E-02
   0.2685146468101701E-02
   0.2640431178386010E-02
   0.3450191916143643E-02
   0.4007083781083688E-02
   0.1201214296232214E-02
  -0.1438846555808503E-03
   0.2039877240486409E-02
   0.4895693603553451E-02
   0.3857385595960021E-02
   0.1114201968040282E-02
   0.1182682014440179E-02
   0.1465296190019325E-02
  -0.1653639133449661E-04
   0.8996623726361946E-04
   0.4386667861066952E-02
   0.2715724234822095E-02
   0.2322755295314360E-02
   0.5010601029323531E-02
   0.1071689353955540E-02
   0.2712217713749745E-02
   0.2013964080577433E-02
   0.2879087014597206E-04
   0.8374614275212129E-01
   0.2793870712442460E-02
  -0.8346628106671986E-03
  -0.1492945463424171E-03
   0.1409540840352475E+00
   0.1239332954775122E+00
  -0.1219093296410243E-02
  -0.4381936073319401E-02
  -0.3043057804183292E-03
  -0.6512246802881038E-02
  -0.1949570315035384E-02
   0.1557630974710549E+00
   0.7489979192654406E-01
   0.2550174902557608E-01
   0.1656445120614819E+00