title="tecplot geometry and solution file"
variables = x y z rho u v w p mach temperature
zone t="boundary 1 bc-1", solutiontime= 0.4000000E+02, strandid=1001, i=32, j=46, f=feblock
  0.000000000000E+00  0.000000000000E+00  0.000000000000E+00  0.000000000000E+00  0.000000000000E+00  0.000000000000E+00  0.000000000000E+00
  0.000000000000E+00  0.000000000000E+00  0.000000000000E+00  0.000000000000E+00  0.000000000000E+00  0.000000000000E+00  0.000000000000E+00
  0.000000000000E+00  0.000000000000E+00  0.000000000000E+00  0.000000000000E+00  0.000000000000E+00  0.000000000000E+00  0.000000000000E+00
  0.000000000000E+00  0.000000000000E+00  0.000000000000E+00  0.000000000000E+00  0.000000000000E+00  0.000000000000E+00  0.000000000000E+00
  0.000000000000E+00  0.000000000000E+00  0.000000000000E+00  0.000000000000E+00
  0.250000000000E+01  0.250000000000E+01  0.125000000000E+01  0.146289271009E+01  0.157686156160E+01  0.308372018325E+00  0.000000000000E+00
 -0.125000000000E+01 -0.600232012419E+00  0.250000000000E+01  0.477386199275E+00  0.742988685424E+00 -0.739814786992E+00  0.177790177481E+01
  0.155830813274E+01  0.250000000000E+01 -0.250000000000E+01 -0.154800130438E+01 -0.487811078581E+00  0.250000000000E+01  0.627766083140E+00
 -0.345533899378E+00 -0.178862290564E+01 -0.158811787973E+01  0.125000000000E+01 -0.250000000000E+01 -0.144524380962E+01  0.000000000000E+00
 -0.125000000000E+01 -0.250000000000E+01 -0.250000000000E+01 -0.250000000000E+01
  0.000000000000E+00  0.125000000000E+01  0.000000000000E+00  0.103724302461E+01  0.219251206392E+01  0.922061490191E+00  0.000000000000E+00
  0.000000000000E+00  0.715990576545E+00  0.250000000000E+01  0.202479342020E+01  0.324151231464E+01  0.175434191980E+01  0.310152362409E+01
  0.404200324774E+01  0.375000000000E+01  0.000000000000E+00  0.930412228790E+00  0.299062775774E+01  0.500000000000E+01  0.429310310915E+01
  0.409252726285E+01  0.187029682677E+01  0.284428995242E+01  0.500000000000E+01  0.125000000000E+01  0.394624082883E+01  0.500000000000E+01
  0.500000000000E+01  0.250000000000E+01  0.375000000000E+01  0.500000000000E+01
  0.134427145168E+01  0.106355395269E+01  0.142583204464E+01  0.108608796606E+01  0.103229115001E+01  0.120095364422E+01  0.164466727371E+01
  0.149409063906E+01  0.123520366880E+01  0.102389313720E+01  0.102809523333E+01  0.101301828564E+01  0.103252946700E+01  0.101471891376E+01
  0.100663883723E+01  0.100830818653E+01  0.144945744631E+01  0.116393551622E+01  0.101462863634E+01  0.100426040726E+01  0.100679807566E+01
  0.100724553367E+01  0.104668118719E+01  0.101938460419E+01  0.100424800540E+01  0.106442281123E+01  0.100789341656E+01  0.100288844239E+01
  0.100334542183E+01  0.102847361775E+01  0.100958665592E+01  0.100399273860E+01
  0.000000000000E+00  0.445481420029E+00  0.000000000000E+00  0.468737854447E+00  0.462182267417E+00  0.443613740147E+00  0.000000000000E+00
  0.000000000000E+00  0.379272524357E+00  0.471738848914E+00  0.466574961426E+00  0.479355161226E+00  0.490159648506E+00  0.484514726277E+00
  0.488524773455E+00  0.489830200087E+00  0.000000000000E+00  0.450653322569E+00  0.474814037174E+00  0.495784876096E+00  0.490899460268E+00
  0.486835364559E+00  0.448668673166E+00  0.465807186747E+00  0.496536483283E+00  0.444686633710E+00  0.487701037205E+00  0.497534086481E+00
  0.496384260363E+00  0.470002882957E+00  0.489199908197E+00  0.495522029723E+00
  0.000000000000E+00  0.000000000000E+00  0.000000000000E+00  0.186085527101E-01 -0.276688295111E-02  0.332952468425E-01  0.000000000000E+00
  0.000000000000E+00 -0.594701810690E-02  0.000000000000E+00  0.356648593229E-02 -0.566637989935E-02 -0.416060364204E-02  0.305534801028E-04
 -0.106176516860E-02  0.000000000000E+00  0.000000000000E+00 -0.764112800915E-02  0.359619722117E-03  0.000000000000E+00 -0.203512850445E-02
 -0.138313243339E-02  0.156561564280E-02 -0.158521316269E-02 -0.638395944751E-04  0.000000000000E+00 -0.283450944849E-04 -0.196341516381E-03
  0.807127119605E-03  0.000000000000E+00  0.000000000000E+00  0.000000000000E+00
  0.000000000000E+00  0.452181798058E-01  0.000000000000E+00  0.123933293641E+00  0.247647189656E-01  0.165644511740E+00  0.000000000000E+00
  0.000000000000E+00  0.155763096838E+00  0.351822662252E-02  0.259783163209E-01 -0.651224842306E-02  0.748997895217E-01  0.371839405190E-02
 -0.149292013305E-03  0.459058868637E-03  0.000000000000E+00  0.140954083039E+00 -0.808565729525E-02  0.237176895544E-02 -0.304298823126E-03
 -0.438193699191E-02  0.255017504758E-01 -0.194957189332E-02  0.308362258833E-02  0.837461346263E-01 -0.121909288064E-02  0.268513920668E-02
  0.264043133624E-02  0.279386967258E-02 -0.834665072915E-03  0.345018555571E-02
  0.960184575965E+00  0.782340561572E+00  0.101844204955E+01  0.808726655821E+00  0.746125889760E+00  0.879446498756E+00  0.117475225537E+01
  0.106719924174E+01  0.916620146012E+00  0.737395237651E+00  0.743553970201E+00  0.725759209529E+00  0.757455248681E+00  0.729188341424E+00
  0.720785046013E+00  0.722781669274E+00  0.103531921462E+01  0.858317139541E+00  0.728065070035E+00  0.718615291822E+00  0.721013448122E+00
  0.721151586853E+00  0.760018783431E+00  0.732628400245E+00  0.718531161320E+00  0.791043236170E+00  0.722107947277E+00  0.717199386561E+00
  0.717636872611E+00  0.741799733784E+00  0.724056578427E+00  0.718400640072E+00
  0.000000000000E+00  0.441238352875E+00  0.000000000000E+00  0.475214984543E+00  0.460123711905E+00  0.468827816807E+00  0.000000000000E+00
  0.000000000000E+00  0.402302518343E+00  0.469814974197E+00  0.464411136941E+00  0.478714038093E+00  0.489298237729E+00  0.483068560316E+00
  0.487930062967E+00  0.488961666052E+00  0.000000000000E+00  0.464775737314E+00  0.473795659536E+00  0.495346580558E+00  0.490266092771E+00
  0.486286080370E+00  0.445717622274E+00  0.464382286576E+00  0.496127396365E+00  0.443624080890E+00  0.486964453740E+00  0.497246275787E+00
  0.496059266570E+00  0.467732360690E+00  0.488212090178E+00  0.495098267546E+00
  0.999990295612E+00  0.102982719723E+01  0.999990759591E+00  0.104247294283E+01  0.101190080497E+01  0.102520618026E+01  0.999991416995E+00
  0.999992168736E+00  0.103891223515E+01  0.100826277196E+01  0.101252833836E+01  0.100300548149E+01  0.102702865346E+01  0.100605563191E+01
  0.100244400186E+01  0.100355660154E+01  0.999992724287E+00  0.103239739540E+01  0.100459523962E+01  0.100179336084E+01  0.100260305594E+01
  0.100234966336E+01  0.101657153088E+01  0.100617544755E+01  0.100168844791E+01  0.104043291721E+01  0.100303376287E+01  0.100118726944E+01
  0.100134171123E+01  0.100976788259E+01  0.100405369252E+01  0.100176112579E+01
        12        19        11        11
        11         5        12        12
        10        14         5         5
        19        13        11        11
        19        24        13        13
        30        23        24        24
        19        12        22        22
        28        22        21        21
        11        13         6         6
         7         6         9         9
        15        12        14        14
        18        13        23        23
        15        25        21        21
        27        19        22        22
        18         8         9         9
        27        31        24        24
         4        11         6         6
         5        14        12        12
         4         2         5         5
        21        12        15        15
        14        16        15        15
        24        19        27        27
        22        29        27        27
        23        26        18        18
        17         8        18        18
         5        11         4         4
         6         3         4         4
        26        23        30        30
         5         2        10        10
        16        14        10        10
         3         6         7         7
        21        25        28        28
        29        22        28        28
         6        13         9         9
         2         4         1         1
        31        27        32        32
        25        15        20        20
        24        23        13        13
         8         7         9         9
        13        18         9         9
        31        30        24        24
        12        21        22        22
        29        32        27        27
         3         1         4         4
        26        17        18        18
        16        20        15        15
zone t="boundary 2 bc-2", solutiontime= 0.4000000E+02, strandid=1002, i=33, j=48, f=feblock
  0.500000000000E+01  0.375000000000E+01  0.250000000000E+01  0.288078410721E+01  0.125000000000E+01  0.190974100652E+01  0.326683758169E+01
  0.201431602454E+01  0.000000000000E+00  0.963108083381E+00  0.500000000000E+01  0.403552511878E+01  0.423153924130E+01  0.500000000000E+01
  0.385533350601E+01  0.500000000000E+01  0.398173246726E+01  0.315249557942E+01  0.267000324704E+01  0.154774304040E+01  0.218329375016E+01
  0.893127759452E+00  0.000000000000E+00  0.698517061619E+00  0.964171764089E+00  0.310324758057E+01  0.000000000000E+00  0.000000000000E+00
  0.125000000000E+01  0.500000000000E+01  0.375000000000E+01  0.250000000000E+01  0.000000000000E+00
 -0.250000000000E+01 -0.250000000000E+01 -0.250000000000E+01 -0.250000000000E+01 -0.250000000000E+01 -0.250000000000E+01 -0.250000000000E+01
 -0.250000000000E+01 -0.250000000000E+01 -0.250000000000E+01 -0.250000000000E+01 -0.250000000000E+01 -0.250000000000E+01 -0.250000000000E+01
 -0.250000000000E+01 -0.250000000000E+01 -0.250000000000E+01 -0.250000000000E+01 -0.250000000000E+01 -0.250000000000E+01 -0.250000000000E+01
 -0.250000000000E+01 -0.250000000000E+01 -0.250000000000E+01 -0.250000000000E+01 -0.250000000000E+01 -0.250000000000E+01 -0.250000000000E+01
 -0.250000000000E+01 -0.250000000000E+01 -0.250000000000E+01 -0.250000000000E+01 -0.250000000000E+01
  0.000000000000E+00  0.000000000000E+00  0.000000000000E+00  0.904659890645E+00  0.000000000000E+00  0.717002441913E+00  0.188609243358E+01
  0.176246431481E+01  0.000000000000E+00  0.961328577125E+00  0.125000000000E+01  0.101201586758E+01  0.191586535653E+01  0.250000000000E+01
  0.293121848150E+01  0.375000000000E+01  0.406975391361E+01  0.363585050272E+01  0.285047954584E+01  0.292817774674E+01  0.395907379566E+01
  0.205246550326E+01  0.125000000000E+01  0.306828197606E+01  0.397245519226E+01  0.433168271247E+01  0.250000000000E+01  0.375000000000E+01
  0.500000000000E+01  0.500000000000E+01  0.500000000000E+01  0.500000000000E+01  0.500000000000E+01
  0.830787409091E+00  0.935297260116E+00  0.934221979832E+00  0.968087714351E+00  0.961719525213E+00  0.964848339049E+00  0.984136205519E+00
  0.991412447099E+00  0.144945744631E+01  0.102921689013E+01  0.955878716064E+00  0.960692948027E+00  0.981487966183E+00  0.100642908935E+01
  0.997912114813E+00  0.100977868831E+01  0.100199484816E+01  0.998063219069E+00  0.991085841017E+00  0.100132719293E+01  0.100094599989E+01
  0.101224609744E+01  0.106442281123E+01  0.101082189979E+01  0.100685257802E+01  0.100118412837E+01  0.102847361775E+01  0.100958665592E+01
  0.100510171181E+01  0.100179475084E+01  0.100266311894E+01  0.100321164483E+01  0.100399273860E+01
  0.000000000000E+00  0.000000000000E+00  0.000000000000E+00  0.378986938727E+00  0.000000000000E+00  0.340639446237E+00  0.582179008172E+00
  0.575195822353E+00  0.000000000000E+00  0.489449421739E+00  0.494741308199E+00  0.431507394636E+00  0.568961809665E+00  0.536179840808E+00
  0.568879734169E+00  0.516235691345E+00  0.508555819159E+00  0.527399314333E+00  0.566648556741E+00  0.531828935084E+00  0.506096475877E+00
  0.520701996886E+00  0.444686633710E+00  0.491339928798E+00  0.492734940171E+00  0.501504526396E+00  0.470002882957E+00  0.489199908197E+00
  0.490458154939E+00  0.491426965690E+00  0.486218274458E+00  0.490304429988E+00  0.495522029723E+00
  0.000000000000E+00  0.000000000000E+00  0.000000000000E+00  0.000000000000E+00  0.000000000000E+00  0.000000000000E+00  0.000000000000E+00
  0.000000000000E+00  0.000000000000E+00  0.000000000000E+00  0.000000000000E+00  0.000000000000E+00  0.000000000000E+00  0.000000000000E+00
  0.000000000000E+00  0.000000000000E+00  0.000000000000E+00  0.000000000000E+00  0.000000000000E+00  0.000000000000E+00  0.000000000000E+00
  0.000000000000E+00  0.000000000000E+00  0.000000000000E+00  0.000000000000E+00  0.000000000000E+00  0.000000000000E+00  0.000000000000E+00
  0.000000000000E+00  0.000000000000E+00  0.000000000000E+00  0.000000000000E+00  0.000000000000E+00
  0.000000000000E+00  0.000000000000E+00  0.000000000000E+00 -0.229668911685E-02  0.000000000000E+00  0.183565263505E-01  0.121122198974E-01
  0.454986554732E-01  0.000000000000E+00  0.870789625659E-01 -0.995426037522E-01 -0.211865034922E-01 -0.306441332896E-01 -0.414442969463E-01
 -0.137879741390E-02  0.259922297982E-02  0.609520972911E-03  0.503605173030E-03  0.150967389009E-01  0.284025712048E-01  0.564165142326E-02
  0.553419850882E-01  0.837461346263E-01  0.110441033594E-01  0.679168606214E-02 -0.758102071547E-03  0.279386967258E-02 -0.834665072915E-03
  0.400707431570E-02  0.602725411545E-02 -0.143896457139E-03  0.120117123658E-02  0.345018555571E-02
  0.593415713309E+00  0.668065256775E+00  0.667297105598E+00  0.684257572259E+00  0.686937804772E+00  0.679201333788E+00  0.695811644791E+00
  0.702343850569E+00  0.103531921462E+01  0.723694675128E+00  0.672591699676E+00  0.675702735307E+00  0.694093187776E+00  0.720959953183E+00
  0.712691285927E+00  0.724770860567E+00  0.716580556618E+00  0.713298977934E+00  0.706429553919E+00  0.717737236750E+00  0.715376597426E+00
  0.730937672596E+00  0.791043236170E+00  0.724372845201E+00  0.721010715894E+00  0.715457525770E+00  0.741799733784E+00  0.724056578427E+00
  0.719312936937E+00  0.715892793398E+00  0.716608872418E+00  0.717367929008E+00  0.718400640072E+00
  0.000000000000E+00  0.000000000000E+00  0.000000000000E+00  0.380991904562E+00  0.000000000000E+00  0.343629828821E+00  0.585286158602E+00
  0.579373267064E+00  0.000000000000E+00  0.501056068745E+00  0.508460334613E+00  0.435373040840E+00  0.572640026749E+00  0.537002107418E+00
  0.568922544335E+00  0.514994098664E+00  0.508247389265E+00  0.527252886115E+00  0.567446670860E+00  0.531657156235E+00  0.505981032698E+00
  0.520795577679E+00  0.443624080890E+00  0.490663739937E+00  0.492155878465E+00  0.501390828419E+00  0.467732360690E+00  0.488212090178E+00
  0.490002738258E+00  0.491352316906E+00  0.486075474406E+00  0.490036474148E+00  0.495098267546E+00
  0.999993487554E+00  0.999993691171E+00  0.999993543296E+00  0.989539054119E+00  0.999993138819E+00  0.985524697322E+00  0.989838903644E+00
  0.991798512994E+00  0.999992724287E+00  0.984411113828E+00  0.985091898922E+00  0.984689053222E+00  0.990058458551E+00  0.100289622502E+01
  0.999855383542E+00  0.100485305992E+01  0.100121550636E+01  0.100055642772E+01  0.997896786086E+00  0.100350029296E+01  0.100058068718E+01
  0.101093276054E+01  0.104043291721E+01  0.100326475267E+01  0.100254498453E+01  0.100045586790E+01  0.100976788259E+01  0.100405369252E+01
  0.100192657109E+01  0.100045434448E+01  0.100058773723E+01  0.100109992322E+01  0.100176112579E+01
        15         7        19        19
         8        20        19        19
        18        19        21        21
         7         4         8         8
         3         6         4         4
        19         7         8         8
        19        18        15        15
        14        13        15        15
         8        22        20        20
        27        24        22        22
        19        20        21        21
        32        26        21        21
        17        18        26        26
        17        16        15        15
        25        29        21        21
        12         7        13        13
        10         8         6         6
        25        20        24        24
         4         6         8         8
        12         2         4         4
        10        23        22        22
        26        31        17        17
        30        16        17        17
         4         7        12        12
        13        11        12        12
        21        20        25        25
        24        28        25        25
        22         8        10        10
         6         5        10        10
        31        26        32        32
         4         2         3         3
         5         6         3         3
        11        13        14        14
        22        23        27        27
        28        24        27        27
        15        13         7         7
         2        12         1         1
        29        25        33        33
        23        10         9         9
        21        26        18        18
        16        14        15        15
        18        17        15        15
        29        32        21        21
        22        24        20        20
        28        33        25        25
        11         1        12        12
        31        30        17        17
         5         9        10        10
zone t="boundary 3 bc-3", solutiontime= 0.4000000E+02, strandid=1003, i=33, j=48, f=feblock
  0.375000000000E+01  0.250000000000E+01  0.500000000000E+01  0.403552511878E+01  0.288078410721E+01  0.125000000000E+01  0.190974100652E+01
  0.500000000000E+01  0.326683758169E+01  0.423153924130E+01  0.201431602454E+01  0.000000000000E+00  0.963108083381E+00  0.500000000000E+01
  0.267000324704E+01  0.385533350601E+01  0.893127759452E+00  0.154774304040E+01  0.000000000000E+00  0.500000000000E+01  0.315249557942E+01
  0.218329375016E+01  0.398173246726E+01  0.000000000000E+00  0.698517061619E+00  0.964171764089E+00  0.125000000000E+01  0.000000000000E+00
  0.500000000000E+01  0.310324758057E+01  0.250000000000E+01  0.375000000000E+01  0.000000000000E+00
  0.250000000000E+01  0.250000000000E+01  0.250000000000E+01  0.250000000000E+01  0.250000000000E+01  0.250000000000E+01  0.250000000000E+01
  0.250000000000E+01  0.250000000000E+01  0.250000000000E+01  0.250000000000E+01  0.250000000000E+01  0.250000000000E+01  0.250000000000E+01
  0.250000000000E+01  0.250000000000E+01  0.250000000000E+01  0.250000000000E+01  0.250000000000E+01  0.250000000000E+01  0.250000000000E+01
  0.250000000000E+01  0.250000000000E+01  0.250000000000E+01  0.250000000000E+01  0.250000000000E+01  0.250000000000E+01  0.250000000000E+01
  0.250000000000E+01  0.250000000000E+01  0.250000000000E+01  0.250000000000E+01  0.250000000000E+01
  0.000000000000E+00  0.000000000000E+00  0.000000000000E+00  0.101201586758E+01  0.904659890645E+00  0.000000000000E+00  0.717002441913E+00
  0.125000000000E+01  0.188609243358E+01  0.191586535653E+01  0.176246431481E+01  0.000000000000E+00  0.961328577125E+00  0.250000000000E+01
  0.285047954584E+01  0.293121848150E+01  0.205246550326E+01  0.292817774674E+01  0.125000000000E+01  0.375000000000E+01  0.363585050272E+01
  0.395907379566E+01  0.406975391361E+01  0.250000000000E+01  0.306828197606E+01  0.397245519226E+01  0.500000000000E+01  0.375000000000E+01
  0.500000000000E+01  0.433168271247E+01  0.500000000000E+01  0.500000000000E+01  0.500000000000E+01
  0.941861278109E+00  0.946296412164E+00  0.843730530452E+00  0.964331300649E+00  0.978820819948E+00  0.956975888603E+00  0.983331396681E+00
  0.963500546572E+00  0.982689288804E+00  0.984244007220E+00  0.990263805368E+00  0.134427145168E+01  0.101918251613E+01  0.100829901692E+01
  0.993456152118E+00  0.997998675038E+00  0.100807808273E+01  0.100072116071E+01  0.106355395269E+01  0.100673528645E+01  0.100058356032E+01
  0.100234980417E+01  0.100178078381E+01  0.102389313720E+01  0.100874208199E+01  0.100528370715E+01  0.100522859497E+01  0.100830818653E+01
  0.100196466890E+01  0.100162011130E+01  0.100413203155E+01  0.100321958506E+01  0.100426040726E+01
  0.000000000000E+00  0.000000000000E+00  0.000000000000E+00  0.439071219632E+00  0.399865796541E+00  0.000000000000E+00  0.373794139355E+00
  0.495017408952E+00  0.573056194335E+00  0.569605084756E+00  0.559932666892E+00  0.000000000000E+00  0.483390702942E+00  0.533822151455E+00
  0.556458768862E+00  0.564688347735E+00  0.522615499162E+00  0.522533043562E+00  0.445481420029E+00  0.518326868876E+00  0.524750893846E+00
  0.503888155828E+00  0.509839691037E+00  0.471738848914E+00  0.496245460621E+00  0.494940393068E+00  0.489076365306E+00  0.489830200087E+00
  0.493065117389E+00  0.499146578361E+00  0.486766687189E+00  0.484758134307E+00  0.495784876096E+00
  0.000000000000E+00  0.000000000000E+00  0.000000000000E+00  0.000000000000E+00  0.000000000000E+00  0.000000000000E+00  0.000000000000E+00
  0.000000000000E+00  0.000000000000E+00  0.000000000000E+00  0.000000000000E+00  0.000000000000E+00  0.000000000000E+00  0.000000000000E+00
  0.000000000000E+00  0.000000000000E+00  0.000000000000E+00  0.000000000000E+00  0.000000000000E+00  0.000000000000E+00  0.000000000000E+00
  0.000000000000E+00  0.000000000000E+00  0.000000000000E+00  0.000000000000E+00  0.000000000000E+00  0.000000000000E+00  0.000000000000E+00
  0.000000000000E+00  0.000000000000E+00  0.000000000000E+00  0.000000000000E+00  0.000000000000E+00
  0.000000000000E+00  0.000000000000E+00  0.000000000000E+00 -0.226115390867E-01  0.111963784470E-01  0.000000000000E+00  0.179816812436E-01
 -0.100761166513E+00  0.390410963611E-02 -0.389325100307E-01  0.340377348745E-01  0.000000000000E+00  0.652293809336E-01 -0.424929263764E-01
  0.843880706214E-02 -0.650992515284E-02  0.490054863740E-01  0.135873402048E-01  0.452181798058E-01  0.737187916476E-03 -0.701209369405E-03
  0.243744178287E-02  0.868952838390E-03  0.351822662252E-02  0.103945232484E-01  0.431655185647E-02  0.337507097617E-02  0.459058868637E-03
  0.572581290411E-02  0.341134827391E-03  0.160978875786E-02  0.569844348972E-03  0.237176895544E-02
  0.672750885967E+00  0.675918851704E+00  0.602658414036E+00  0.676093764167E+00  0.691308917197E+00  0.683547252874E+00  0.690066484372E+00
  0.677274957413E+00  0.695201830542E+00  0.696250879993E+00  0.703344069741E+00  0.960184575965E+00  0.719726359205E+00  0.722866634567E+00
  0.709447754573E+00  0.713700947677E+00  0.726067413129E+00  0.716602920156E+00  0.782340561572E+00  0.722284526540E+00  0.716128633760E+00
  0.716551643174E+00  0.716546536903E+00  0.737395237651E+00  0.722682909436E+00  0.719441261388E+00  0.719566087642E+00  0.722781669274E+00
  0.716030233802E+00  0.715847819542E+00  0.718146761350E+00  0.717062457438E+00  0.718615291822E+00
  0.000000000000E+00  0.000000000000E+00  0.000000000000E+00  0.443767766812E+00  0.402286945954E+00  0.000000000000E+00  0.377550362062E+00
  0.509231871573E+00  0.575832177493E+00  0.573707384860E+00  0.562554069222E+00  0.000000000000E+00  0.490563298851E+00  0.534527112618E+00
  0.556586988807E+00  0.564391561267E+00  0.522730520439E+00  0.522052007529E+00  0.441238352875E+00  0.517182276695E+00  0.524228609928E+00
  0.503687438526E+00  0.509488520207E+00  0.469814974197E+00  0.495614448482E+00  0.494483777304E+00  0.488562435984E+00  0.488961666052E+00
  0.492980868950E+00  0.499005516502E+00  0.486460983308E+00  0.484597194983E+00  0.495346580558E+00
  0.999989342639E+00  0.999989411587E+00  0.999989628440E+00  0.981541581402E+00  0.988773904633E+00  0.999989827770E+00  0.982469472024E+00
  0.984104206014E+00  0.990427568355E+00  0.990355262353E+00  0.994363009432E+00  0.999990295612E+00  0.988652068635E+00  0.100368370038E+01
  0.999769193924E+00  0.100118502333E+01  0.100834885293E+01  0.100252110939E+01  0.102982719723E+01  0.100443319189E+01  0.100199536252E+01
  0.100082056810E+01  0.100138190698E+01  0.100826277196E+01  0.100298787101E+01  0.100192389351E+01  0.100215267228E+01  0.100355660154E+01
  0.100047672182E+01  0.100056591920E+01  0.100126819412E+01  0.100066571203E+01  0.100179336084E+01
        15         9        16        16
        15        18        11        11
        22        15        21        21
        11         5         9         9
         5         7         2         2
        11         9        15        15
        16        21        15        15
        16        10        14        14
        18        17        11        11
        17        25        24        24
        22        18        15        15
        22        30        31        31
        30        21        23        23
        16        20        23        23
        22        27        26        26
        10         9         4         4
         7        11        13        13
        25        18        26        26
        11         7         5         5
         5         1         4         4
        17        19        13        13
        23        32        30        30
        23        20        29        29
         4         9         5         5
         4         8        10        10
        26        18        22        22
        26        28        25        25
        13        11        17        17
        13         6         7         7
        31        30        32        32
         2         1         5         5
         2         7         6         6
        14        10         8         8
        24        19        17        17
        24        25        28        28
         9        10        16        16
         3         4         1         1
        33        26        27        27
        12        13        19        19
        21        30        22        22
        16        14        20        20
        16        23        21        21
        22        31        27        27
        18        25        17        17
        26        33        28        28
         4         3         8         8
        23        29        32        32
        13        12         6         6
zone t="boundary 4 bc-4", solutiontime= 0.4000000E+02, strandid=1004, i=32, j=46, f=feblock
  0.125000000000E+01  0.219251206392E+01  0.103724302461E+01  0.500000000000E+01  0.250000000000E+01  0.375000000000E+01  0.404200324774E+01
  0.500000000000E+01  0.000000000000E+00  0.310152362409E+01  0.202479342020E+01  0.324151231464E+01  0.922061490191E+00  0.000000000000E+00
  0.299062775774E+01  0.394624082883E+01  0.500000000000E+01  0.409252726285E+01  0.500000000000E+01  0.429310310915E+01  0.175434191980E+01
  0.284428995242E+01  0.000000000000E+00  0.000000000000E+00  0.715990576545E+00  0.930412228790E+00  0.125000000000E+01  0.187029682677E+01
  0.500000000000E+01  0.375000000000E+01  0.250000000000E+01  0.000000000000E+00
  0.250000000000E+01  0.157686156160E+01  0.146289271009E+01  0.250000000000E+01  0.250000000000E+01  0.250000000000E+01  0.155830813274E+01
  0.125000000000E+01  0.250000000000E+01  0.177790177481E+01  0.477386199275E+00  0.742988685424E+00  0.308372018325E+00  0.125000000000E+01
 -0.487811078581E+00 -0.144524380962E+01 -0.125000000000E+01 -0.345533899378E+00  0.000000000000E+00  0.627766083140E+00 -0.739814786992E+00
 -0.158811787973E+01  0.000000000000E+00 -0.125000000000E+01 -0.600232012419E+00 -0.154800130438E+01 -0.250000000000E+01 -0.178862290564E+01
 -0.250000000000E+01 -0.250000000000E+01 -0.250000000000E+01 -0.250000000000E+01
  0.500000000000E+01  0.500000000000E+01  0.500000000000E+01  0.500000000000E+01  0.500000000000E+01  0.500000000000E+01  0.500000000000E+01
  0.500000000000E+01  0.500000000000E+01  0.500000000000E+01  0.500000000000E+01  0.500000000000E+01  0.500000000000E+01  0.500000000000E+01
  0.500000000000E+01  0.500000000000E+01  0.500000000000E+01  0.500000000000E+01  0.500000000000E+01  0.500000000000E+01  0.500000000000E+01
  0.500000000000E+01  0.500000000000E+01  0.500000000000E+01  0.500000000000E+01  0.500000000000E+01  0.500000000000E+01  0.500000000000E+01
  0.500000000000E+01  0.500000000000E+01  0.500000000000E+01  0.500000000000E+01
  0.100522859497E+01  0.100432970613E+01  0.100432033562E+01  0.100196466890E+01  0.100413203155E+01  0.100321958506E+01  0.100258621566E+01
  0.100201176942E+01  0.100426040726E+01  0.100372311445E+01  0.100446501478E+01  0.100346948556E+01  0.100365984153E+01  0.100424800540E+01
  0.100362337155E+01  0.100164187639E+01  0.100227629277E+01  0.100227307816E+01  0.100213446098E+01  0.100254342934E+01  0.100442384599E+01
  0.100337262213E+01  0.100288844239E+01  0.100334542183E+01  0.100323222664E+01  0.100406087326E+01  0.100510171181E+01  0.100431306251E+01
  0.100179475084E+01  0.100266311894E+01  0.100321164483E+01  0.100399273860E+01
  0.489076365306E+00  0.489238645643E+00  0.490983350787E+00  0.493065117389E+00  0.486766687189E+00  0.484758134307E+00  0.485405274014E+00
  0.494262909362E+00  0.495784876096E+00  0.486800373435E+00  0.488139374584E+00  0.487244732811E+00  0.494423309796E+00  0.496536483283E+00
  0.487845849150E+00  0.483219501393E+00  0.492573615367E+00  0.487262431041E+00  0.494866055972E+00  0.488012747694E+00  0.490096725427E+00
  0.488269664015E+00  0.497534086481E+00  0.496384260363E+00  0.495259765840E+00  0.493216444648E+00  0.490458154939E+00  0.490399993917E+00
  0.491426965690E+00  0.486218274458E+00  0.490304429988E+00  0.495522029723E+00
  0.000000000000E+00 -0.893844082898E-04 -0.129754349951E-02  0.000000000000E+00  0.000000000000E+00  0.000000000000E+00  0.425650470551E-03
  0.796987643286E-03  0.000000000000E+00  0.274721879936E-03 -0.942409158853E-03 -0.819935575444E-03 -0.174524228584E-02 -0.638395944751E-04
 -0.110015121081E-02 -0.102270859011E-02 -0.133249460742E-02 -0.213420496648E-02 -0.132921260112E-02 -0.106395898351E-02 -0.624383273151E-03
 -0.761653761893E-03 -0.196341516381E-03  0.807127119605E-03  0.520228316160E-04  0.161631424769E-02  0.000000000000E+00  0.791664142333E-03
  0.000000000000E+00  0.000000000000E+00  0.000000000000E+00  0.000000000000E+00