title="tecplot geometry and solution file"
variables = x y z rho u v w p mach temperature
zone t="boundary 1 bc-1", solutiontime= 0.4000000E+02, strandid=1001, i=32, j=46, f=feblock
  0.000000000000E+00  0.000000000000E+00  0.000000000000E+00  0.000000000000E+00  0.000000000000E+00  0.000000000000E+00  0.000000000000E+00
  0.000000000000E+00  0.000000000000E+00  0.000000000000E+00  0.000000000000E+00  0.000000000000E+00  0.000000000000E+00  0.000000000000E+00
  0.000000000000E+00  0.000000000000E+00  0.000000000000E+00  0.000000000000E+00  0.000000000000E+00  0.000000000000E+00  0.000000000000E+00
  0.000000000000E+00  0.000000000000E+00  0.000000000000E+00  0.000000000000E+00  0.000000000000E+00  0.000000000000E+00  0.000000000000E+00
  0.000000000000E+00  0.000000000000E+00  0.000000000000E+00  0.000000000000E+00
  0.250000000000E+01  0.250000000000E+01  0.125000000000E+01  0.146289271009E+01  0.157686156160E+01  0.308372018325E+00  0.000000000000E+00
 -0.125000000000E+01 -0.600232012419E+00  0.250000000000E+01  0.477386199275E+00  0.742988685424E+00 -0.739814786992E+00  0.177790177481E+01
  0.155830813274E+01  0.250000000000E+01 -0.250000000000E+01 -0.154800130438E+01 -0.487811078581E+00  0.250000000000E+01  0.627766083140E+00
 -0.345533899378E+00 -0.178862290564E+01 -0.158811787973E+01  0.125000000000E+01 -0.250000000000E+01 -0.144524380962E+01  0.000000000000E+00
 -0.125000000000E+01 -0.250000000000E+01 -0.250000000000E+01 -0.250000000000E+01
  0.000000000000E+00  0.125000000000E+01  0.000000000000E+00  0.103724302461E+01  0.219251206392E+01  0.922061490191E+00  0.000000000000E+00
  0.000000000000E+00  0.715990576545E+00  0.250000000000E+01  0.202479342020E+01  0.324151231464E+01  0.175434191980E+01  0.310152362409E+01
  0.404200324774E+01  0.375000000000E+01  0.000000000000E+00  0.930412228790E+00  0.299062775774E+01  0.500000000000E+01  0.429310310915E+01
  0.409252726285E+01  0.187029682677E+01  0.284428995242E+01  0.500000000000E+01  0.125000000000E+01  0.394624082883E+01  0.500000000000E+01
  0.500000000000E+01  0.250000000000E+01  0.375000000000E+01  0.500000000000E+01
  0.134427145305E+01  0.106355395266E+01  0.142583204911E+01  0.108608796599E+01  0.103229115001E+01  0.120095364261E+01  0.164466726383E+01
  0.149409063436E+01  0.123520366652E+01  0.102389313721E+01  0.102809523331E+01  0.101301828563E+01  0.103252946703E+01  0.101471891374E+01
  0.100663883721E+01  0.100830818651E+01  0.144945745147E+01  0.116393551619E+01  0.101462863627E+01  0.100426040725E+01  0.100679807564E+01
  0.100724553364E+01  0.104668118719E+01  0.101938460414E+01  0.100424800539E+01  0.106442281091E+01  0.100789341653E+01  0.100288844238E+01
  0.100334542181E+01  0.102847361779E+01  0.100958665588E+01  0.100399273858E+01
  0.000000000000E+00  0.445481420032E+00  0.000000000000E+00  0.468737854326E+00  0.462182267442E+00  0.443613740976E+00  0.000000000000E+00
  0.000000000000E+00  0.379272525612E+00  0.471738848918E+00  0.466574961375E+00  0.479355161258E+00  0.490159648448E+00  0.484514726298E+00
  0.488524773491E+00  0.489830200109E+00  0.000000000000E+00  0.450653322458E+00  0.474814037250E+00  0.495784876106E+00  0.490899460305E+00
  0.486835364621E+00  0.448668673241E+00  0.465807186816E+00  0.496536483290E+00  0.444686633856E+00  0.487701037248E+00  0.497534086487E+00
  0.496384260381E+00  0.470002882970E+00  0.489199908229E+00  0.495522029744E+00
  0.000000000000E+00  0.000000000000E+00  0.000000000000E+00  0.186085523979E-01 -0.276688297930E-02  0.332952461799E-01  0.000000000000E+00
  0.000000000000E+00 -0.594701763528E-02  0.000000000000E+00  0.356648581226E-02 -0.566637988946E-02 -0.416060345405E-02  0.305534856403E-04
 -0.106176516467E-02  0.000000000000E+00  0.000000000000E+00 -0.764112719733E-02  0.359619715801E-03  0.000000000000E+00 -0.203512849955E-02
 -0.138313243490E-02  0.156561565614E-02 -0.158521313644E-02 -0.638395932650E-04  0.000000000000E+00 -0.283450919685E-04 -0.196341515455E-03
  0.807127113196E-03  0.000000000000E+00  0.000000000000E+00  0.000000000000E+00
  0.000000000000E+00  0.452181798818E-01  0.000000000000E+00  0.123933293889E+00  0.247647189517E-01  0.165644510689E+00  0.000000000000E+00
  0.000000000000E+00  0.155763095564E+00  0.351822660951E-02  0.259783160716E-01 -0.651224841256E-02  0.748997889824E-01  0.371839405229E-02
 -0.149292009511E-03  0.459058868218E-03  0.000000000000E+00  0.140954082992E+00 -0.808565728829E-02  0.237176894785E-02 -0.304298817440E-03
 -0.438193697644E-02  0.255017504803E-01 -0.194957192185E-02  0.308362257500E-02  0.837461350196E-01 -0.121909288938E-02  0.268513919021E-02
  0.264043132470E-02  0.279386967131E-02 -0.834665071616E-03  0.345018554256E-02
  0.960184576639E+00  0.782340561565E+00  0.101844205124E+01  0.808726655766E+00  0.746125889757E+00  0.879446497949E+00  0.117475225112E+01
  0.106719923996E+01  0.916620144717E+00  0.737395237649E+00  0.743553970104E+00  0.725759209511E+00  0.757455248585E+00  0.729188341404E+00
  0.720785045997E+00  0.722781669253E+00  0.103531921661E+01  0.858317139417E+00  0.728065069967E+00  0.718615291812E+00  0.721013448099E+00
  0.721151586827E+00  0.760018783402E+00  0.732628400181E+00  0.718531161309E+00  0.791043235997E+00  0.722107947245E+00  0.717199386550E+00
  0.717636872594E+00  0.741799733794E+00  0.724056578393E+00  0.718400640053E+00
  0.000000000000E+00  0.441238352881E+00  0.000000000000E+00  0.475214984480E+00  0.460123711930E+00  0.468827817063E+00  0.000000000000E+00
  0.000000000000E+00  0.402302518912E+00  0.469814974203E+00  0.464411136903E+00  0.478714038128E+00  0.489298237628E+00  0.483068560338E+00
  0.487930063003E+00  0.488961666076E+00  0.000000000000E+00  0.464775737211E+00  0.473795659617E+00  0.495346580569E+00  0.490266092810E+00
  0.486286080433E+00  0.445717622356E+00  0.464382286653E+00  0.496127396373E+00  0.443624081083E+00  0.486964453786E+00  0.497246275794E+00
  0.496059266590E+00  0.467732360707E+00  0.488212090214E+00  0.495098267569E+00
  0.999990295293E+00  0.102982719725E+01  0.999990758121E+00  0.104247294283E+01  0.101190080497E+01  0.102520618070E+01  0.999991419388E+00
  0.999992170211E+00  0.103891223560E+01  0.100826277196E+01  0.101252833825E+01  0.100300548147E+01  0.102702865331E+01  0.100605563190E+01
  0.100244400185E+01  0.100355660154E+01  0.999992722650E+00  0.103239739527E+01  0.100459523960E+01  0.100179336083E+01  0.100260305593E+01
  0.100234966336E+01  0.101657153084E+01  0.100617544751E+01  0.100168844791E+01  0.104043291730E+01  0.100303376286E+01  0.100118726943E+01
  0.100134171123E+01  0.100976788257E+01  0.100405369251E+01  0.100176112578E+01
        12        19        11        11
        11         5        12        12
        10        14         5         5
        19        13        11        11
        19        24        13        13
        30        23        24        24
        19        12        22        22
        28        22        21        21
        11        13         6         6
         7         6         9         9
        15        12        14        14
        18        13        23        23
        15        25        21        21
        27        19        22        22
        18         8         9         9
        27        31        24        24
         4        11         6         6
         5        14        12        12
         4         2         5         5
        21        12        15        15
        14        16        15        15
        24        19        27        27
        22        29        27        27
        23        26        18        18
        17         8        18        18
         5        11         4         4
         6         3         4         4
        26        23        30        30
         5         2        10        10
        16        14        10        10
         3         6         7         7
        21        25        28        28
        29        22        28        28
         6        13         9         9
         2         4         1         1
        31        27        32        32
        25        15        20        20
        24        23        13        13
         8         7         9         9
        13        18         9         9
        31        30        24        24
        12        21        22        22
        29        32        27        27
         3         1         4         4
        26        17        18        18
        16        20        15        15
zone t="boundary 2 bc-2", solutiontime= 0.4000000E+02, strandid=1002, i=33, j=48, f=feblock
  0.500000000000E+01  0.375000000000E+01  0.250000000000E+01  0.288078410721E+01  0.125000000000E+01  0.190974100652E+01  0.326683758169E+01
  0.201431602454E+01  0.000000000000E+00  0.963108083381E+00  0.500000000000E+01  0.403552511878E+01  0.423153924130E+01  0.500000000000E+01
  0.385533350601E+01  0.500000000000E+01  0.398173246726E+01  0.315249557942E+01  0.267000324704E+01  0.154774304040E+01  0.218329375016E+01
  0.893127759452E+00  0.000000000000E+00  0.698517061619E+00  0.964171764089E+00  0.310324758057E+01  0.000000000000E+00  0.000000000000E+00
  0.125000000000E+01  0.500000000000E+01  0.375000000000E+01  0.250000000000E+01  0.000000000000E+00
 -0.250000000000E+01 -0.250000000000E+01 -0.250000000000E+01 -0.250000000000E+01 -0.250000000000E+01 -0.250000000000E+01 -0.250000000000E+01
 -0.250000000000E+01 -0.250000000000E+01 -0.250000000000E+01 -0.250000000000E+01 -0.250000000000E+01 -0.250000000000E+01 -0.250000000000E+01
 -0.250000000000E+01 -0.250000000000E+01 -0.250000000000E+01 -0.250000000000E+01 -0.250000000000E+01 -0.250000000000E+01 -0.250000000000E+01
 -0.250000000000E+01 -0.250000000000E+01 -0.250000000000E+01 -0.250000000000E+01 -0.250000000000E+01 -0.250000000000E+01 -0.250000000000E+01
 -0.250000000000E+01 -0.250000000000E+01 -0.250000000000E+01 -0.250000000000E+01 -0.250000000000E+01
  0.000000000000E+00  0.000000000000E+00  0.000000000000E+00  0.904659890645E+00  0.000000000000E+00  0.717002441913E+00  0.188609243358E+01
  0.176246431481E+01  0.000000000000E+00  0.961328577125E+00  0.125000000000E+01  0.101201586758E+01  0.191586535653E+01  0.250000000000E+01
  0.293121848150E+01  0.375000000000E+01  0.406975391361E+01  0.363585050272E+01  0.285047954584E+01  0.292817774674E+01  0.395907379566E+01
  0.205246550326E+01  0.125000000000E+01  0.306828197606E+01  0.397245519226E+01  0.433168271247E+01  0.250000000000E+01  0.375000000000E+01
  0.500000000000E+01  0.500000000000E+01  0.500000000000E+01  0.500000000000E+01  0.500000000000E+01
  0.830787407892E+00  0.935297259194E+00  0.934221978532E+00  0.968087714440E+00  0.961719523809E+00  0.964848338994E+00  0.984136205501E+00
  0.991412447257E+00  0.144945745147E+01  0.102921689067E+01  0.955878716213E+00  0.960692948277E+00  0.981487966204E+00  0.100642908931E+01
  0.997912114793E+00  0.100977868829E+01  0.100199484815E+01  0.998063219069E+00  0.991085841052E+00  0.100132719288E+01  0.100094599987E+01
  0.101224609734E+01  0.106442281091E+01  0.101082189976E+01  0.100685257800E+01  0.100118412835E+01  0.102847361779E+01  0.100958665588E+01
  0.100510171178E+01  0.100179475083E+01  0.100266311892E+01  0.100321164481E+01  0.100399273858E+01
  0.000000000000E+00  0.000000000000E+00  0.000000000000E+00  0.378986938745E+00  0.000000000000E+00  0.340639446378E+00  0.582179008134E+00
  0.575195822274E+00  0.000000000000E+00  0.489449421806E+00  0.494741308048E+00  0.431507394631E+00  0.568961809629E+00  0.536179840798E+00
  0.568879734112E+00  0.516235691315E+00  0.508555819134E+00  0.527399314289E+00  0.566648556660E+00  0.531828935028E+00  0.506096475869E+00
  0.520701996860E+00  0.444686633856E+00  0.491339928824E+00  0.492734940192E+00  0.501504526393E+00  0.470002882970E+00  0.489199908229E+00
  0.490458154972E+00  0.491426965684E+00  0.486218274478E+00  0.490304430018E+00  0.495522029744E+00
  0.000000000000E+00  0.000000000000E+00  0.000000000000E+00  0.000000000000E+00  0.000000000000E+00  0.000000000000E+00  0.000000000000E+00
  0.000000000000E+00  0.000000000000E+00  0.000000000000E+00  0.000000000000E+00  0.000000000000E+00  0.000000000000E+00  0.000000000000E+00
  0.000000000000E+00  0.000000000000E+00  0.000000000000E+00  0.000000000000E+00  0.000000000000E+00  0.000000000000E+00  0.000000000000E+00
  0.000000000000E+00  0.000000000000E+00  0.000000000000E+00  0.000000000000E+00  0.000000000000E+00  0.000000000000E+00  0.000000000000E+00
  0.000000000000E+00  0.000000000000E+00  0.000000000000E+00  0.000000000000E+00  0.000000000000E+00
  0.000000000000E+00  0.000000000000E+00  0.000000000000E+00 -0.229668911709E-02  0.000000000000E+00  0.183565265289E-01  0.121122199380E-01
  0.454986555706E-01  0.000000000000E+00  0.870789629219E-01 -0.995426037445E-01 -0.211865035464E-01 -0.306441332487E-01 -0.414442969128E-01
 -0.137879740523E-02  0.259922295642E-02  0.609520963354E-03  0.503605158164E-03  0.150967389063E-01  0.284025712001E-01  0.564165140366E-02
  0.553419851021E-01  0.837461350196E-01  0.110441033507E-01  0.679168604176E-02 -0.758102086086E-03  0.279386967131E-02 -0.834665071616E-03
  0.400707430105E-02  0.602725409754E-02 -0.143896458586E-03  0.120117122328E-02  0.345018554256E-02
  0.593415712971E+00  0.668065256749E+00  0.667297105477E+00  0.684257572251E+00  0.686937804967E+00  0.679201333748E+00  0.695811644788E+00
  0.702343850578E+00  0.103531921661E+01  0.723694675139E+00  0.672591699728E+00  0.675702735320E+00  0.694093187766E+00  0.720959953153E+00
  0.712691285915E+00  0.724770860546E+00  0.716580556607E+00  0.713298977921E+00  0.706429553917E+00  0.717737236727E+00  0.715376597412E+00
  0.730937672568E+00  0.791043235997E+00  0.724372845173E+00  0.721010715870E+00  0.715457525756E+00  0.741799733794E+00  0.724056578393E+00
  0.719312936916E+00  0.715892793390E+00  0.716608872405E+00  0.717367928992E+00  0.718400640053E+00
  0.000000000000E+00  0.000000000000E+00  0.000000000000E+00  0.380991904599E+00  0.000000000000E+00  0.343629828973E+00  0.585286158561E+00
  0.579373267034E+00  0.000000000000E+00  0.501056069005E+00  0.508460334482E+00  0.435373040889E+00  0.572640026721E+00  0.537002107405E+00
  0.568922544277E+00  0.514994098636E+00  0.508247389244E+00  0.527252886076E+00  0.567446670789E+00  0.531657156175E+00  0.505981032690E+00
  0.520795577638E+00  0.443624081083E+00  0.490663739965E+00  0.492155878488E+00  0.501390828417E+00  0.467732360707E+00  0.488212090214E+00
  0.490002738293E+00  0.491352316900E+00  0.486075474426E+00  0.490036474180E+00  0.495098267569E+00
  0.999993488427E+00  0.999993692118E+00  0.999993544506E+00  0.989539054016E+00  0.999993140562E+00  0.985524697321E+00  0.989838903658E+00
  0.991798512849E+00  0.999992722650E+00  0.984411113317E+00  0.985091898844E+00  0.984689052984E+00  0.990058458516E+00  0.100289622502E+01
  0.999855383545E+00  0.100485305991E+01  0.100121550635E+01  0.100055642770E+01  0.997896786049E+00  0.100350029297E+01  0.100058068717E+01
  0.101093276061E+01  0.104043291730E+01  0.100326475266E+01  0.100254498452E+01  0.100045586790E+01  0.100976788257E+01  0.100405369251E+01
  0.100192657109E+01  0.100045434448E+01  0.100058773723E+01  0.100109992321E+01  0.100176112578E+01
        15         7        19        19
         8        20        19        19
        18        19        21        21
         7         4         8         8
         3         6         4         4
        19         7         8         8
        19        18        15        15
        14        13        15        15
         8        22        20        20
        27        24        22        22
        19        20        21        21
        32        26        21        21
        17        18        26        26
        17        16        15        15
        25        29        21        21
        12         7        13        13
        10         8         6         6
        25        20        24        24
         4         6         8         8
        12         2         4         4
        10        23        22        22
        26        31        17        17
        30        16        17        17
         4         7        12        12
        13        11        12        12
        21        20        25        25
        24        28        25        25
        22         8        10        10
         6         5        10        10
        31        26        32        32
         4         2         3         3
         5         6         3         3
        11        13        14        14
        22        23        27        27
        28        24        27        27
        15        13         7         7
         2        12         1         1
        29        25        33        33
        23        10         9         9
        21        26        18        18
        16        14        15        15
        18        17        15        15
        29        32        21        21
        22        24        20        20
        28        33        25        25
        11         1        12        12
        31        30        17        17
         5         9        10        10
zone t="boundary 3 bc-3", solutiontime= 0.4000000E+02, strandid=1003, i=33, j=48, f=feblock
  0.375000000000E+01  0.250000000000E+01  0.500000000000E+01  0.403552511878E+01  0.288078410721E+01  0.125000000000E+01  0.190974100652E+01
  0.500000000000E+01  0.326683758169E+01  0.423153924130E+01  0.201431602454E+01  0.000000000000E+00  0.963108083381E+00  0.500000000000E+01
  0.267000324704E+01  0.385533350601E+01  0.893127759452E+00  0.154774304040E+01  0.000000000000E+00  0.500000000000E+01  0.315249557942E+01
  0.218329375016E+01  0.398173246726E+01  0.000000000000E+00  0.698517061619E+00  0.964171764089E+00  0.125000000000E+01  0.000000000000E+00
  0.500000000000E+01  0.310324758057E+01  0.250000000000E+01  0.375000000000E+01  0.000000000000E+00
  0.250000000000E+01  0.250000000000E+01  0.250000000000E+01  0.250000000000E+01  0.250000000000E+01  0.250000000000E+01  0.250000000000E+01
  0.250000000000E+01  0.250000000000E+01  0.250000000000E+01  0.250000000000E+01  0.250000000000E+01  0.250000000000E+01  0.250000000000E+01
  0.250000000000E+01  0.250000000000E+01  0.250000000000E+01  0.250000000000E+01  0.250000000000E+01  0.250000000000E+01  0.250000000000E+01
  0.250000000000E+01  0.250000000000E+01  0.250000000000E+01  0.250000000000E+01  0.250000000000E+01  0.250000000000E+01  0.250000000000E+01
  0.250000000000E+01  0.250000000000E+01  0.250000000000E+01  0.250000000000E+01  0.250000000000E+01
  0.000000000000E+00  0.000000000000E+00  0.000000000000E+00  0.101201586758E+01  0.904659890645E+00  0.000000000000E+00  0.717002441913E+00
  0.125000000000E+01  0.188609243358E+01  0.191586535653E+01  0.176246431481E+01  0.000000000000E+00  0.961328577125E+00  0.250000000000E+01
  0.285047954584E+01  0.293121848150E+01  0.205246550326E+01  0.292817774674E+01  0.125000000000E+01  0.375000000000E+01  0.363585050272E+01
  0.395907379566E+01  0.406975391361E+01  0.250000000000E+01  0.306828197606E+01  0.397245519226E+01  0.500000000000E+01  0.375000000000E+01
  0.500000000000E+01  0.433168271247E+01  0.500000000000E+01  0.500000000000E+01  0.500000000000E+01
  0.941861279931E+00  0.946296411478E+00  0.843730529275E+00  0.964331301003E+00  0.978820820038E+00  0.956975888655E+00  0.983331396861E+00
  0.963500546775E+00  0.982689288853E+00  0.984244007300E+00  0.990263805441E+00  0.134427145305E+01  0.101918251626E+01  0.100829901695E+01
  0.993456152116E+00  0.997998675030E+00  0.100807808270E+01  0.100072116068E+01  0.106355395266E+01  0.100673528642E+01  0.100058356031E+01
  0.100234980416E+01  0.100178078379E+01  0.102389313721E+01  0.100874208198E+01  0.100528370713E+01  0.100522859495E+01  0.100830818651E+01
  0.100196466889E+01  0.100162011129E+01  0.100413203154E+01  0.100321958505E+01  0.100426040725E+01
  0.000000000000E+00  0.000000000000E+00  0.000000000000E+00  0.439071219638E+00  0.399865796550E+00  0.000000000000E+00  0.373794139423E+00
  0.495017408769E+00  0.573056194347E+00  0.569605084740E+00  0.559932666871E+00  0.000000000000E+00  0.483390702977E+00  0.533822151423E+00
  0.556458768840E+00  0.564688347728E+00  0.522615499143E+00  0.522533043545E+00  0.445481420032E+00  0.518326868876E+00  0.524750893826E+00
  0.503888155829E+00  0.509839691027E+00  0.471738848918E+00  0.496245460634E+00  0.494940393085E+00  0.489076365336E+00  0.489830200109E+00
  0.493065117388E+00  0.499146578360E+00  0.486766687216E+00  0.484758134321E+00  0.495784876106E+00
  0.000000000000E+00  0.000000000000E+00  0.000000000000E+00  0.000000000000E+00  0.000000000000E+00  0.000000000000E+00  0.000000000000E+00
  0.000000000000E+00  0.000000000000E+00  0.000000000000E+00  0.000000000000E+00  0.000000000000E+00  0.000000000000E+00  0.000000000000E+00
  0.000000000000E+00  0.000000000000E+00  0.000000000000E+00  0.000000000000E+00  0.000000000000E+00  0.000000000000E+00  0.000000000000E+00
  0.000000000000E+00  0.000000000000E+00  0.000000000000E+00  0.000000000000E+00  0.000000000000E+00  0.000000000000E+00  0.000000000000E+00
  0.000000000000E+00  0.000000000000E+00  0.000000000000E+00  0.000000000000E+00  0.000000000000E+00
  0.000000000000E+00  0.000000000000E+00  0.000000000000E+00 -0.226115391526E-01  0.111963784550E-01  0.000000000000E+00  0.179816813430E-01
 -0.100761166544E+00  0.390410969634E-02 -0.389325099769E-01  0.340377349761E-01  0.000000000000E+00  0.652293811873E-01 -0.424929263095E-01
  0.843880711285E-02 -0.650992510193E-02  0.490054864288E-01  0.135873402332E-01  0.452181798818E-01  0.737187948538E-03 -0.701209346119E-03
  0.243744178595E-02  0.868952848631E-03  0.351822660951E-02  0.103945232597E-01  0.431655185340E-02  0.337507096454E-02  0.459058868218E-03
  0.572581289680E-02  0.341134827686E-03  0.160978874472E-02  0.569844338471E-03  0.237176894785E-02
  0.672750885848E+00  0.675918851548E+00  0.602658413755E+00  0.676093764153E+00  0.691308917161E+00  0.683547252760E+00  0.690066484312E+00
  0.677274957487E+00  0.695201830534E+00  0.696250879993E+00  0.703344069746E+00  0.960184576639E+00  0.719726359175E+00  0.722866634571E+00
  0.709447754570E+00  0.713700947670E+00  0.726067413122E+00  0.716602920149E+00  0.782340561565E+00  0.722284526524E+00  0.716128633751E+00
  0.716551643164E+00  0.716546536894E+00  0.737395237649E+00  0.722682909424E+00  0.719441261374E+00  0.719566087627E+00  0.722781669253E+00
  0.716030233793E+00  0.715847819532E+00  0.718146761337E+00  0.717062457429E+00  0.718615291812E+00
  0.000000000000E+00  0.000000000000E+00  0.000000000000E+00  0.443767766907E+00  0.402286945993E+00  0.000000000000E+00  0.377550362186E+00
  0.509231871424E+00  0.575832177522E+00  0.573707384864E+00  0.562554069226E+00  0.000000000000E+00  0.490563298962E+00  0.534527112587E+00
  0.556586988786E+00  0.564391561259E+00  0.522730520421E+00  0.522052007509E+00  0.441238352881E+00  0.517182276696E+00  0.524228609907E+00
  0.503687438527E+00  0.509488520197E+00  0.469814974203E+00  0.495614448497E+00  0.494483777322E+00  0.488562436015E+00  0.488961666076E+00
  0.492980868950E+00  0.499005516501E+00  0.486460983336E+00  0.484597194999E+00  0.495346580569E+00
  0.999989340529E+00  0.999989412080E+00  0.999989629369E+00  0.981541581021E+00  0.988773904490E+00  0.999989827549E+00  0.982469471758E+00
  0.984104205913E+00  0.990427568295E+00  0.990355262272E+00  0.994363009366E+00  0.999990295293E+00  0.988652068468E+00  0.100368370036E+01
  0.999769193922E+00  0.100118502333E+01  0.100834885295E+01  0.100252110940E+01  0.102982719725E+01  0.100443319189E+01  0.100199536253E+01
  0.100082056810E+01  0.100138190698E+01  0.100826277196E+01  0.100298787100E+01  0.100192389350E+01  0.100215267227E+01  0.100355660154E+01
  0.100047672182E+01  0.100056591920E+01  0.100126819412E+01  0.100066571203E+01  0.100179336083E+01
        15         9        16        16
        15        18        11        11
        22        15        21        21
        11         5         9         9
         5         7         2         2
        11         9        15        15
        16        21        15        15
        16        10        14        14
        18        17        11        11
        17        25        24        24
        22        18        15        15
        22        30        31        31
        30        21        23        23
        16        20        23        23
        22        27        26        26
        10         9         4         4
         7        11        13        13
        25        18        26        26
        11         7         5         5
         5         1         4         4
        17        19        13        13
        23        32        30        30
        23        20        29        29
         4         9         5         5
         4         8        10        10
        26        18        22        22
        26        28        25        25
        13        11        17        17
        13         6         7         7
        31        30        32        32
         2         1         5         5
         2         7         6         6
        14        10         8         8
        24        19        17        17
        24        25        28        28
         9        10        16        16
         3         4         1         1
        33        26        27        27
        12        13        19        19
        21        30        22        22
        16        14        20        20
        16        23        21        21
        22        31        27        27
        18        25        17        17
        26        33        28        28
         4         3         8         8
        23        29        32        32
        13        12         6         6
zone t="boundary 4 bc-4", solutiontime= 0.4000000E+02, strandid=1004, i=32, j=46, f=feblock
  0.125000000000E+01  0.219251206392E+01  0.103724302461E+01  0.500000000000E+01  0.250000000000E+01  0.375000000000E+01  0.404200324774E+01
  0.500000000000E+01  0.000000000000E+00  0.310152362409E+01  0.202479342020E+01  0.324151231464E+01  0.922061490191E+00  0.000000000000E+00
  0.299062775774E+01  0.394624082883E+01  0.500000000000E+01  0.409252726285E+01  0.500000000000E+01  0.429310310915E+01  0.175434191980E+01
  0.284428995242E+01  0.000000000000E+00  0.000000000000E+00  0.715990576545E+00  0.930412228790E+00  0.125000000000E+01  0.187029682677E+01
  0.500000000000E+01  0.375000000000E+01  0.250000000000E+01  0.000000000000E+00
  0.250000000000E+01  0.157686156160E+01  0.146289271009E+01  0.250000000000E+01  0.250000000000E+01  0.250000000000E+01  0.155830813274E+01
  0.125000000000E+01  0.250000000000E+01  0.177790177481E+01  0.477386199275E+00  0.742988685424E+00  0.308372018325E+00  0.125000000000E+01
 -0.487811078581E+00 -0.144524380962E+01 -0.125000000000E+01 -0.345533899378E+00  0.000000000000E+00  0.627766083140E+00 -0.739814786992E+00
 -0.158811787973E+01  0.000000000000E+00 -0.125000000000E+01 -0.600232012419E+00 -0.154800130438E+01 -0.250000000000E+01 -0.178862290564E+01
 -0.250000000000E+01 -0.250000000000E+01 -0.250000000000E+01 -0.250000000000E+01
  0.500000000000E+01  0.500000000000E+01  0.500000000000E+01  0.500000000000E+01  0.500000000000E+01  0.500000000000E+01  0.500000000000E+01
  0.500000000000E+01  0.500000000000E+01  0.500000000000E+01  0.500000000000E+01  0.500000000000E+01  0.500000000000E+01  0.500000000000E+01
  0.500000000000E+01  0.500000000000E+01  0.500000000000E+01  0.500000000000E+01  0.500000000000E+01  0.500000000000E+01  0.500000000000E+01
  0.500000000000E+01  0.500000000000E+01  0.500000000000E+01  0.500000000000E+01  0.500000000000E+01  0.500000000000E+01  0.500000000000E+01
  0.500000000000E+01  0.500000000000E+01  0.500000000000E+01  0.500000000000E+01
  0.100522859495E+01  0.100432970612E+01  0.100432033561E+01  0.100196466889E+01  0.100413203154E+01  0.100321958505E+01  0.100258621565E+01
  0.100201176941E+01  0.100426040725E+01  0.100372311444E+01  0.100446501476E+01  0.100346948554E+01  0.100365984151E+01  0.100424800539E+01
  0.100362337153E+01  0.100164187638E+01  0.100227629278E+01  0.100227307815E+01  0.100213446098E+01  0.100254342933E+01  0.100442384597E+01
  0.100337262211E+01  0.100288844238E+01  0.100334542181E+01  0.100323222662E+01  0.100406087324E+01  0.100510171178E+01  0.100431306249E+01
  0.100179475083E+01  0.100266311892E+01  0.100321164481E+01  0.100399273858E+01
  0.489076365336E+00  0.489238645668E+00  0.490983350816E+00  0.493065117388E+00  0.486766687216E+00  0.484758134321E+00  0.485405274019E+00
  0.494262909352E+00  0.495784876106E+00  0.486800373453E+00  0.488139374616E+00  0.487244732823E+00  0.494423309826E+00  0.496536483290E+00
  0.487845849171E+00  0.483219501398E+00  0.492573615341E+00  0.487262431034E+00  0.494866055949E+00  0.488012747690E+00  0.490096725466E+00
  0.488269664046E+00  0.497534086487E+00  0.496384260381E+00  0.495259765866E+00  0.493216444677E+00  0.490458154972E+00  0.490399993950E+00
  0.491426965684E+00  0.486218274478E+00  0.490304430018E+00  0.495522029744E+00
  0.000000000000E+00 -0.893844210529E-04 -0.129754350227E-02  0.000000000000E+00  0.000000000000E+00  0.000000000000E+00  0.425650451874E-03
  0.796987621056E-03  0.000000000000E+00  0.274721865159E-03 -0.942409172093E-03 -0.819935596008E-03 -0.174524228717E-02 -0.638395932650E-04
 -0.110015122014E-02 -0.102270859311E-02 -0.133249461267E-02 -0.213420497886E-02 -0.132921261823E-02 -0.106395900351E-02 -0.624383277877E-03
 -0.761653762540E-03 -0.196341515455E-03  0.807127113196E-03  0.520228263878E-04  0.161631424418E-02  0.000000000000E+00  0.791664141920E-03
  0.000000000000E+00  0.000000000000E+00  0.000000000000E+00  0.000000000000E+00