# vtk DataFile Version 2.0
FUN3D:global_image_vtk
ASCII
DATASET UNSTRUCTURED_GRID
POINTS 213 double
    0.0000000000000000E+00    0.2500000000000000E+01    0.0000000000000000E+00
    0.1250000000000000E+01    0.2500000000000000E+01    0.0000000000000000E+00
    0.2500000000000000E+01    0.2500000000000000E+01    0.0000000000000000E+00
    0.3750000000000000E+01    0.2500000000000000E+01    0.0000000000000000E+00
    0.5000000000000000E+01    0.2500000000000000E+01    0.0000000000000000E+00
    0.5000000000000000E+01    0.1250000000000000E+01    0.0000000000000000E+00
    0.5000000000000000E+01    0.0000000000000000E+00    0.0000000000000000E+00
    0.5000000000000000E+01   -0.1250000000000000E+01    0.0000000000000000E+00
    0.5000000000000000E+01   -0.2500000000000000E+01    0.0000000000000000E+00
    0.3750000000000000E+01   -0.2500000000000000E+01    0.0000000000000000E+00
    0.2500000000000000E+01   -0.2500000000000000E+01    0.0000000000000000E+00
    0.1250000000000000E+01   -0.2500000000000000E+01    0.0000000000000000E+00
    0.0000000000000000E+00   -0.2500000000000000E+01    0.0000000000000000E+00
    0.0000000000000000E+00   -0.1250000000000000E+01    0.0000000000000000E+00
    0.0000000000000000E+00    0.0000000000000000E+00    0.0000000000000000E+00
    0.0000000000000000E+00    0.1250000000000000E+01    0.0000000000000000E+00
    0.9058375365086910E+00    0.1578994732800803E+01    0.0000000000000000E+00
    0.3982050490726493E+01   -0.1583989954232354E+01    0.0000000000000000E+00
    0.4033849428301197E+01    0.1453322699199022E+01    0.0000000000000000E+00
    0.1040505887381675E+01   -0.1479596339503735E+01    0.0000000000000000E+00
    0.1099454400140349E+01   -0.3227322616384110E+00    0.0000000000000000E+00
    0.7354504170366591E+00    0.6593508822075582E+00    0.0000000000000000E+00
    0.1622302608453282E+01    0.8256214013940779E+00    0.0000000000000000E+00
    0.2145871574390382E+01   -0.1650070333782557E+01    0.0000000000000000E+00
    0.4086422318222992E+01   -0.4612828702537229E+00    0.0000000000000000E+00
    0.2979540174134984E+01   -0.8579242121530853E+00    0.0000000000000000E+00
    0.3045064261640043E+01   -0.1836846154397680E+01    0.0000000000000000E+00
    0.3428197553792836E+01    0.3508002863614053E+00    0.0000000000000000E+00
    0.4309693860063405E+01    0.5185680230613409E+00    0.0000000000000000E+00
    0.1827272193562204E+01    0.1738996113203182E+01    0.0000000000000000E+00
    0.2808563282768077E+01    0.1325493893339706E+01    0.0000000000000000E+00
    0.1895995683864404E+01   -0.8731419609589618E+00    0.0000000000000000E+00
    0.2273179336307740E+01    0.4906150219227333E-01    0.0000000000000000E+00
    0.5000000000000000E+01    0.2500000000000000E+01    0.1250000000000000E+01
    0.5000000000000000E+01    0.2500000000000000E+01    0.2500000000000000E+01
    0.5000000000000000E+01    0.2500000000000000E+01    0.3750000000000000E+01
    0.5000000000000000E+01    0.2500000000000000E+01    0.5000000000000000E+01
    0.3750000000000000E+01    0.2500000000000000E+01    0.5000000000000000E+01
    0.2500000000000000E+01    0.2500000000000000E+01    0.5000000000000000E+01
    0.1250000000000000E+01    0.2500000000000000E+01    0.5000000000000000E+01
    0.0000000000000000E+00    0.2500000000000000E+01    0.5000000000000000E+01
    0.0000000000000000E+00    0.2500000000000000E+01    0.3750000000000000E+01
    0.0000000000000000E+00    0.2500000000000000E+01    0.2500000000000000E+01
    0.0000000000000000E+00    0.2500000000000000E+01    0.1250000000000000E+01
    0.9631080833812172E+00    0.2500000000000000E+01    0.9613285771248219E+00
    0.3981732467264904E+01    0.2500000000000000E+01    0.4069753913607991E+01
    0.4035525118777670E+01    0.2500000000000000E+01    0.1012015867579395E+01
    0.9641717640894248E+00    0.2500000000000000E+01    0.3972455192261839E+01
    0.1547743040396780E+01    0.2500000000000000E+01    0.2928177746738678E+01
    0.6985170616192014E+00    0.2500000000000000E+01    0.3068281976055466E+01
    0.8931277594515110E+00    0.2500000000000000E+01    0.2052465503257726E+01
    0.2183293750162785E+01    0.2500000000000000E+01    0.3959073795658649E+01
    0.3855333506014705E+01    0.2500000000000000E+01    0.2931218481500625E+01
    0.3152495579421047E+01    0.2500000000000000E+01    0.3635850502723324E+01
    0.3103247580566054E+01    0.2500000000000000E+01    0.4331682712472464E+01
    0.3266837581688852E+01    0.2500000000000000E+01    0.1886092433583972E+01
    0.4231539241296245E+01    0.2500000000000000E+01    0.1915865356532799E+01
    0.1909741006522088E+01    0.2500000000000000E+01    0.7170024419130505E+00
    0.2880784107213163E+01    0.2500000000000000E+01    0.9046598906449592E+00
    0.2014316024535771E+01    0.2500000000000000E+01    0.1762464314805728E+01
    0.2670003247036656E+01    0.2500000000000000E+01    0.2850479545835163E+01
    0.5000000000000000E+01    0.1250000000000000E+01    0.5000000000000000E+01
    0.5000000000000000E+01    0.0000000000000000E+00    0.5000000000000000E+01
    0.5000000000000000E+01   -0.1250000000000000E+01    0.5000000000000000E+01
    0.5000000000000000E+01   -0.2500000000000000E+01    0.5000000000000000E+01
    0.5000000000000000E+01   -0.2500000000000000E+01    0.3750000000000000E+01
    0.5000000000000000E+01   -0.2500000000000000E+01    0.2500000000000000E+01
    0.5000000000000000E+01   -0.2500000000000000E+01    0.1250000000000000E+01
    0.5000000000000000E+01    0.1578994732800803E+01    0.9058375365086910E+00
    0.5000000000000000E+01   -0.1583989954232354E+01    0.3982050490726493E+01
    0.5000000000000000E+01    0.1453322699199022E+01    0.4033849428301197E+01
    0.5000000000000000E+01   -0.1479596339503735E+01    0.1040505887381675E+01
    0.5000000000000000E+01   -0.3227322616384110E+00    0.1099454400140349E+01
    0.5000000000000000E+01    0.6593508822075582E+00    0.7354504170366591E+00
    0.5000000000000000E+01    0.8256214013940779E+00    0.1622302608453282E+01
    0.5000000000000000E+01   -0.1650070333782557E+01    0.2145871574390382E+01
    0.5000000000000000E+01   -0.4612828702537229E+00    0.4086422318222992E+01
    0.5000000000000000E+01   -0.8579242121530853E+00    0.2979540174134984E+01
    0.5000000000000000E+01   -0.1836846154397680E+01    0.3045064261640043E+01
    0.5000000000000000E+01    0.3508002863614053E+00    0.3428197553792836E+01
    0.5000000000000000E+01    0.5185680230613409E+00    0.4309693860063405E+01
    0.5000000000000000E+01    0.1738996113203182E+01    0.1827272193562204E+01
    0.5000000000000000E+01    0.1325493893339706E+01    0.2808563282768077E+01
    0.5000000000000000E+01   -0.8731419609589618E+00    0.1895995683864404E+01
    0.5000000000000000E+01    0.4906150219227333E-01    0.2273179336307740E+01
    0.0000000000000000E+00    0.1250000000000000E+01    0.5000000000000000E+01
    0.0000000000000000E+00    0.0000000000000000E+00    0.5000000000000000E+01
    0.0000000000000000E+00   -0.1250000000000000E+01    0.5000000000000000E+01
    0.0000000000000000E+00   -0.2500000000000000E+01    0.5000000000000000E+01
    0.1250000000000000E+01   -0.2500000000000000E+01    0.5000000000000000E+01
    0.2500000000000000E+01   -0.2500000000000000E+01    0.5000000000000000E+01
    0.3750000000000000E+01   -0.2500000000000000E+01    0.5000000000000000E+01
    0.4042003247744892E+01    0.1558308132739014E+01    0.5000000000000000E+01
    0.9304122287900499E+00   -0.1548001304379777E+01    0.5000000000000000E+01
    0.1037243024609388E+01    0.1462892710085612E+01    0.5000000000000000E+01
    0.3946240828834967E+01   -0.1445243809615570E+01    0.5000000000000000E+01
    0.4092527262848217E+01   -0.3455338993778935E+00    0.5000000000000000E+01
    0.4293103109154542E+01    0.6277660831404320E+00    0.5000000000000000E+01
    0.3241512314643519E+01    0.7429886854239611E+00    0.5000000000000000E+01
    0.2844289952419609E+01   -0.1588117879734118E+01    0.5000000000000000E+01
    0.7159905765450471E+00   -0.6002320124191652E+00    0.5000000000000000E+01
    0.1754341919796891E+01   -0.7398147869923652E+00    0.5000000000000000E+01
    0.1870296826774691E+01   -0.1788622905643739E+01    0.5000000000000000E+01
    0.9220614901912976E+00    0.3083720183248586E+00    0.5000000000000000E+01
    0.3101523624086016E+01    0.1777901774806180E+01    0.5000000000000000E+01
    0.2192512063922564E+01    0.1576861561598471E+01    0.5000000000000000E+01
    0.2024793420196460E+01    0.4773861992750707E+00    0.5000000000000000E+01
    0.2990627757741975E+01   -0.4878110785814084E+00    0.5000000000000000E+01
    0.0000000000000000E+00   -0.2500000000000000E+01    0.1250000000000000E+01
    0.0000000000000000E+00   -0.2500000000000000E+01    0.2500000000000000E+01
    0.0000000000000000E+00   -0.2500000000000000E+01    0.3750000000000000E+01
    0.0000000000000000E+00    0.1558308132739014E+01    0.4042003247744892E+01
    0.0000000000000000E+00   -0.1548001304379777E+01    0.9304122287900499E+00
    0.0000000000000000E+00    0.1462892710085612E+01    0.1037243024609388E+01
    0.0000000000000000E+00   -0.1445243809615570E+01    0.3946240828834967E+01
    0.0000000000000000E+00   -0.3455338993778935E+00    0.4092527262848217E+01
    0.0000000000000000E+00    0.6277660831404320E+00    0.4293103109154542E+01
    0.0000000000000000E+00    0.7429886854239611E+00    0.3241512314643519E+01
    0.0000000000000000E+00   -0.1588117879734118E+01    0.2844289952419609E+01
    0.0000000000000000E+00   -0.6002320124191652E+00    0.7159905765450471E+00
    0.0000000000000000E+00   -0.7398147869923652E+00    0.1754341919796891E+01
    0.0000000000000000E+00   -0.1788622905643739E+01    0.1870296826774691E+01
    0.0000000000000000E+00    0.3083720183248586E+00    0.9220614901912976E+00
    0.0000000000000000E+00    0.1777901774806180E+01    0.3101523624086016E+01
    0.0000000000000000E+00    0.1576861561598471E+01    0.2192512063922564E+01
[...]
POINT_DATA 213
SCALARS rho double 1
LOOKUP_TABLE default
   0.1343965966987755E+01
   0.9576972749806700E+00
   0.9477448428909314E+00
   0.9438131444114045E+00
   0.8441009463707865E+00
   0.7733576798221808E+00
   0.7630128791893406E+00
   0.7656186375599149E+00
   0.8316614359809490E+00
   0.9369663692742756E+00
   0.9354398927226287E+00
   0.9614824092139252E+00
   0.1447869009467301E+01
   0.1492319197794116E+01
   0.1642809581775332E+01
   0.1425671993143475E+01
   0.1009386314815204E+01
   0.9522697502352746E+00
   0.9451727061902382E+00
   0.9577559825064932E+00
   0.9405678786931042E+00
   0.1035489933071654E+01
   0.9260511819169310E+00
   0.9335251646967972E+00
   0.9552381739971680E+00
   0.9537149705465323E+00
   0.9360594560145614E+00
   0.9578783269044179E+00
   0.9386202146887284E+00
   0.9312265814908514E+00
   0.9460891763717973E+00
   0.8867073876896715E+00
   0.9437960426065214E+00
   0.9641219458017616E+00
   0.1007296400477789E+01
   0.1006184778420506E+01
   0.1004574959389061E+01
   0.1005751423212933E+01
   0.1004610527005261E+01
   0.1005284910528131E+01
   0.1003004652609201E+01
   0.1008151398406460E+01
   0.1023748878588232E+01
   0.1062885649132871E+01
   0.1019113286395829E+01
   0.1001827819972938E+01
   0.9658918542135274E+00
   0.1005409935347424E+01
   0.1000775309970973E+01
   0.1008827306315894E+01
   0.1007918430030427E+01
   0.1002494199576843E+01
   0.9976014237213144E+00
   0.1000593571380823E+01
   0.1001865292098959E+01
   0.9828372191324246E+00
   0.9840878143528408E+00
   0.9841380515342836E+00
   0.9802128049252807E+00
   0.9905521808867226E+00
   0.9934998276458153E+00
   0.1004778245035957E+01
   0.1004767189346362E+01
   0.1005114321434977E+01
   0.1004850286067554E+01
   0.1009544109004958E+01
   0.1004699691102901E+01
   0.9559620070370879E+00
   0.9257182857851891E+00
   0.1007687731081218E+01
   0.1004499793501107E+01
   0.9151324663009121E+00
   0.9096292336266466E+00
   0.8762723009266372E+00
   0.9757629704587678E+00
   0.9987129104222164E+00
   0.1006335541452713E+01
   0.1010818858915369E+01
   0.1010129204743148E+01
   0.1009074518759080E+01
   0.1005937111818695E+01
   0.9900076156100637E+00
   0.1003829925568109E+01
   0.9846226060819119E+00
   0.1002837187962119E+01
   0.1003882860724358E+01
   0.1003215373676595E+01
   0.1003424139011422E+01
   0.1003738532186698E+01
   0.1005281661761303E+01
   0.1003265155678680E+01
   0.1004580560243037E+01
   0.1005196429619493E+01
   0.1004060719466516E+01
   0.1004546525371573E+01
   0.1003385890515813E+01
   0.1004519397794634E+01
   0.1005791657882439E+01
   0.1004686431953021E+01
   0.1003955411272129E+01
   0.1003135933515384E+01
   0.1004406797874082E+01
   0.1004217778826789E+01
   0.1003536250693286E+01
   0.1005309733451563E+01
   0.1004812133312787E+01
   0.1004741758063195E+01
   0.1004669787284501E+01
   0.1064928020666758E+01
   0.1028650830361082E+01
   0.1009537909823869E+01
   0.1006519332300593E+01
   0.1163380978069320E+01
   0.1086055351225540E+01
   0.1007820126306746E+01
   0.1007302541801509E+01
   0.1006711537687555E+01
   0.1012984941451347E+01
   0.1019259447733724E+01
   0.1234910551546428E+01
   0.1032980184890717E+01
   0.1046583638054788E+01
   0.1200461006127210E+01
   0.1014504356319430E+01
   0.1031892368631517E+01
   0.1028375142443074E+01
   0.1014845788308987E+01
   0.1029073306731207E+01
   0.1002080407423713E+01
   0.9621401810554221E+00
   0.1006807134178886E+01
   0.1001537961874236E+01
   0.1010605445995115E+01
   0.1012248905013076E+01
   0.1001047925265250E+01
   0.9972872453305235E+00
   0.9978249676555120E+00
   0.1001116545082322E+01
   0.9838204469277472E+00
   0.9808407240888378E+00
   0.9653613806287442E+00
   0.9688902724418221E+00
   0.9913867320052930E+00
   0.9913033737895224E+00
   0.9924499653920340E+00
   0.1001939551003409E+01
   0.9994944957121273E+00
   0.9940522236576502E+00
   0.1006988072540365E+01
   0.1022221194266469E+01
   0.1000742636694470E+01
   0.1008918713490483E+01
   0.1004949825923047E+01
   0.1009093554887324E+01
   0.9967232935204541E+00
   0.1004971621661082E+01
   0.1003543350794683E+01
   0.9949818722699668E+00
   0.9827942752969637E+00
   0.9939983479987267E+00
   0.9970549762733069E+00
   0.9919138356413643E+00
   0.1001240974659640E+01
   0.1003192427232908E+01
   0.1002174556057774E+01
   0.9936100682062629E+00
   0.9937194721847682E+00
   0.1005130361390898E+01
   0.1019813424938829E+01
   0.1005421270396657E+01
   0.9816989786189634E+00
   0.1005148094922167E+01
   0.1012366735079283E+01
   0.9872336006388858E+00
   0.9550246541727869E+00
   0.9860586847335286E+00
   0.9866043131007675E+00
   0.9925193437577393E+00
   0.9931308549467047E+00
   0.9948952532496305E+00
   0.1037296046434599E+01
   0.1033015714649248E+01
   0.1001454862094298E+01
   0.1002005181882860E+01
   0.9897996521736999E+00
   0.9907251148158647E+00
   0.9646455765237676E+00
   0.9920848214899730E+00
   0.1005418868884410E+01
   0.1001496628924741E+01
   0.9910386850379065E+00
   0.9741297639576824E+00
   0.9424060717851999E+00
   0.9820102505686437E+00
   0.9791544203436763E+00
   0.9713816141669883E+00
   0.9720530686847290E+00
   0.9554278769796196E+00
   0.9502413892498154E+00
   0.9545737775819818E+00
   0.1002932458206528E+01
   0.1002562230609105E+01
   0.1000541323063562E+01
   0.1001108797915180E+01
   0.9616592902313719E+00
   0.9512265335403477E+00
   0.9602851462447500E+00
   0.1000865689515707E+01
   0.1000324352362854E+01
   0.1000906465805309E+01
   0.9809417603920594E+00
   0.9805261765458538E+00
   0.9640837772193636E+00
SCALARS u double 1
LOOKUP_TABLE default
   0.0000000000000000E+00
   0.0000000000000000E+00
   0.0000000000000000E+00
   0.0000000000000000E+00
   0.0000000000000000E+00
   0.0000000000000000E+00
   0.0000000000000000E+00
   0.0000000000000000E+00
   0.0000000000000000E+00
   0.0000000000000000E+00
   0.0000000000000000E+00
   0.0000000000000000E+00
   0.0000000000000000E+00
   0.0000000000000000E+00
   0.0000000000000000E+00
   0.0000000000000000E+00
   0.0000000000000000E+00
   0.0000000000000000E+00
   0.0000000000000000E+00
   0.0000000000000000E+00
   0.0000000000000000E+00
   0.0000000000000000E+00
   0.0000000000000000E+00
   0.0000000000000000E+00
   0.0000000000000000E+00
   0.0000000000000000E+00
   0.0000000000000000E+00
   0.0000000000000000E+00
   0.0000000000000000E+00
   0.0000000000000000E+00
   0.0000000000000000E+00
   0.0000000000000000E+00
   0.0000000000000000E+00
   0.4956088281590065E+00
   0.5336028969834499E+00
   0.5184450484787041E+00
   0.4933133806065323E+00
   0.4841981491509823E+00
   0.4837170324325492E+00
   0.4863897386360768E+00
   0.4963079454103697E+00
   0.4896567686223658E+00
   0.4720672484574516E+00
   0.4463580841244078E+00
   0.4827649171750332E+00
   0.5089240083561081E+00
   0.4407506708299979E+00
   0.4944059176932333E+00
   0.5229414834166745E+00
   0.4962113329580137E+00
   0.5227252773957416E+00
   0.5032083732942824E+00
   0.5640222653622502E+00
   0.5252398845532650E+00
   0.4980203183367328E+00
   0.5719626554657730E+00
   0.5688065661922009E+00
   0.3730025264305579E+00
   0.4007150976170168E+00
   0.5587988179770332E+00
   0.5564435980915302E+00
   0.4946070205198562E+00
   0.4954020890383292E+00
   0.4937887068672213E+00
   0.4918952700270976E+00
   0.5164135096126190E+00
   0.5359192417094205E+00
   0.4957089565408744E+00
   0.4530920756869644E+00
   0.5123877365642706E+00
   0.5107432042471926E+00
   0.4790291054294364E+00
   0.4944626130845003E+00
   0.4614927603774390E+00
   0.5257659114254001E+00
   0.5298668677361343E+00
   0.5123506249046923E+00
   0.5330012241086330E+00
   0.5309373756833193E+00
   0.5300690751840699E+00
   0.5056169292230454E+00
   0.5285423540080408E+00
   0.5403389546337581E+00
   0.5368093474601782E+00
   0.5377911718222976E+00
   0.4974925003112875E+00
   0.4981163009203895E+00
   0.4967933545737829E+00
   0.4957441691029272E+00
   0.4878915029847247E+00
   0.4876185038444074E+00
   0.4855744436256997E+00
   0.4864380784525115E+00
   0.4916982561103317E+00
   0.4891553761922398E+00
   0.4852571563935829E+00
   0.4886306924762703E+00
   0.4891593044138752E+00
   0.4864820346879586E+00
   0.4864884603448310E+00
   0.4945747635851152E+00
   0.4872882735791673E+00
   0.4875772049412277E+00
   0.4930333113710965E+00
   0.4847489964865620E+00
   0.4867503335062839E+00
   0.4860741814761910E+00
   0.4863473321121389E+00
   0.4453025380230775E+00
   0.4698446888618976E+00
   0.4891585191323182E+00
   0.4880234325545316E+00
   0.4508541993394676E+00
   0.4675635715529249E+00
   0.4875638098848915E+00
   0.4867846705026643E+00
   0.4910070761261068E+00
   0.4794303209745285E+00
   0.4668009667400250E+00
   0.3794183383779705E+00
   0.4896737063033092E+00
   0.4493542213372780E+00
   0.4441330466511452E+00
   0.4845044464299590E+00
   0.4634869328070682E+00
   0.4670678933360735E+00
   0.4748190092187118E+00
   0.4893617548911677E+00
   0.5086596074820829E+00
   0.4339262713867905E+00
   0.4926474816558927E+00
   0.5329860891805849E+00
   0.4918407844482470E+00
   0.5207224501416176E+00
   0.5065004762428217E+00
   0.5670296823592632E+00
   0.5283167984903874E+00
   0.5014208324588371E+00
   0.5802774553237420E+00
   0.5677865474657962E+00
   0.3413713419644930E+00
   0.3799191815345313E+00
   0.5737491346125251E+00
   0.5664341419380988E+00
   0.5693347635684991E+00
   0.5290190586276526E+00
   0.5447941407380906E+00
   0.5714556246553927E+00
   0.5388201780290448E+00
   0.5474922102112342E+00
   0.5819849040898076E+00
   0.4927287445170542E+00
   0.5038081361738790E+00
   0.4963777805963598E+00
   0.5560551742845738E+00
   0.4759488689998013E+00
   0.4944703450298842E+00
   0.5492269732033714E+00
   0.5873511811810364E+00
   0.5827117378367325E+00
   0.5459119783462945E+00
   0.5779713469482003E+00
   0.5101703932281345E+00
   0.5024518106143738E+00
   0.5028207582196051E+00
   0.5662368374369748E+00
   0.5559265056466083E+00
   0.4944845324895588E+00
   0.5501273441581859E+00
   0.5508114154785669E+00
   0.5651747165724446E+00
   0.4913641464597232E+00
   0.4930968995158099E+00
   0.3887840310101777E+00
   0.3712671997344076E+00
   0.5569996398976156E+00
   0.5753868691788138E+00
   0.4190741677272901E+00
   0.5815029705304088E+00
   0.4282091018382852E+00
   0.5390672020674948E+00
   0.5018184739416092E+00
   0.5109974191663817E+00
   0.5042138094608108E+00
   0.5729366098250781E+00
   0.5854507375270656E+00
   0.5377005186144154E+00
   0.5657930586494644E+00
   0.5353592578780911E+00
   0.5338428451490506E+00
   0.5573228452164828E+00
   0.5505141601486835E+00
   0.4278589447176741E+00
   0.5263781253668562E+00
   0.5780468345869242E+00
   0.3349063548868199E+00
   0.4756038253098478E+00
   0.5450194240420125E+00
   0.4812880020504555E+00
   0.3028624666626733E+00
   0.5042224178107408E+00
   0.5010712475694938E+00
   0.5127451430243268E+00
   0.5402571479361007E+00
   0.3462531770644546E+00
   0.3437558827033609E+00
   0.3211894755068119E+00
   0.5065066593048440E+00
   0.5132480548566161E+00
   0.5328474636426548E+00
   0.5867050686453322E+00
   0.4641292924580152E+00
   0.3573061438032150E+00
SCALARS v double 1
LOOKUP_TABLE default
   0.0000000000000000E+00
   0.0000000000000000E+00
   0.0000000000000000E+00
   0.0000000000000000E+00
   0.0000000000000000E+00
   0.0000000000000000E+00
   0.0000000000000000E+00
   0.0000000000000000E+00
   0.0000000000000000E+00
   0.0000000000000000E+00
   0.0000000000000000E+00
   0.0000000000000000E+00
   0.0000000000000000E+00
   0.0000000000000000E+00
   0.0000000000000000E+00
   0.0000000000000000E+00
   0.0000000000000000E+00
   0.0000000000000000E+00
   0.0000000000000000E+00
   0.0000000000000000E+00
   0.0000000000000000E+00
   0.0000000000000000E+00
   0.0000000000000000E+00
   0.0000000000000000E+00
   0.0000000000000000E+00
   0.0000000000000000E+00
   0.0000000000000000E+00
   0.0000000000000000E+00
   0.0000000000000000E+00
   0.0000000000000000E+00
   0.0000000000000000E+00
   0.0000000000000000E+00
   0.0000000000000000E+00
   0.0000000000000000E+00
   0.0000000000000000E+00
   0.0000000000000000E+00
   0.0000000000000000E+00
   0.0000000000000000E+00
   0.0000000000000000E+00
   0.0000000000000000E+00
   0.0000000000000000E+00
   0.0000000000000000E+00
   0.0000000000000000E+00
   0.0000000000000000E+00
   0.0000000000000000E+00
   0.0000000000000000E+00
   0.0000000000000000E+00
   0.0000000000000000E+00
   0.0000000000000000E+00
   0.0000000000000000E+00
   0.0000000000000000E+00
   0.0000000000000000E+00
   0.0000000000000000E+00
   0.0000000000000000E+00
   0.0000000000000000E+00
   0.0000000000000000E+00
   0.0000000000000000E+00
   0.0000000000000000E+00
   0.0000000000000000E+00
   0.0000000000000000E+00
   0.0000000000000000E+00
   0.1110944807493187E-02
   0.8894062427276201E-04
  -0.2256231031904393E-03
   0.0000000000000000E+00
   0.0000000000000000E+00
   0.0000000000000000E+00
   0.0000000000000000E+00
  -0.1826596330440190E-01
   0.5203830306611278E-03
   0.1878491880991292E-02
   0.1416255088489190E-01
  -0.6501997850560060E-02
  -0.6389586132298569E-02
  -0.1279767719108680E-01
   0.4370092557452643E-02
   0.8687743995414729E-03
   0.2912660600866370E-02
   0.1721176749958253E-02
   0.2390059991522318E-02
   0.1806295066885971E-02
  -0.7239135723116778E-02
  -0.7923524642205636E-03
   0.3835177389412445E-02
  -0.1118304359376410E-02
  -0.4335735693426875E-03
  -0.4122207854083002E-03
   0.8238327828167022E-03
   0.0000000000000000E+00
   0.0000000000000000E+00
   0.0000000000000000E+00
   0.0000000000000000E+00
   0.7713153185947088E-03
   0.1446855552166882E-02
  -0.1432454322808645E-02
  -0.1830682144091839E-03
  -0.6368229139328766E-03
   0.1554292923846214E-06
   0.1570368739922220E-03
  -0.1281326301541009E-03
  -0.1980906605930144E-03
  -0.5812876520490589E-03
   0.8187273652078257E-03
  -0.2009822802729484E-02
   0.6577135324405913E-03
   0.2670102052408896E-03
  -0.4122143742666418E-03
  -0.4041753397209899E-03
   0.0000000000000000E+00
   0.0000000000000000E+00
   0.0000000000000000E+00
  -0.8245146441031052E-03
  -0.7840960350658352E-02
   0.1754776360471947E-01
  -0.2303298096966345E-03
  -0.1392075974150743E-02
  -0.2132240674518906E-02
  -0.5225451631554539E-02
  -0.1867543397103712E-02
  -0.6503281497503561E-02
  -0.4080685688957102E-02
   0.1637819166829477E-02
   0.3279795299196697E-01
   0.3403928744319030E-04
  -0.2137299678173476E-02
   0.4117272987223284E-02
   0.3975298673242786E-03
   0.0000000000000000E+00
   0.0000000000000000E+00
   0.0000000000000000E+00
   0.0000000000000000E+00
   0.0000000000000000E+00
   0.0000000000000000E+00
   0.0000000000000000E+00
   0.0000000000000000E+00
   0.0000000000000000E+00
   0.0000000000000000E+00
   0.0000000000000000E+00
   0.0000000000000000E+00
   0.0000000000000000E+00
   0.0000000000000000E+00
   0.0000000000000000E+00
   0.0000000000000000E+00
   0.0000000000000000E+00
   0.4616975181819648E-02
   0.3357845424508653E-02
   0.8115582387793438E-02
   0.5759262478529537E-02
   0.1133093140809521E-01
   0.1381895392318340E-01
  -0.1135117710560632E-02
   0.5476402069606054E-02
   0.3081290780080289E-02
   0.3702009415490570E-02
   0.3533064945822722E-02
  -0.1539744675099576E-01
  -0.6072392099654469E-03
   0.6600773061338772E-02
   0.1225967826722848E-02
   0.2048810939093390E-02
   0.4111602254719897E-02
  -0.2954721454557311E-02
   0.1551222772286508E-02
   0.3142034556320853E-02
   0.1844151263026648E-02
   0.1980344398415167E-02
   0.1905421294967357E-02
   0.2340303324739888E-02
   0.8854545345107394E-02
  -0.3596672695694806E-02
   0.6173453772283117E-02
  -0.2538597923683085E-04
  -0.5217189042271726E-03
  -0.1694694266701295E-01
  -0.5238548362536550E-02
  -0.5401912112963933E-02
   0.3390622974926619E-02
  -0.6456337976012924E-02
  -0.2496867275667838E-03
  -0.3423380087579792E-01
  -0.2794928378108937E-02
   0.4829281680242355E-02
   0.1165738612872293E-02
   0.2409666431896417E-02
   0.3800483061774206E-02
   0.2521483326717772E-02
   0.2787006709994195E-02
   0.4652276077004706E-02
   0.1860294814759058E-02
   0.5598144753303006E-03
   0.1109449301093582E-03
  -0.5015274383417487E-02
  -0.6123223525643557E-02
  -0.7179794693473295E-03
   0.7534681865219605E-03
  -0.1629172464686165E-02
  -0.3315608062114510E-02
  -0.2686693025969437E-02
  -0.4637902102534067E-02
  -0.7870486832301900E-02
  -0.1984609530800143E-02
   0.7342676234749517E-03
  -0.4820014739629192E-04
   0.8017465967675522E-03
  -0.3054426302392443E-02
   0.5726048209089860E-02
  -0.8604835652066154E-02
   0.1214044104044195E-03
  -0.2437893824035932E-03
   0.2381684836147323E-02
   0.1773419313448989E-02
   0.2220241685685989E-02
  -0.5479036204588430E-02
SCALARS w double 1
LOOKUP_TABLE default
   0.0000000000000000E+00
   0.0000000000000000E+00
   0.0000000000000000E+00
   0.0000000000000000E+00
   0.0000000000000000E+00
   0.0000000000000000E+00
   0.0000000000000000E+00
   0.0000000000000000E+00
   0.0000000000000000E+00
   0.0000000000000000E+00
   0.0000000000000000E+00
   0.0000000000000000E+00
   0.0000000000000000E+00
   0.0000000000000000E+00
   0.0000000000000000E+00
   0.0000000000000000E+00
   0.0000000000000000E+00
   0.0000000000000000E+00
   0.0000000000000000E+00
   0.0000000000000000E+00
   0.0000000000000000E+00
   0.0000000000000000E+00
   0.0000000000000000E+00
   0.0000000000000000E+00
   0.0000000000000000E+00
   0.0000000000000000E+00
   0.0000000000000000E+00
   0.0000000000000000E+00
   0.0000000000000000E+00
   0.0000000000000000E+00
   0.0000000000000000E+00
   0.0000000000000000E+00
   0.0000000000000000E+00
  -0.9793387885798631E-01
  -0.4158652080363114E-01
  -0.2643200826308698E-03
   0.4776968893474574E-02
   0.2336530967186463E-02
   0.2066946199379789E-02
   0.3698109363691472E-02
   0.4497601798448184E-02
   0.8752498545327433E-03
   0.3710510011487498E-02
   0.4555783649712800E-01
   0.6454513636658095E-01
   0.1417952772730888E-02
  -0.2246873523288932E-01
   0.4383443070996937E-02
   0.1306963530372542E-01
   0.1014724332386170E-01
   0.4836323712359539E-01
   0.2042153310374873E-02
  -0.5983567514468666E-02
  -0.3671687867450343E-03
   0.6866346405026728E-03
   0.3705292429097408E-02
  -0.3772537518499483E-01
   0.1772882157926429E-01
   0.1080267797165714E-01
   0.3306513085339275E-01
   0.8295032170688712E-02
   0.4265551506203214E-02
   0.4617427805179151E-02
   0.4884783207961274E-02
   0.5663977690909002E-02
   0.1691087747419308E-02
  -0.4052102398427826E-01
  -0.9691550238842198E-01
  -0.1096890447843813E+00
   0.4373725661410707E-02
   0.2875303108042365E-02
  -0.9736388286521837E-01
  -0.9617761294192337E-01
  -0.9618032399029781E-01
  -0.9224873761272613E-01
  -0.6624934297584514E-01
   0.3937943098323251E-02
  -0.1958109062045828E-01
  -0.1613555010355159E-01
  -0.7363644185610990E-02
   0.5393789481299783E-02
  -0.7799400371602604E-01
  -0.2811874297946506E-01
  -0.7850874691730746E-01
  -0.5795367591711035E-01
   0.4480258604319746E-02
   0.3182641528425529E-02
   0.3181670333823949E-02
   0.4452986816064677E-02
   0.3707631614179115E-02
   0.9145224717657446E-03
   0.1024229876018960E-02
   0.3497665179844834E-02
   0.5421220871646212E-02
   0.4199489109193395E-02
   0.3488250722578912E-02
   0.1479916626492857E-02
   0.3869357760286609E-02
   0.1323526935532085E-02
   0.4042516071262847E-03
   0.5468667964106038E-02
   0.2804196161385897E-02
   0.2554744828828150E-02
   0.5857587302316260E-02
   0.1779115911851460E-02
   0.2308782691601379E-02
   0.2015540118825636E-02
   0.8912501049811550E-03
   0.8439718151579845E-01
   0.2689248657568753E-02
  -0.8532159905322858E-03
   0.2965013824250340E-03
   0.1406940844505027E+00
   0.1228215763336500E+00
  -0.1103850463799873E-02
  -0.4226933955961461E-02
   0.1938024455873600E-03
  -0.6072658427275381E-02
  -0.1406601266413610E-02
   0.1562297187117229E+00
   0.7533013573968231E-01
   0.2578699969394353E-01
   0.1655557634414457E+00