# vtk DataFile Version 2.0
FUN3D:global_image_vtk
ASCII
DATASET UNSTRUCTURED_GRID
POINTS 213 double
    0.0000000000000000E+00    0.2500000000000000E+01    0.0000000000000000E+00
    0.1250000000000000E+01    0.2500000000000000E+01    0.0000000000000000E+00
    0.2500000000000000E+01    0.2500000000000000E+01    0.0000000000000000E+00
    0.3750000000000000E+01    0.2500000000000000E+01    0.0000000000000000E+00
    0.5000000000000000E+01    0.2500000000000000E+01    0.0000000000000000E+00
    0.5000000000000000E+01    0.1250000000000000E+01    0.0000000000000000E+00
    0.5000000000000000E+01    0.0000000000000000E+00    0.0000000000000000E+00
    0.5000000000000000E+01   -0.1250000000000000E+01    0.0000000000000000E+00
    0.5000000000000000E+01   -0.2500000000000000E+01    0.0000000000000000E+00
    0.3750000000000000E+01   -0.2500000000000000E+01    0.0000000000000000E+00
    0.2500000000000000E+01   -0.2500000000000000E+01    0.0000000000000000E+00
    0.1250000000000000E+01   -0.2500000000000000E+01    0.0000000000000000E+00
    0.0000000000000000E+00   -0.2500000000000000E+01    0.0000000000000000E+00
    0.0000000000000000E+00   -0.1250000000000000E+01    0.0000000000000000E+00
    0.0000000000000000E+00    0.0000000000000000E+00    0.0000000000000000E+00
    0.0000000000000000E+00    0.1250000000000000E+01    0.0000000000000000E+00
    0.9058375365086910E+00    0.1578994732800803E+01    0.0000000000000000E+00
    0.3982050490726493E+01   -0.1583989954232354E+01    0.0000000000000000E+00
    0.4033849428301197E+01    0.1453322699199022E+01    0.0000000000000000E+00
    0.1040505887381675E+01   -0.1479596339503735E+01    0.0000000000000000E+00
    0.1099454400140349E+01   -0.3227322616384110E+00    0.0000000000000000E+00
    0.7354504170366591E+00    0.6593508822075582E+00    0.0000000000000000E+00
    0.1622302608453282E+01    0.8256214013940779E+00    0.0000000000000000E+00
    0.2145871574390382E+01   -0.1650070333782557E+01    0.0000000000000000E+00
    0.4086422318222992E+01   -0.4612828702537229E+00    0.0000000000000000E+00
    0.2979540174134984E+01   -0.8579242121530853E+00    0.0000000000000000E+00
    0.3045064261640043E+01   -0.1836846154397680E+01    0.0000000000000000E+00
    0.3428197553792836E+01    0.3508002863614053E+00    0.0000000000000000E+00
    0.4309693860063405E+01    0.5185680230613409E+00    0.0000000000000000E+00
    0.1827272193562204E+01    0.1738996113203182E+01    0.0000000000000000E+00
    0.2808563282768077E+01    0.1325493893339706E+01    0.0000000000000000E+00
    0.1895995683864404E+01   -0.8731419609589618E+00    0.0000000000000000E+00
    0.2273179336307740E+01    0.4906150219227333E-01    0.0000000000000000E+00
    0.5000000000000000E+01    0.2500000000000000E+01    0.1250000000000000E+01
    0.5000000000000000E+01    0.2500000000000000E+01    0.2500000000000000E+01
    0.5000000000000000E+01    0.2500000000000000E+01    0.3750000000000000E+01
    0.5000000000000000E+01    0.2500000000000000E+01    0.5000000000000000E+01
    0.3750000000000000E+01    0.2500000000000000E+01    0.5000000000000000E+01
    0.2500000000000000E+01    0.2500000000000000E+01    0.5000000000000000E+01
    0.1250000000000000E+01    0.2500000000000000E+01    0.5000000000000000E+01
    0.0000000000000000E+00    0.2500000000000000E+01    0.5000000000000000E+01
    0.0000000000000000E+00    0.2500000000000000E+01    0.3750000000000000E+01
    0.0000000000000000E+00    0.2500000000000000E+01    0.2500000000000000E+01
    0.0000000000000000E+00    0.2500000000000000E+01    0.1250000000000000E+01
    0.9631080833812172E+00    0.2500000000000000E+01    0.9613285771248219E+00
    0.3981732467264904E+01    0.2500000000000000E+01    0.4069753913607991E+01
    0.4035525118777670E+01    0.2500000000000000E+01    0.1012015867579395E+01
    0.9641717640894248E+00    0.2500000000000000E+01    0.3972455192261839E+01
    0.1547743040396780E+01    0.2500000000000000E+01    0.2928177746738678E+01
    0.6985170616192014E+00    0.2500000000000000E+01    0.3068281976055466E+01
    0.8931277594515110E+00    0.2500000000000000E+01    0.2052465503257726E+01
    0.2183293750162785E+01    0.2500000000000000E+01    0.3959073795658649E+01
    0.3855333506014705E+01    0.2500000000000000E+01    0.2931218481500625E+01
    0.3152495579421047E+01    0.2500000000000000E+01    0.3635850502723324E+01
    0.3103247580566054E+01    0.2500000000000000E+01    0.4331682712472464E+01
    0.3266837581688852E+01    0.2500000000000000E+01    0.1886092433583972E+01
    0.4231539241296245E+01    0.2500000000000000E+01    0.1915865356532799E+01
    0.1909741006522088E+01    0.2500000000000000E+01    0.7170024419130505E+00
    0.2880784107213163E+01    0.2500000000000000E+01    0.9046598906449592E+00
    0.2014316024535771E+01    0.2500000000000000E+01    0.1762464314805728E+01
    0.2670003247036656E+01    0.2500000000000000E+01    0.2850479545835163E+01
    0.5000000000000000E+01    0.1250000000000000E+01    0.5000000000000000E+01
    0.5000000000000000E+01    0.0000000000000000E+00    0.5000000000000000E+01
    0.5000000000000000E+01   -0.1250000000000000E+01    0.5000000000000000E+01
    0.5000000000000000E+01   -0.2500000000000000E+01    0.5000000000000000E+01
    0.5000000000000000E+01   -0.2500000000000000E+01    0.3750000000000000E+01
    0.5000000000000000E+01   -0.2500000000000000E+01    0.2500000000000000E+01
    0.5000000000000000E+01   -0.2500000000000000E+01    0.1250000000000000E+01
    0.5000000000000000E+01    0.1578994732800803E+01    0.9058375365086910E+00
    0.5000000000000000E+01   -0.1583989954232354E+01    0.3982050490726493E+01
    0.5000000000000000E+01    0.1453322699199022E+01    0.4033849428301197E+01
    0.5000000000000000E+01   -0.1479596339503735E+01    0.1040505887381675E+01
    0.5000000000000000E+01   -0.3227322616384110E+00    0.1099454400140349E+01
    0.5000000000000000E+01    0.6593508822075582E+00    0.7354504170366591E+00
    0.5000000000000000E+01    0.8256214013940779E+00    0.1622302608453282E+01
    0.5000000000000000E+01   -0.1650070333782557E+01    0.2145871574390382E+01
    0.5000000000000000E+01   -0.4612828702537229E+00    0.4086422318222992E+01
    0.5000000000000000E+01   -0.8579242121530853E+00    0.2979540174134984E+01
    0.5000000000000000E+01   -0.1836846154397680E+01    0.3045064261640043E+01
    0.5000000000000000E+01    0.3508002863614053E+00    0.3428197553792836E+01
    0.5000000000000000E+01    0.5185680230613409E+00    0.4309693860063405E+01
    0.5000000000000000E+01    0.1738996113203182E+01    0.1827272193562204E+01
    0.5000000000000000E+01    0.1325493893339706E+01    0.2808563282768077E+01
    0.5000000000000000E+01   -0.8731419609589618E+00    0.1895995683864404E+01
    0.5000000000000000E+01    0.4906150219227333E-01    0.2273179336307740E+01
    0.0000000000000000E+00    0.1250000000000000E+01    0.5000000000000000E+01
    0.0000000000000000E+00    0.0000000000000000E+00    0.5000000000000000E+01
    0.0000000000000000E+00   -0.1250000000000000E+01    0.5000000000000000E+01
    0.0000000000000000E+00   -0.2500000000000000E+01    0.5000000000000000E+01
    0.1250000000000000E+01   -0.2500000000000000E+01    0.5000000000000000E+01
    0.2500000000000000E+01   -0.2500000000000000E+01    0.5000000000000000E+01
    0.3750000000000000E+01   -0.2500000000000000E+01    0.5000000000000000E+01
    0.4042003247744892E+01    0.1558308132739014E+01    0.5000000000000000E+01
    0.9304122287900499E+00   -0.1548001304379777E+01    0.5000000000000000E+01
    0.1037243024609388E+01    0.1462892710085612E+01    0.5000000000000000E+01
    0.3946240828834967E+01   -0.1445243809615570E+01    0.5000000000000000E+01
    0.4092527262848217E+01   -0.3455338993778935E+00    0.5000000000000000E+01
    0.4293103109154542E+01    0.6277660831404320E+00    0.5000000000000000E+01
    0.3241512314643519E+01    0.7429886854239611E+00    0.5000000000000000E+01
    0.2844289952419609E+01   -0.1588117879734118E+01    0.5000000000000000E+01
    0.7159905765450471E+00   -0.6002320124191652E+00    0.5000000000000000E+01
    0.1754341919796891E+01   -0.7398147869923652E+00    0.5000000000000000E+01
    0.1870296826774691E+01   -0.1788622905643739E+01    0.5000000000000000E+01
    0.9220614901912976E+00    0.3083720183248586E+00    0.5000000000000000E+01
    0.3101523624086016E+01    0.1777901774806180E+01    0.5000000000000000E+01
    0.2192512063922564E+01    0.1576861561598471E+01    0.5000000000000000E+01
    0.2024793420196460E+01    0.4773861992750707E+00    0.5000000000000000E+01
    0.2990627757741975E+01   -0.4878110785814084E+00    0.5000000000000000E+01
    0.0000000000000000E+00   -0.2500000000000000E+01    0.1250000000000000E+01
    0.0000000000000000E+00   -0.2500000000000000E+01    0.2500000000000000E+01
    0.0000000000000000E+00   -0.2500000000000000E+01    0.3750000000000000E+01
    0.0000000000000000E+00    0.1558308132739014E+01    0.4042003247744892E+01
    0.0000000000000000E+00   -0.1548001304379777E+01    0.9304122287900499E+00
    0.0000000000000000E+00    0.1462892710085612E+01    0.1037243024609388E+01
    0.0000000000000000E+00   -0.1445243809615570E+01    0.3946240828834967E+01
    0.0000000000000000E+00   -0.3455338993778935E+00    0.4092527262848217E+01
    0.0000000000000000E+00    0.6277660831404320E+00    0.4293103109154542E+01
    0.0000000000000000E+00    0.7429886854239611E+00    0.3241512314643519E+01
    0.0000000000000000E+00   -0.1588117879734118E+01    0.2844289952419609E+01
    0.0000000000000000E+00   -0.6002320124191652E+00    0.7159905765450471E+00
    0.0000000000000000E+00   -0.7398147869923652E+00    0.1754341919796891E+01
    0.0000000000000000E+00   -0.1788622905643739E+01    0.1870296826774691E+01
    0.0000000000000000E+00    0.3083720183248586E+00    0.9220614901912976E+00
    0.0000000000000000E+00    0.1777901774806180E+01    0.3101523624086016E+01
    0.0000000000000000E+00    0.1576861561598471E+01    0.2192512063922564E+01
[...]
POINT_DATA 213
SCALARS rho double 1
LOOKUP_TABLE default
   0.1344271208102525E+01
   0.9569753653691500E+00
   0.9462958460258749E+00
   0.9418607955268529E+00
   0.8437304653844174E+00
   0.7737999608897023E+00
   0.7629812986178662E+00
   0.7664566202062509E+00
   0.8307870613407478E+00
   0.9352971433523249E+00
   0.9342214690234456E+00
   0.9617188870202664E+00
   0.1449457025004413E+01
   0.1494090132401557E+01
   0.1644666856667671E+01
   0.1425831829633531E+01
   0.1009013941612653E+01
   0.9508806821432122E+00
   0.9436506542606738E+00
   0.9581556327967975E+00
   0.9415847364044445E+00
   0.1036376811843372E+01
   0.9256155180220494E+00
   0.9322343750919485E+00
   0.9537476552186596E+00
   0.9518766713940543E+00
   0.9348579469011911E+00
   0.9564026835973604E+00
   0.9376096217870271E+00
   0.9300655879490890E+00
   0.9445152925675847E+00
   0.8863500455158786E+00
   0.9423576194911883E+00
   0.9635049394254974E+00
   0.1008297547080742E+01
   0.1006736524526275E+01
   0.1001962597734727E+01
   0.1003217541982868E+01
   0.1004131523217721E+01
   0.1005228017021879E+01
   0.1004260078603688E+01
   0.1008307819636273E+01
   0.1023892679715700E+01
   0.1063553379263794E+01
   0.1019182198828652E+01
   0.1001781828149286E+01
   0.9643370749576267E+00
   0.1005283223650975E+01
   0.1000720594726489E+01
   0.1008741628373917E+01
   0.1008077615315383E+01
   0.1002349080960929E+01
   0.9979976478067941E+00
   0.1000582805716791E+01
   0.1001619699994467E+01
   0.9826888155999133E+00
   0.9842444303375901E+00
   0.9833309160505359E+00
   0.9788228461409736E+00
   0.9902631161165412E+00
   0.9934556333320295E+00
   0.1002008567415986E+01
   0.1002131937621570E+01
   0.1002273868407099E+01
   0.1001792588392699E+01
   0.1009780380577526E+01
   0.1006428770855508E+01
   0.9558785329818984E+00
   0.9249414596696477E+00
   0.1007037222688745E+01
   0.1004506706930858E+01
   0.9143642033919425E+00
   0.9089674243817106E+00
   0.8751689910220689E+00
   0.9767263160377456E+00
   0.1000451720855095E+01
   0.1005832110594340E+01
   0.1012882859547679E+01
   0.1011619456425065E+01
   0.1010439651475203E+01
   0.1005469850601076E+01
   0.9907607348400782E+00
   0.1005139244673779E+01
   0.9860561063001917E+00
   0.1005608731314132E+01
   0.1004247665058331E+01
   0.1002888227833958E+01
   0.1003345233639558E+01
   0.1003992934824012E+01
   0.1005101252093452E+01
   0.1003211245479460E+01
   0.1002660999919975E+01
   0.1002582352509579E+01
   0.1004060478841620E+01
   0.1004319750306946E+01
   0.1001639798421931E+01
   0.1002269923843317E+01
   0.1002539698944869E+01
   0.1003467879652332E+01
   0.1003371755021429E+01
   0.1003231840542393E+01
   0.1004423355948910E+01
   0.1004312869548050E+01
   0.1003659577334528E+01
   0.1003722447087811E+01
   0.1004328701749353E+01
   0.1004464189748425E+01
   0.1003622266373628E+01
   0.1064422805675272E+01
   0.1028473136612853E+01
   0.1009586336719605E+01
   0.1006638479258791E+01
   0.1163935046715095E+01
   0.1086087624318802E+01
   0.1007893018291191E+01
   0.1007245102663249E+01
   0.1006797771188589E+01
   0.1013017832564877E+01
   0.1019384062731251E+01
   0.1235203385282255E+01
   0.1032529210001643E+01
   0.1046680597854193E+01
   0.1200953381119413E+01
   0.1014718475754636E+01
   0.1032290601925333E+01
   0.1028094682721066E+01
   0.1014628089809672E+01
   0.1029216450211173E+01
   0.1001995313609883E+01
   0.9606935928795047E+00
   0.1006852001621787E+01
   0.1001326718708158E+01
   0.1010821283693060E+01
   0.1012245682217868E+01
   0.1000945521202097E+01
   0.9979118584685479E+00
   0.9980626117891278E+00
   0.1001183410873929E+01
   0.9841357042877542E+00
   0.9814876452178125E+00
   0.9648480950307663E+00
   0.9680872730290565E+00
   0.9914121516907345E+00
   0.9910855269257872E+00
   0.9925540310081902E+00
   0.1001726950771529E+01
   0.9993403999753075E+00
   0.9941406545052636E+00
   0.1007038267210872E+01
   0.1022539075194378E+01
   0.1001087798958123E+01
   0.1008797957770427E+01
   0.1004773313182811E+01
   0.1009049752607823E+01
   0.9966466435631222E+00
   0.1004988210669451E+01
   0.1003325054024095E+01
   0.9949426557141862E+00
   0.9832678208987232E+00
   0.9943951203909859E+00
   0.9973415609108347E+00
   0.9932183039149584E+00
   0.1001305687179810E+01
   0.1003001012542111E+01
   0.1002183019036821E+01
   0.9947076969688842E+00
   0.9937961218554525E+00
   0.1004867356996130E+01
   0.1020077193856048E+01
   0.1005364189541238E+01
   0.9816994965341647E+00
   0.1004972507139592E+01
   0.1012381721881632E+01
   0.9871421271541420E+00
   0.9551509551543608E+00
   0.9865071476200029E+00
   0.9864529268004667E+00
   0.9918942184113674E+00
   0.9933504726196808E+00
   0.9954401741885656E+00
   0.1037336480748610E+01
   0.1033536384528311E+01
   0.1001443721259322E+01
   0.1001929834899174E+01
   0.9912472975369118E+00
   0.9910915032683256E+00
   0.9648483299782636E+00
   0.9933277824003209E+00
   0.1006058688376630E+01
   0.1001953965954768E+01
   0.9908730288378547E+00
   0.9740944809088855E+00
   0.9418804192151806E+00
   0.9819375026774130E+00
   0.9794798827153012E+00
   0.9704169882297388E+00
   0.9720473134003634E+00
   0.9557349862141824E+00
   0.9496732347584804E+00
   0.9528674735412472E+00
   0.1002658943282267E+01
   0.1002470941023092E+01
   0.1000509066259867E+01
   0.1001677410819092E+01
   0.9607925482454484E+00
   0.9491634576493903E+00
   0.9584505332998877E+00
   0.1001120983731246E+01
   0.1000495893862070E+01
   0.1001156198432597E+01
   0.9807373265709112E+00
   0.9805995710386652E+00
   0.9628478411609547E+00
SCALARS u double 1
LOOKUP_TABLE default
   0.0000000000000000E+00
   0.0000000000000000E+00
   0.0000000000000000E+00
   0.0000000000000000E+00
   0.0000000000000000E+00
   0.0000000000000000E+00
   0.0000000000000000E+00
   0.0000000000000000E+00
   0.0000000000000000E+00
   0.0000000000000000E+00
   0.0000000000000000E+00
   0.0000000000000000E+00
   0.0000000000000000E+00
   0.0000000000000000E+00
   0.0000000000000000E+00
   0.0000000000000000E+00
   0.0000000000000000E+00
   0.0000000000000000E+00
   0.0000000000000000E+00
   0.0000000000000000E+00
   0.0000000000000000E+00
   0.0000000000000000E+00
   0.0000000000000000E+00
   0.0000000000000000E+00
   0.0000000000000000E+00
   0.0000000000000000E+00
   0.0000000000000000E+00
   0.0000000000000000E+00
   0.0000000000000000E+00
   0.0000000000000000E+00
   0.0000000000000000E+00
   0.0000000000000000E+00
   0.0000000000000000E+00
   0.4950110137145167E+00
   0.5338225450805043E+00
   0.5183272201533501E+00
   0.4930668744945941E+00
   0.4847615484331294E+00
   0.4867708652018801E+00
   0.4890781399149277E+00
   0.4957852387106308E+00
   0.4898308253365005E+00
   0.4717392716010849E+00
   0.4454820092586710E+00
   0.4833909693290260E+00
   0.5098448340015207E+00
   0.4390689334653439E+00
   0.4949406632232763E+00
   0.5225336460830123E+00
   0.4962460560232133E+00
   0.5226160335314359E+00
   0.5038889834266975E+00
   0.5646883773880248E+00
   0.5247516906900853E+00
   0.4991503247896922E+00
   0.5730562760478719E+00
   0.5696032649010108E+00
   0.3737941481106536E+00
   0.3998649567286529E+00
   0.5599333489959498E+00
   0.5564591911320144E+00
   0.4942646007764241E+00
   0.4948669616527840E+00
   0.4925722795401646E+00
   0.4914259436557777E+00
   0.5162367827122341E+00
   0.5361799213394273E+00
   0.4947403934627072E+00
   0.4524087683844763E+00
   0.5128784556398435E+00
   0.5117944342821337E+00
   0.4783506586885215E+00
   0.4931686308526335E+00
   0.4603167345057576E+00
   0.5244892853925962E+00
   0.5297435782128094E+00
   0.5129577277744469E+00
   0.5328357021590019E+00
   0.5308945472175438E+00
   0.5309850996565701E+00
   0.5063656844574231E+00
   0.5282454137705124E+00
   0.5410314680955991E+00
   0.5361259218691434E+00
   0.5374106356858814E+00
   0.4965368167147222E+00
   0.4975343343087926E+00
   0.4963843264398651E+00
   0.4955221094833014E+00
   0.4904588021665116E+00
   0.4903057947280808E+00
   0.4862158703034561E+00
   0.4854072200812238E+00
   0.4932172235527344E+00
   0.4909844513973707E+00
   0.4832164991592048E+00
   0.4872625899028647E+00
   0.4880148003111312E+00
   0.4872477242822887E+00
   0.4882690328731752E+00
   0.4952602390897256E+00
   0.4900976089103252E+00
   0.4904008967477958E+00
   0.4944239626801895E+00
   0.4868046652002163E+00
   0.4892409163273653E+00
   0.4881405476281795E+00
   0.4878464083567076E+00
   0.4446864136635394E+00
   0.4700033913060803E+00
   0.4892002186733976E+00
   0.4885244056157627E+00
   0.4506542232667308E+00
   0.4687377379640675E+00
   0.4877011041566531E+00
   0.4868355581387108E+00
   0.4908993812543447E+00
   0.4793557145002850E+00
   0.4658078895201616E+00
   0.3792728871695732E+00
   0.4901597506791253E+00
   0.4486692408682202E+00
   0.4436142193676589E+00
   0.4845151870003669E+00
   0.4621829422676743E+00
   0.4665756931659243E+00
   0.4748147317578010E+00
   0.4894497513866963E+00
   0.5085609644967647E+00
   0.4315071847886777E+00
   0.4927356291835859E+00
   0.5318295951327369E+00
   0.4913405853758119E+00
   0.5207023235033050E+00
   0.5060988232621763E+00
   0.5688805977450089E+00
   0.5274018788660626E+00
   0.5015077355176241E+00
   0.5821787293796264E+00
   0.5689608800603272E+00
   0.3406396588015943E+00
   0.3789867446920812E+00
   0.5751961258193609E+00
   0.5666490232680683E+00
   0.5704107660776773E+00
   0.5291061772125900E+00
   0.5451907103072534E+00
   0.5718807982726972E+00
   0.5389084364907594E+00
   0.5475510982632702E+00
   0.5821718717813922E+00
   0.4925606393985267E+00
   0.5042161174971128E+00
   0.4961740395315442E+00
   0.5565212879147147E+00
   0.4758848616047114E+00
   0.4950282846454532E+00
   0.5498526890192414E+00
   0.5891201067568645E+00
   0.5841957167489590E+00
   0.5469100835344877E+00
   0.5805414046874896E+00
   0.5106265300664152E+00
   0.5030213710419097E+00
   0.5033662723783586E+00
   0.5676438117450822E+00
   0.5563948695918798E+00
   0.4947260785766197E+00
   0.5505248452421068E+00
   0.5510860368614994E+00
   0.5657353191893548E+00
   0.4920076891887551E+00
   0.4927303928349384E+00
   0.3865146830993716E+00
   0.3687760132159417E+00
   0.5574923631176750E+00
   0.5763759202741097E+00
   0.4194306389466200E+00
   0.5824846976479299E+00
   0.4265214305169532E+00
   0.5392804296126498E+00
   0.5012038369865006E+00
   0.5119550874999248E+00
   0.5049134346582939E+00
   0.5751969833688233E+00
   0.5876371201622670E+00
   0.5379899780603019E+00
   0.5677471391013652E+00
   0.5351265450930505E+00
   0.5338067790998509E+00
   0.5580313869801535E+00
   0.5512700826997592E+00
   0.4261841821275282E+00
   0.5273361162202755E+00
   0.5795709026324486E+00
   0.3318693595332239E+00
   0.4760282340411031E+00
   0.5446195802808346E+00
   0.4798326824398337E+00
   0.3005294981380994E+00
   0.5031061118636051E+00
   0.5017129527526664E+00
   0.5129058475950256E+00
   0.5414848409455602E+00
   0.3437605824809427E+00
   0.3397717778786062E+00
   0.3189926626620581E+00
   0.5065964662206242E+00
   0.5123517622299399E+00
   0.5330314336882049E+00
   0.5879311147390139E+00
   0.4644184198316273E+00
   0.3531279303797386E+00
SCALARS v double 1
LOOKUP_TABLE default
   0.0000000000000000E+00
   0.0000000000000000E+00
   0.0000000000000000E+00
   0.0000000000000000E+00
   0.0000000000000000E+00
   0.0000000000000000E+00
   0.0000000000000000E+00
   0.0000000000000000E+00
   0.0000000000000000E+00
   0.0000000000000000E+00
   0.0000000000000000E+00
   0.0000000000000000E+00
   0.0000000000000000E+00
   0.0000000000000000E+00
   0.0000000000000000E+00
   0.0000000000000000E+00
   0.0000000000000000E+00
   0.0000000000000000E+00
   0.0000000000000000E+00
   0.0000000000000000E+00
   0.0000000000000000E+00
   0.0000000000000000E+00
   0.0000000000000000E+00
   0.0000000000000000E+00
   0.0000000000000000E+00
   0.0000000000000000E+00
   0.0000000000000000E+00
   0.0000000000000000E+00
   0.0000000000000000E+00
   0.0000000000000000E+00
   0.0000000000000000E+00
   0.0000000000000000E+00
   0.0000000000000000E+00
   0.0000000000000000E+00
   0.0000000000000000E+00
   0.0000000000000000E+00
   0.0000000000000000E+00
   0.0000000000000000E+00
   0.0000000000000000E+00
   0.0000000000000000E+00
   0.0000000000000000E+00
   0.0000000000000000E+00
   0.0000000000000000E+00
   0.0000000000000000E+00
   0.0000000000000000E+00
   0.0000000000000000E+00
   0.0000000000000000E+00
   0.0000000000000000E+00
   0.0000000000000000E+00
   0.0000000000000000E+00
   0.0000000000000000E+00
   0.0000000000000000E+00
   0.0000000000000000E+00
   0.0000000000000000E+00
   0.0000000000000000E+00
   0.0000000000000000E+00
   0.0000000000000000E+00
   0.0000000000000000E+00
   0.0000000000000000E+00
   0.0000000000000000E+00
   0.0000000000000000E+00
   0.7979017816277717E-03
  -0.1328404926976095E-02
  -0.1331226183087549E-02
   0.0000000000000000E+00
   0.0000000000000000E+00
   0.0000000000000000E+00
   0.0000000000000000E+00
  -0.1922688862009302E-01
   0.4778632193042422E-03
   0.2183522563065096E-02
   0.1427267813427834E-01
  -0.6488826188847017E-02
  -0.7822180191741969E-02
  -0.1327763625236157E-01
   0.4914310409314712E-02
   0.6910808925060322E-03
   0.3434282834391330E-02
   0.1921126672099891E-02
   0.3148223479410081E-02
   0.1705222443904037E-02
  -0.7316874253618314E-02
  -0.7674077497136392E-04
   0.4468311557485561E-02
  -0.4386952435014910E-03
  -0.6346344041700989E-04
  -0.1963133619402793E-03
   0.8072420491237963E-03
   0.0000000000000000E+00
   0.0000000000000000E+00
   0.0000000000000000E+00
   0.0000000000000000E+00
   0.4251041284188839E-03
   0.1616516033320839E-02
  -0.1297234942813734E-02
  -0.1020900425674503E-02
  -0.2132689139508248E-02
  -0.1063558487799943E-02
  -0.8199895666255681E-03
  -0.7604492857423592E-03
   0.5199048082458774E-04
  -0.6237297695208960E-03
   0.7917300078050678E-03
  -0.1745017576857059E-02
   0.2737085950207400E-03
  -0.8978174781638766E-04
  -0.9420626195742723E-03
  -0.1098173974902916E-02
   0.0000000000000000E+00
   0.0000000000000000E+00
   0.0000000000000000E+00
  -0.1061656955606013E-02
  -0.7641218967186999E-02
   0.1860860300046690E-01
  -0.2837138020211517E-04
  -0.1383170202969626E-02
  -0.2034926370669866E-02
  -0.5666332012372848E-02
  -0.1585204280447687E-02
  -0.5947126434657933E-02
  -0.4160705594398550E-02
   0.1565585182960843E-02
   0.3329510606045642E-01
   0.3056735785830862E-04
  -0.2766910757290689E-02
   0.3566404671426402E-02
   0.3596838200286220E-03
   0.0000000000000000E+00
   0.0000000000000000E+00
   0.0000000000000000E+00
   0.0000000000000000E+00
   0.0000000000000000E+00
   0.0000000000000000E+00
   0.0000000000000000E+00
   0.0000000000000000E+00
   0.0000000000000000E+00
   0.0000000000000000E+00
   0.0000000000000000E+00
   0.0000000000000000E+00
   0.0000000000000000E+00
   0.0000000000000000E+00
   0.0000000000000000E+00
   0.0000000000000000E+00
   0.0000000000000000E+00
   0.5046967150215902E-02
   0.3230603419265137E-02
   0.8149094286306313E-02
   0.6168377152314446E-02
   0.1122926950599735E-01
   0.1429274499207287E-01
  -0.2038644082771502E-03
   0.5118189052258830E-02
   0.2914941124883544E-02
   0.3373532802336219E-02
   0.3728344177927955E-02
  -0.1465733619186448E-01
  -0.6160572127768156E-03
   0.6651716118862779E-02
   0.1542211064519225E-02
   0.1969584160729199E-02
   0.4266195722860003E-02
  -0.2790895308150799E-02
   0.1226797661824631E-02
   0.2819070564292131E-02
   0.1496955017615098E-02
   0.2575300837772528E-02
   0.2030367628487009E-02
   0.2118016499410616E-02
   0.8700445017963965E-02
  -0.3733305849360231E-02
   0.6241359692473943E-02
   0.2504139616832648E-04
  -0.3854562250573872E-03
  -0.1674687453450089E-01
  -0.4881897986279525E-02
  -0.4719789037747038E-02
   0.3445187686784298E-02
  -0.6135918171990273E-02
   0.9942844547873821E-04
  -0.3291388093928480E-01
  -0.3046155313558608E-02
   0.4722764313814722E-02
   0.9228893053744815E-03
   0.2112113971408519E-02
   0.4518570281259262E-02
   0.2720124646140054E-02
   0.3212464447458503E-02
   0.5200621780525667E-02
   0.1942088777178833E-02
   0.7315997640801072E-03
  -0.2603231649495814E-04
  -0.5375056511084493E-02
  -0.6959994874038755E-02
  -0.9444287628997153E-03
   0.1105334656797443E-02
  -0.2079991063500418E-02
  -0.3199648401351975E-02
  -0.2527749147630473E-02
  -0.4115443304587617E-02
  -0.7593834838806393E-02
  -0.1985953976278217E-02
   0.6237792213587139E-03
  -0.2233848694838975E-03
   0.1217004889095344E-02
  -0.3484298055655926E-02
   0.5228776622877097E-02
  -0.8487673455146583E-02
   0.2296261741375450E-04
  -0.3398900881267533E-03
   0.2542584479377982E-02
   0.1663465719841663E-02
   0.2021620537475362E-02
  -0.5620704347087102E-02
SCALARS w double 1
LOOKUP_TABLE default
   0.0000000000000000E+00
   0.0000000000000000E+00
   0.0000000000000000E+00
   0.0000000000000000E+00
   0.0000000000000000E+00
   0.0000000000000000E+00
   0.0000000000000000E+00
   0.0000000000000000E+00
   0.0000000000000000E+00
   0.0000000000000000E+00
   0.0000000000000000E+00
   0.0000000000000000E+00
   0.0000000000000000E+00
   0.0000000000000000E+00
   0.0000000000000000E+00
   0.0000000000000000E+00
   0.0000000000000000E+00
   0.0000000000000000E+00
   0.0000000000000000E+00
   0.0000000000000000E+00
   0.0000000000000000E+00
   0.0000000000000000E+00
   0.0000000000000000E+00
   0.0000000000000000E+00
   0.0000000000000000E+00
   0.0000000000000000E+00
   0.0000000000000000E+00
   0.0000000000000000E+00
   0.0000000000000000E+00
   0.0000000000000000E+00
   0.0000000000000000E+00
   0.0000000000000000E+00
   0.0000000000000000E+00
  -0.1007598496748295E+00
  -0.4249198336660982E-01
   0.7385934417955572E-03
   0.5730841552100914E-02
   0.5701813436486077E-03
   0.1607524121579834E-02
   0.3374082311543485E-02
   0.2371610330034299E-02
   0.4586905702919228E-03
   0.3518195691727898E-02
   0.4521846541527404E-01
   0.6522941642154782E-01
   0.8695991376954507E-03
  -0.2261164099495047E-01
   0.4316379452742894E-02
   0.1358718949107312E-01
   0.1039428530044348E-01
   0.4900544126327884E-01
   0.2437737290949781E-02
  -0.6508433012731465E-02
  -0.6996962137255863E-03
   0.3412757319275556E-03
   0.3904624709224569E-02
  -0.3893106857722341E-01
   0.1798170615204967E-01
   0.1119639955409163E-01
   0.3403780449993701E-01
   0.8439371681780741E-02
   0.4943175591295814E-02
   0.4974594560719798E-02
   0.4874421030208079E-02
   0.6029568469508346E-02
   0.2600926769747688E-02
  -0.4144409862971959E-01
  -0.9954192769573071E-01
  -0.1121675338540820E+00
   0.5073053461269660E-02
   0.4233770020523424E-02
  -0.1004726115868394E+00
  -0.9895147874240015E-01
  -0.9875398505975271E-01
  -0.9462371840912225E-01
  -0.6807077400409163E-01
   0.5157011300963596E-02
  -0.1935286231747794E-01
  -0.1575751590130154E-01
  -0.6002313412310034E-02
   0.6822543288100681E-02
  -0.8009898105309501E-01
  -0.2781045414454082E-01
  -0.8096363446447366E-01
  -0.5873208803847339E-01
   0.3083504752941522E-02
   0.2684895057886788E-02
   0.2640178827936784E-02
   0.3449253460790416E-02
   0.4006057830620837E-02
   0.1200315430475382E-02
  -0.1431860718442373E-03
   0.2043423835106087E-02
   0.4894928256888711E-02
   0.3856752672869548E-02
   0.1115557284106043E-02
   0.1185413150095038E-02
   0.1469053588080648E-02
  -0.1695052209469051E-04
   0.8935979203739313E-04
   0.4386213733738341E-02
   0.2715014325809766E-02
   0.2321633011603831E-02
   0.5009850861433565E-02
   0.1069772023148893E-02
   0.2711463447121930E-02
   0.2013457958914345E-02
   0.2863188545887619E-04
   0.8374603600152744E-01
   0.2793920525171542E-02
  -0.8348744732769863E-03
  -0.1493926284860639E-03
   0.1409540020803347E+00
   0.1239329773454968E+00
  -0.1219079483233768E-02
  -0.4381873024710793E-02
  -0.3040724237237270E-03
  -0.6512276540873887E-02
  -0.1949542035804356E-02
   0.1557630174037453E+00
   0.7489970856407892E-01
   0.2550186028361968E-01
   0.1656444445221834E+00