# vtk DataFile Version 2.0
FUN3D:global_image_vtk
ASCII
DATASET UNSTRUCTURED_GRID
POINTS 213 double
    0.0000000000000000E+00    0.2500000000000000E+01    0.0000000000000000E+00
    0.1250000000000000E+01    0.2500000000000000E+01    0.0000000000000000E+00
    0.2500000000000000E+01    0.2500000000000000E+01    0.0000000000000000E+00
    0.3750000000000000E+01    0.2500000000000000E+01    0.0000000000000000E+00
    0.5000000000000000E+01    0.2500000000000000E+01    0.0000000000000000E+00
    0.5000000000000000E+01    0.1250000000000000E+01    0.0000000000000000E+00
    0.5000000000000000E+01    0.0000000000000000E+00    0.0000000000000000E+00
    0.5000000000000000E+01   -0.1250000000000000E+01    0.0000000000000000E+00
    0.5000000000000000E+01   -0.2500000000000000E+01    0.0000000000000000E+00
    0.3750000000000000E+01   -0.2500000000000000E+01    0.0000000000000000E+00
    0.2500000000000000E+01   -0.2500000000000000E+01    0.0000000000000000E+00
    0.1250000000000000E+01   -0.2500000000000000E+01    0.0000000000000000E+00
    0.0000000000000000E+00   -0.2500000000000000E+01    0.0000000000000000E+00
    0.0000000000000000E+00   -0.1250000000000000E+01    0.0000000000000000E+00
    0.0000000000000000E+00    0.0000000000000000E+00    0.0000000000000000E+00
    0.0000000000000000E+00    0.1250000000000000E+01    0.0000000000000000E+00
    0.9058375365086910E+00    0.1578994732800803E+01    0.0000000000000000E+00
    0.3982050490726493E+01   -0.1583989954232354E+01    0.0000000000000000E+00
    0.4033849428301197E+01    0.1453322699199022E+01    0.0000000000000000E+00
    0.1040505887381675E+01   -0.1479596339503735E+01    0.0000000000000000E+00
    0.1099454400140349E+01   -0.3227322616384110E+00    0.0000000000000000E+00
    0.7354504170366591E+00    0.6593508822075582E+00    0.0000000000000000E+00
    0.1622302608453282E+01    0.8256214013940779E+00    0.0000000000000000E+00
    0.2145871574390382E+01   -0.1650070333782557E+01    0.0000000000000000E+00
    0.4086422318222992E+01   -0.4612828702537229E+00    0.0000000000000000E+00
    0.2979540174134984E+01   -0.8579242121530853E+00    0.0000000000000000E+00
    0.3045064261640043E+01   -0.1836846154397680E+01    0.0000000000000000E+00
    0.3428197553792836E+01    0.3508002863614053E+00    0.0000000000000000E+00
    0.4309693860063405E+01    0.5185680230613409E+00    0.0000000000000000E+00
    0.1827272193562204E+01    0.1738996113203182E+01    0.0000000000000000E+00
    0.2808563282768077E+01    0.1325493893339706E+01    0.0000000000000000E+00
    0.1895995683864404E+01   -0.8731419609589618E+00    0.0000000000000000E+00
    0.2273179336307740E+01    0.4906150219227333E-01    0.0000000000000000E+00
    0.5000000000000000E+01    0.2500000000000000E+01    0.1250000000000000E+01
    0.5000000000000000E+01    0.2500000000000000E+01    0.2500000000000000E+01
    0.5000000000000000E+01    0.2500000000000000E+01    0.3750000000000000E+01
    0.5000000000000000E+01    0.2500000000000000E+01    0.5000000000000000E+01
    0.3750000000000000E+01    0.2500000000000000E+01    0.5000000000000000E+01
    0.2500000000000000E+01    0.2500000000000000E+01    0.5000000000000000E+01
    0.1250000000000000E+01    0.2500000000000000E+01    0.5000000000000000E+01
    0.0000000000000000E+00    0.2500000000000000E+01    0.5000000000000000E+01
    0.0000000000000000E+00    0.2500000000000000E+01    0.3750000000000000E+01
    0.0000000000000000E+00    0.2500000000000000E+01    0.2500000000000000E+01
    0.0000000000000000E+00    0.2500000000000000E+01    0.1250000000000000E+01
    0.9631080833812172E+00    0.2500000000000000E+01    0.9613285771248219E+00
    0.3981732467264904E+01    0.2500000000000000E+01    0.4069753913607991E+01
    0.4035525118777670E+01    0.2500000000000000E+01    0.1012015867579395E+01
    0.9641717640894248E+00    0.2500000000000000E+01    0.3972455192261839E+01
    0.1547743040396780E+01    0.2500000000000000E+01    0.2928177746738678E+01
    0.6985170616192014E+00    0.2500000000000000E+01    0.3068281976055466E+01
    0.8931277594515110E+00    0.2500000000000000E+01    0.2052465503257726E+01
    0.2183293750162785E+01    0.2500000000000000E+01    0.3959073795658649E+01
    0.3855333506014705E+01    0.2500000000000000E+01    0.2931218481500625E+01
    0.3152495579421047E+01    0.2500000000000000E+01    0.3635850502723324E+01
    0.3103247580566054E+01    0.2500000000000000E+01    0.4331682712472464E+01
    0.3266837581688852E+01    0.2500000000000000E+01    0.1886092433583972E+01
    0.4231539241296245E+01    0.2500000000000000E+01    0.1915865356532799E+01
    0.1909741006522088E+01    0.2500000000000000E+01    0.7170024419130505E+00
    0.2880784107213163E+01    0.2500000000000000E+01    0.9046598906449592E+00
    0.2014316024535771E+01    0.2500000000000000E+01    0.1762464314805728E+01
    0.2670003247036656E+01    0.2500000000000000E+01    0.2850479545835163E+01
    0.5000000000000000E+01    0.1250000000000000E+01    0.5000000000000000E+01
    0.5000000000000000E+01    0.0000000000000000E+00    0.5000000000000000E+01
    0.5000000000000000E+01   -0.1250000000000000E+01    0.5000000000000000E+01
    0.5000000000000000E+01   -0.2500000000000000E+01    0.5000000000000000E+01
    0.5000000000000000E+01   -0.2500000000000000E+01    0.3750000000000000E+01
    0.5000000000000000E+01   -0.2500000000000000E+01    0.2500000000000000E+01
    0.5000000000000000E+01   -0.2500000000000000E+01    0.1250000000000000E+01
    0.5000000000000000E+01    0.1578994732800803E+01    0.9058375365086910E+00
    0.5000000000000000E+01   -0.1583989954232354E+01    0.3982050490726493E+01
    0.5000000000000000E+01    0.1453322699199022E+01    0.4033849428301197E+01
    0.5000000000000000E+01   -0.1479596339503735E+01    0.1040505887381675E+01
    0.5000000000000000E+01   -0.3227322616384110E+00    0.1099454400140349E+01
    0.5000000000000000E+01    0.6593508822075582E+00    0.7354504170366591E+00
    0.5000000000000000E+01    0.8256214013940779E+00    0.1622302608453282E+01
    0.5000000000000000E+01   -0.1650070333782557E+01    0.2145871574390382E+01
    0.5000000000000000E+01   -0.4612828702537229E+00    0.4086422318222992E+01
    0.5000000000000000E+01   -0.8579242121530853E+00    0.2979540174134984E+01
    0.5000000000000000E+01   -0.1836846154397680E+01    0.3045064261640043E+01
    0.5000000000000000E+01    0.3508002863614053E+00    0.3428197553792836E+01
    0.5000000000000000E+01    0.5185680230613409E+00    0.4309693860063405E+01
    0.5000000000000000E+01    0.1738996113203182E+01    0.1827272193562204E+01
    0.5000000000000000E+01    0.1325493893339706E+01    0.2808563282768077E+01
    0.5000000000000000E+01   -0.8731419609589618E+00    0.1895995683864404E+01
    0.5000000000000000E+01    0.4906150219227333E-01    0.2273179336307740E+01
    0.0000000000000000E+00    0.1250000000000000E+01    0.5000000000000000E+01
    0.0000000000000000E+00    0.0000000000000000E+00    0.5000000000000000E+01
    0.0000000000000000E+00   -0.1250000000000000E+01    0.5000000000000000E+01
    0.0000000000000000E+00   -0.2500000000000000E+01    0.5000000000000000E+01
    0.1250000000000000E+01   -0.2500000000000000E+01    0.5000000000000000E+01
    0.2500000000000000E+01   -0.2500000000000000E+01    0.5000000000000000E+01
    0.3750000000000000E+01   -0.2500000000000000E+01    0.5000000000000000E+01
    0.4042003247744892E+01    0.1558308132739014E+01    0.5000000000000000E+01
    0.9304122287900499E+00   -0.1548001304379777E+01    0.5000000000000000E+01
    0.1037243024609388E+01    0.1462892710085612E+01    0.5000000000000000E+01
    0.3946240828834967E+01   -0.1445243809615570E+01    0.5000000000000000E+01
    0.4092527262848217E+01   -0.3455338993778935E+00    0.5000000000000000E+01
    0.4293103109154542E+01    0.6277660831404320E+00    0.5000000000000000E+01
    0.3241512314643519E+01    0.7429886854239611E+00    0.5000000000000000E+01
    0.2844289952419609E+01   -0.1588117879734118E+01    0.5000000000000000E+01
    0.7159905765450471E+00   -0.6002320124191652E+00    0.5000000000000000E+01
    0.1754341919796891E+01   -0.7398147869923652E+00    0.5000000000000000E+01
    0.1870296826774691E+01   -0.1788622905643739E+01    0.5000000000000000E+01
    0.9220614901912976E+00    0.3083720183248586E+00    0.5000000000000000E+01
    0.3101523624086016E+01    0.1777901774806180E+01    0.5000000000000000E+01
    0.2192512063922564E+01    0.1576861561598471E+01    0.5000000000000000E+01
    0.2024793420196460E+01    0.4773861992750707E+00    0.5000000000000000E+01
    0.2990627757741975E+01   -0.4878110785814084E+00    0.5000000000000000E+01
    0.0000000000000000E+00   -0.2500000000000000E+01    0.1250000000000000E+01
    0.0000000000000000E+00   -0.2500000000000000E+01    0.2500000000000000E+01
    0.0000000000000000E+00   -0.2500000000000000E+01    0.3750000000000000E+01
    0.0000000000000000E+00    0.1558308132739014E+01    0.4042003247744892E+01
    0.0000000000000000E+00   -0.1548001304379777E+01    0.9304122287900499E+00
    0.0000000000000000E+00    0.1462892710085612E+01    0.1037243024609388E+01
    0.0000000000000000E+00   -0.1445243809615570E+01    0.3946240828834967E+01
    0.0000000000000000E+00   -0.3455338993778935E+00    0.4092527262848217E+01
    0.0000000000000000E+00    0.6277660831404320E+00    0.4293103109154542E+01
    0.0000000000000000E+00    0.7429886854239611E+00    0.3241512314643519E+01
    0.0000000000000000E+00   -0.1588117879734118E+01    0.2844289952419609E+01
    0.0000000000000000E+00   -0.6002320124191652E+00    0.7159905765450471E+00
    0.0000000000000000E+00   -0.7398147869923652E+00    0.1754341919796891E+01
    0.0000000000000000E+00   -0.1788622905643739E+01    0.1870296826774691E+01
    0.0000000000000000E+00    0.3083720183248586E+00    0.9220614901912976E+00
    0.0000000000000000E+00    0.1777901774806180E+01    0.3101523624086016E+01
    0.0000000000000000E+00    0.1576861561598471E+01    0.2192512063922564E+01
[...]
POINT_DATA 213
SCALARS rho double 1
LOOKUP_TABLE default
   0.1343965965614792E+01
   0.9576972749301521E+00
   0.9477448435849500E+00
   0.9438131425885342E+00
   0.8441009475384549E+00
   0.7733576801559615E+00
   0.7630128830367569E+00
   0.7656186385616889E+00
   0.8316614371890819E+00
   0.9369663702082658E+00
   0.9354398940290097E+00
   0.9614824106092871E+00
   0.1447869004299130E+01
   0.1492319202472300E+01
   0.1642809591640439E+01
   0.1425671988679025E+01
   0.1009386314806524E+01
   0.9522697483669050E+00
   0.9451727064790305E+00
   0.9577559830199034E+00
   0.9405678787287545E+00
   0.1035489934077837E+01
   0.9260511830390390E+00
   0.9335251642003489E+00
   0.9552381747499412E+00
   0.9537149696440921E+00
   0.9360594537255312E+00
   0.9578783267152677E+00
   0.9386202162631668E+00
   0.9312265816270597E+00
   0.9460891762211614E+00
   0.8867073884502507E+00
   0.9437960422142538E+00
   0.9641219455833768E+00
   0.1007296400435769E+01
   0.1006184778445302E+01
   0.1004574959417357E+01
   0.1005751423230418E+01
   0.1004610527009070E+01
   0.1005284910532070E+01
   0.1003004652622985E+01
   0.1008151398422889E+01
   0.1023748878581092E+01
   0.1062885649167850E+01
   0.1019113286265167E+01
   0.1001827819991801E+01
   0.9658918538514945E+00
   0.1005409935360159E+01
   0.1000775310002832E+01
   0.1008827306323519E+01
   0.1007918430064417E+01
   0.1002494199591981E+01
   0.9976014237273245E+00
   0.1000593571405725E+01
   0.1001865292116774E+01
   0.9828372190803850E+00
   0.9840878142592302E+00
   0.9841380513555412E+00
   0.9802128048287607E+00
   0.9905521808142586E+00
   0.9934998276554929E+00
   0.1004778245052290E+01
   0.1004767189353487E+01
   0.1005114321447740E+01
   0.1004850286101041E+01
   0.1009544109015037E+01
   0.1004699691120097E+01
   0.9559620069149815E+00
   0.9257182856604960E+00
   0.1007687731097647E+01
   0.1004499793518355E+01
   0.9151324659932391E+00
   0.9096292338165427E+00
   0.8762723012821308E+00
   0.9757629704577205E+00
   0.9987129104699990E+00
   0.1006335541461292E+01
   0.1010818858975261E+01
   0.1010129204771521E+01
   0.1009074518778590E+01
   0.1005937111830923E+01
   0.9900076155099246E+00
   0.1003829925569881E+01
   0.9846226061599289E+00
   0.1002837188071223E+01
   0.1003882860737670E+01
   0.1003215373688887E+01
   0.1003424139031811E+01
   0.1003738532199227E+01
   0.1005281661778826E+01
   0.1003265155701159E+01
   0.1004580560294849E+01
   0.1005196429638402E+01
   0.1004060719480000E+01
   0.1004546525381782E+01
   0.1003385890545189E+01
   0.1004519397809199E+01
   0.1005791657893627E+01
   0.1004686431966408E+01
   0.1003955411304289E+01
   0.1003135933532384E+01
   0.1004406797893639E+01
   0.1004217778841471E+01
   0.1003536250712299E+01
   0.1005309733460651E+01
   0.1004812133318704E+01
   0.1004741758077887E+01
   0.1004669787307300E+01
   0.1064928020973248E+01
   0.1028650830332233E+01
   0.1009537909851508E+01
   0.1006519332315181E+01
   0.1163380978101177E+01
   0.1086055351292887E+01
   0.1007820126337507E+01
   0.1007302541833674E+01
   0.1006711537712792E+01
   0.1012984941457878E+01
   0.1019259447790843E+01
   0.1234910553831028E+01
   0.1032980184876524E+01
   0.1046583638064107E+01
   0.1200461007733579E+01
   0.1014504356335383E+01
   0.1031892368639919E+01
   0.1028375142470479E+01
   0.1014845788374502E+01
   0.1029073306173783E+01
   0.1002080407432346E+01
   0.9621401808435270E+00
   0.1006807134202485E+01
   0.1001537961919139E+01
   0.1010605446028326E+01
   0.1012248905112920E+01
   0.1001047925285914E+01
   0.9972872453363324E+00
   0.9978249676557426E+00
   0.1001116545100333E+01
   0.9838204469351730E+00
   0.9808407240631477E+00
   0.9653613806953438E+00
   0.9688902723680702E+00
   0.9913867318350590E+00
   0.9913033737504866E+00
   0.9924499654005162E+00
   0.1001939551003468E+01
   0.9994944957426732E+00
   0.9940522236944697E+00
   0.1006988072631954E+01
   0.1022221194314683E+01
   0.1000742636586311E+01
   0.1008918713514505E+01
   0.1004949825934245E+01
   0.1009093554906783E+01
   0.9967232935075511E+00
   0.1004971621185731E+01
   0.1003543350810435E+01
   0.9949818722836298E+00
   0.9827942753141545E+00
   0.9939983479953812E+00
   0.9970549762799413E+00
   0.9919138356614737E+00
   0.1001240974663176E+01
   0.1003192427247691E+01
   0.1002174556072855E+01
   0.9936100682407686E+00
   0.9937194721814572E+00
   0.1005130361401285E+01
   0.1019813424972179E+01
   0.1005421270376918E+01
   0.9816989786651634E+00
   0.1005148094941293E+01
   0.1012366735106982E+01
   0.9872336007929110E+00
   0.9550246542620313E+00
   0.9860586847885352E+00
   0.9866043130644722E+00
   0.9925193436442364E+00
   0.9931308549130901E+00
   0.9948952530142219E+00
   0.1037296046565854E+01
   0.1033015715033088E+01
   0.1001454862103518E+01
   0.1002005181900016E+01
   0.9897996522685997E+00
   0.9907251148397547E+00
   0.9646455764930170E+00
   0.9920848215250597E+00
   0.1005418868898830E+01
   0.1001496628932841E+01
   0.9910386850346264E+00
   0.9741297638811686E+00
   0.9424060717915452E+00
   0.9820102504864283E+00
   0.9791544204451595E+00
   0.9713816145234991E+00
   0.9720530687315974E+00
   0.9554278770980128E+00
   0.9502413891660084E+00
   0.9545737774499380E+00
   0.1002932458230073E+01
   0.1002562230617388E+01
   0.1000541323065187E+01
   0.1001108797925514E+01
   0.9616592901628791E+00
   0.9512265336038397E+00
   0.9602851455518194E+00
   0.1000865689525437E+01
   0.1000324352369021E+01
   0.1000906465822154E+01
   0.9809417603554076E+00
   0.9805261765924126E+00
   0.9640837773122258E+00
SCALARS u double 1
LOOKUP_TABLE default
   0.0000000000000000E+00
   0.0000000000000000E+00
   0.0000000000000000E+00
   0.0000000000000000E+00
   0.0000000000000000E+00
   0.0000000000000000E+00
   0.0000000000000000E+00
   0.0000000000000000E+00
   0.0000000000000000E+00
   0.0000000000000000E+00
   0.0000000000000000E+00
   0.0000000000000000E+00
   0.0000000000000000E+00
   0.0000000000000000E+00
   0.0000000000000000E+00
   0.0000000000000000E+00
   0.0000000000000000E+00
   0.0000000000000000E+00
   0.0000000000000000E+00
   0.0000000000000000E+00
   0.0000000000000000E+00
   0.0000000000000000E+00
   0.0000000000000000E+00
   0.0000000000000000E+00
   0.0000000000000000E+00
   0.0000000000000000E+00
   0.0000000000000000E+00
   0.0000000000000000E+00
   0.0000000000000000E+00
   0.0000000000000000E+00
   0.0000000000000000E+00
   0.0000000000000000E+00
   0.0000000000000000E+00
   0.4956088283514718E+00
   0.5336028970224874E+00
   0.5184450484708262E+00
   0.4933133806017518E+00
   0.4841981491440415E+00
   0.4837170324111847E+00
   0.4863897386089995E+00
   0.4963079453959895E+00
   0.4896567686050893E+00
   0.4720672484566216E+00
   0.4463580841213193E+00
   0.4827649171358818E+00
   0.5089240083573668E+00
   0.4407506708276928E+00
   0.4944059176789468E+00
   0.5229414834311487E+00
   0.4962113329468868E+00
   0.5227252774108914E+00
   0.5032083732932072E+00
   0.5640222653511304E+00
   0.5252398845659579E+00
   0.4980203183357058E+00
   0.5719626554414026E+00
   0.5688065662041283E+00
   0.3730025263593972E+00
   0.4007150976059294E+00
   0.5587988179829735E+00
   0.5564435981012846E+00
   0.4946070205324905E+00
   0.4954020890736230E+00
   0.4937887069088038E+00
   0.4918952700485721E+00
   0.5164135096511235E+00
   0.5359192417265719E+00
   0.4957089566543548E+00
   0.4530920757619972E+00
   0.5123877365943680E+00
   0.5107432042528918E+00
   0.4790291056536422E+00
   0.4944626128067595E+00
   0.4614927599762774E+00
   0.5257659113760222E+00
   0.5298668677101556E+00
   0.5123506249404796E+00
   0.5330012240804913E+00
   0.5309373756976132E+00
   0.5300690751905797E+00
   0.5056169292463191E+00
   0.5285423540929391E+00
   0.5403389546367734E+00
   0.5368093473550430E+00
   0.5377911717033497E+00
   0.4974925003005692E+00
   0.4981163009101698E+00
   0.4967933545527379E+00
   0.4957441690843709E+00
   0.4878915029378105E+00
   0.4876185038046202E+00
   0.4855744436210763E+00
   0.4864380784574404E+00
   0.4916982560754917E+00
   0.4891553761651678E+00
   0.4852571564128915E+00
   0.4886306925074805E+00
   0.4891593044359435E+00
   0.4864820346900278E+00
   0.4864884603180544E+00
   0.4945747635526996E+00
   0.4872882735364731E+00
   0.4875772048945096E+00
   0.4930333113355496E+00
   0.4847489964756683E+00
   0.4867503334856349E+00
   0.4860741814488532E+00
   0.4863473321045534E+00
   0.4453025379312716E+00
   0.4698446888415879E+00
   0.4891585191048619E+00
   0.4880234325238448E+00
   0.4508541994363855E+00
   0.4675635716850893E+00
   0.4875638098438155E+00
   0.4867846704472836E+00
   0.4910070760890469E+00
   0.4794303209444200E+00
   0.4668009666632504E+00
   0.3794183371218697E+00
   0.4896737063427933E+00
   0.4493542212641964E+00
   0.4441330458454524E+00
   0.4845044464126460E+00
   0.4634869327795552E+00
   0.4670678933750672E+00
   0.4748190091545352E+00
   0.4893617548315923E+00
   0.5086596075092776E+00
   0.4339262713806917E+00
   0.4926474816327152E+00
   0.5329860892384097E+00
   0.4918407844223400E+00
   0.5207224501764837E+00
   0.5065004762472218E+00
   0.5670296824085930E+00
   0.5283167985332876E+00
   0.5014208324643223E+00
   0.5802774553533225E+00
   0.5677865474893924E+00
   0.3413713418296409E+00
   0.3799191815119363E+00
   0.5737491346921360E+00
   0.5664341420151576E+00
   0.5693347636135623E+00
   0.5290190587045661E+00
   0.5447941408115423E+00
   0.5714556247228788E+00
   0.5388201781379212E+00
   0.5474922101952380E+00
   0.5819849040171293E+00
   0.4927287445291047E+00
   0.5038081361763326E+00
   0.4963777805949428E+00
   0.5560551743045991E+00
   0.4759488687583977E+00
   0.4944703450147372E+00
   0.5492269732317088E+00
   0.5873511811091945E+00
   0.5827117378217294E+00
   0.5459119783808126E+00
   0.5779713469037896E+00
   0.5101703932578356E+00
   0.5024518106275919E+00
   0.5028207582323519E+00
   0.5662368374318408E+00
   0.5559265057138485E+00
   0.4944845324897231E+00
   0.5501273442980185E+00
   0.5508114155649305E+00
   0.5651747165944597E+00
   0.4913641464359568E+00
   0.4930968995144138E+00
   0.3887840307545300E+00
   0.3712671995211428E+00
   0.5569996397882105E+00
   0.5753868691683844E+00
   0.4190741676371501E+00
   0.5815029704697062E+00
   0.4282091016043175E+00
   0.5390672021935466E+00
   0.5018184740199690E+00
   0.5109974191950822E+00
   0.5042138094669817E+00
   0.5729366097658009E+00
   0.5854507375707235E+00
   0.5377005186051673E+00
   0.5657930586566832E+00
   0.5353592579158818E+00
   0.5338428451905047E+00
   0.5573228452858434E+00
   0.5505141601200457E+00
   0.4278589446138091E+00
   0.5263781252970323E+00
   0.5780468345328159E+00
   0.3349063546231105E+00
   0.4756038252498996E+00
   0.5450194238478714E+00
   0.4812880019108046E+00
   0.3028624665136684E+00
   0.5042224178284873E+00
   0.5010712475805305E+00
   0.5127451430651395E+00
   0.5402571479493630E+00
   0.3462531769307072E+00
   0.3437558822702050E+00
   0.3211894754930829E+00
   0.5065066593235696E+00
   0.5132480548887125E+00
   0.5328474636517032E+00
   0.5867050687036196E+00
   0.4641292924291671E+00
   0.3573061435347069E+00
SCALARS v double 1
LOOKUP_TABLE default
   0.0000000000000000E+00
   0.0000000000000000E+00
   0.0000000000000000E+00
   0.0000000000000000E+00
   0.0000000000000000E+00
   0.0000000000000000E+00
   0.0000000000000000E+00
   0.0000000000000000E+00
   0.0000000000000000E+00
   0.0000000000000000E+00
   0.0000000000000000E+00
   0.0000000000000000E+00
   0.0000000000000000E+00
   0.0000000000000000E+00
   0.0000000000000000E+00
   0.0000000000000000E+00
   0.0000000000000000E+00
   0.0000000000000000E+00
   0.0000000000000000E+00
   0.0000000000000000E+00
   0.0000000000000000E+00
   0.0000000000000000E+00
   0.0000000000000000E+00
   0.0000000000000000E+00
   0.0000000000000000E+00
   0.0000000000000000E+00
   0.0000000000000000E+00
   0.0000000000000000E+00
   0.0000000000000000E+00
   0.0000000000000000E+00
   0.0000000000000000E+00
   0.0000000000000000E+00
   0.0000000000000000E+00
   0.0000000000000000E+00
   0.0000000000000000E+00
   0.0000000000000000E+00
   0.0000000000000000E+00
   0.0000000000000000E+00
   0.0000000000000000E+00
   0.0000000000000000E+00
   0.0000000000000000E+00
   0.0000000000000000E+00
   0.0000000000000000E+00
   0.0000000000000000E+00
   0.0000000000000000E+00
   0.0000000000000000E+00
   0.0000000000000000E+00
   0.0000000000000000E+00
   0.0000000000000000E+00
   0.0000000000000000E+00
   0.0000000000000000E+00
   0.0000000000000000E+00
   0.0000000000000000E+00
   0.0000000000000000E+00
   0.0000000000000000E+00
   0.0000000000000000E+00
   0.0000000000000000E+00
   0.0000000000000000E+00
   0.0000000000000000E+00
   0.0000000000000000E+00
   0.0000000000000000E+00
   0.1110944817748854E-02
   0.8894063529018374E-04
  -0.2256230979210563E-03
   0.0000000000000000E+00
   0.0000000000000000E+00
   0.0000000000000000E+00
   0.0000000000000000E+00
  -0.1826596323256483E-01
   0.5203830308660057E-03
   0.1878491902878280E-02
   0.1416255085531045E-01
  -0.6501997946257636E-02
  -0.6389585910361390E-02
  -0.1279767710846834E-01
   0.4370092532448475E-02
   0.8687744166248476E-03
   0.2912660602870348E-02
   0.1721176741036641E-02
   0.2390060029286802E-02
   0.1806295090033765E-02
  -0.7239135674951842E-02
  -0.7923524233789972E-03
   0.3835177328940595E-02
  -0.1118304330590668E-02
  -0.4335735714408428E-03
  -0.4122207882401646E-03
   0.8238327856565031E-03
   0.0000000000000000E+00
   0.0000000000000000E+00
   0.0000000000000000E+00
   0.0000000000000000E+00
   0.7713153291637444E-03
   0.1446855555065938E-02
  -0.1432454314339610E-02
  -0.1830682082025432E-03
  -0.6368228998228474E-03
   0.1554401838796165E-06
   0.1570368958266145E-03
  -0.1281326208014185E-03
  -0.1980906555209284E-03
  -0.5812876413549508E-03
   0.8187273705457777E-03
  -0.2009822797807639E-02
   0.6577135474536435E-03
   0.2670102222036358E-03
  -0.4122143535472852E-03
  -0.4041753236739334E-03
   0.0000000000000000E+00
   0.0000000000000000E+00
   0.0000000000000000E+00
  -0.8245146445492145E-03
  -0.7840961170518657E-02
   0.1754776390188666E-01
  -0.2303298139592610E-03
  -0.1392075971726134E-02
  -0.2132240676732165E-02
  -0.5225451637111567E-02
  -0.1867543422667673E-02
  -0.6503281972738510E-02
  -0.4080685874134133E-02
   0.1637819149162660E-02
   0.3279795365445486E-01
   0.3403928270516766E-04
  -0.2137299646375488E-02
   0.4117273109462112E-02
   0.3975298734323701E-03
   0.0000000000000000E+00
   0.0000000000000000E+00
   0.0000000000000000E+00
   0.0000000000000000E+00
   0.0000000000000000E+00
   0.0000000000000000E+00
   0.0000000000000000E+00
   0.0000000000000000E+00
   0.0000000000000000E+00
   0.0000000000000000E+00
   0.0000000000000000E+00
   0.0000000000000000E+00
   0.0000000000000000E+00
   0.0000000000000000E+00
   0.0000000000000000E+00
   0.0000000000000000E+00
   0.0000000000000000E+00
   0.4616975218972717E-02
   0.3357845423703717E-02
   0.8115582454855181E-02
   0.5759262524043103E-02
   0.1133093152490520E-01
   0.1381895412482318E-01
  -0.1135117659696364E-02
   0.5476402100715950E-02
   0.3081290806766851E-02
   0.3702009453594759E-02
   0.3533065007861178E-02
  -0.1539744675363687E-01
  -0.6072392119942538E-03
   0.6600773098809929E-02
   0.1225967827426998E-02
   0.2048810946369861E-02
   0.4111602289458835E-02
  -0.2954721424587732E-02
   0.1551222801426500E-02
   0.3142034589069391E-02
   0.1844151286888540E-02
   0.1980344423789797E-02
   0.1905421306926607E-02
   0.2340303351206613E-02
   0.8854545318913002E-02
  -0.3596672782688003E-02
   0.6173453769545619E-02
  -0.2538597474689166E-04
  -0.5217189323705020E-03
  -0.1694694272336840E-01
  -0.5238548361055801E-02
  -0.5401912101886366E-02
   0.3390622983307614E-02
  -0.6456338035414629E-02
  -0.2496867206372991E-03
  -0.3423380066187918E-01
  -0.2794928650089892E-02
   0.4829281510062203E-02
   0.1165738639244691E-02
   0.2409666452714952E-02
   0.3800483060752889E-02
   0.2521483322060148E-02
   0.2787006709568872E-02
   0.4652276070673063E-02
   0.1860294810448680E-02
   0.5598144810175814E-03
   0.1109449108552040E-03
  -0.5015274386496069E-02
  -0.6123223503997870E-02
  -0.7179795254111354E-03
   0.7534681962545760E-03
  -0.1629172426557185E-02
  -0.3315608020306556E-02
  -0.2686693039612917E-02
  -0.4637902159871617E-02
  -0.7870486839145348E-02
  -0.1984609553934793E-02
   0.7342676368513400E-03
  -0.4820013233485794E-04
   0.8017466280881509E-03
  -0.3054426335525301E-02
   0.5726048192038782E-02
  -0.8604835618620058E-02
   0.1214044105775243E-03
  -0.2437893860480513E-03
   0.2381684853611180E-02
   0.1773419294231164E-02
   0.2220241694325857E-02
  -0.5479036226985054E-02
SCALARS w double 1
LOOKUP_TABLE default
   0.0000000000000000E+00
   0.0000000000000000E+00
   0.0000000000000000E+00
   0.0000000000000000E+00
   0.0000000000000000E+00
   0.0000000000000000E+00
   0.0000000000000000E+00
   0.0000000000000000E+00
   0.0000000000000000E+00
   0.0000000000000000E+00
   0.0000000000000000E+00
   0.0000000000000000E+00
   0.0000000000000000E+00
   0.0000000000000000E+00
   0.0000000000000000E+00
   0.0000000000000000E+00
   0.0000000000000000E+00
   0.0000000000000000E+00
   0.0000000000000000E+00
   0.0000000000000000E+00
   0.0000000000000000E+00
   0.0000000000000000E+00
   0.0000000000000000E+00
   0.0000000000000000E+00
   0.0000000000000000E+00
   0.0000000000000000E+00
   0.0000000000000000E+00
   0.0000000000000000E+00
   0.0000000000000000E+00
   0.0000000000000000E+00
   0.0000000000000000E+00
   0.0000000000000000E+00
   0.0000000000000000E+00
  -0.9793387880883948E-01
  -0.4158652086592821E-01
  -0.2643201278301759E-03
   0.4776968882889356E-02
   0.2336530979327058E-02
   0.2066946228540501E-02
   0.3698109386040073E-02
   0.4497601801436237E-02
   0.8752498497657343E-03
   0.3710510025064923E-02
   0.4555783641532741E-01
   0.6454513611090629E-01
   0.1417952761806183E-02
  -0.2246873516447942E-01
   0.4383443074695436E-02
   0.1306963527651545E-01
   0.1014724331245516E-01
   0.4836323706462061E-01
   0.2042153317345937E-02
  -0.5983567563786688E-02
  -0.3671688014397109E-03
   0.6866346507276595E-03
   0.3705292374493289E-02
  -0.3772537523038193E-01
   0.1772882147947891E-01
   0.1080267796185646E-01
   0.3306513075250114E-01
   0.8295032126380881E-02
   0.4265551513214375E-02
   0.4617427835083806E-02
   0.4884783239829086E-02
   0.5663977702118328E-02
   0.1691087763391228E-02
  -0.4052102400595145E-01
  -0.9691550237638716E-01
  -0.1096890446335295E+00
   0.4373725691181927E-02
   0.2875303094120957E-02
  -0.9736388273370980E-01
  -0.9617761260089405E-01
  -0.9618032359292326E-01
  -0.9224873752744775E-01
  -0.6624934300845797E-01
   0.3937943139491607E-02
  -0.1958109058085879E-01
  -0.1613555009123915E-01
  -0.7363644160543758E-02
   0.5393789501034254E-02
  -0.7799400373427626E-01
  -0.2811874300839363E-01
  -0.7850874688496250E-01
  -0.5795367585960450E-01
   0.4480258611956471E-02
   0.3182641541470885E-02
   0.3181670342395016E-02
   0.4452986836324056E-02
   0.3707631632537807E-02
   0.9145224787551378E-03
   0.1024229898920323E-02
   0.3497665191256904E-02
   0.5421220896461921E-02
   0.4199489124242372E-02
   0.3488250741126050E-02
   0.1479916641963618E-02
   0.3869357776274953E-02
   0.1323526952691259E-02
   0.4042516226507634E-03
   0.5468667980950761E-02
   0.2804196177133459E-02
   0.2554744849675218E-02
   0.5857587313565665E-02
   0.1779115929221957E-02
   0.2308782718704586E-02
   0.2015540137296865E-02
   0.8912501210639299E-03
   0.8439718113637852E-01
   0.2689248658453457E-02
  -0.8532159919550605E-03
   0.2965013735679679E-03
   0.1406940844967318E+00
   0.1228215760802499E+00
  -0.1103850454719069E-02
  -0.4226933971818522E-02
   0.1938024353107583E-03
  -0.6072658435516528E-02
  -0.1406601233137757E-02
   0.1562297199976452E+00
   0.7533013627737001E-01
   0.2578699968830348E-01
   0.1655557644887720E+00