# vtk DataFile Version 2.0
FUN3D:global_image_vtk
ASCII
DATASET UNSTRUCTURED_GRID
POINTS 213 double
    0.0000000000000000E+00    0.2500000000000000E+01    0.0000000000000000E+00
    0.1250000000000000E+01    0.2500000000000000E+01    0.0000000000000000E+00
    0.2500000000000000E+01    0.2500000000000000E+01    0.0000000000000000E+00
    0.3750000000000000E+01    0.2500000000000000E+01    0.0000000000000000E+00
    0.5000000000000000E+01    0.2500000000000000E+01    0.0000000000000000E+00
    0.5000000000000000E+01    0.1250000000000000E+01    0.0000000000000000E+00
    0.5000000000000000E+01    0.0000000000000000E+00    0.0000000000000000E+00
    0.5000000000000000E+01   -0.1250000000000000E+01    0.0000000000000000E+00
    0.5000000000000000E+01   -0.2500000000000000E+01    0.0000000000000000E+00
    0.3750000000000000E+01   -0.2500000000000000E+01    0.0000000000000000E+00
    0.2500000000000000E+01   -0.2500000000000000E+01    0.0000000000000000E+00
    0.1250000000000000E+01   -0.2500000000000000E+01    0.0000000000000000E+00
    0.0000000000000000E+00   -0.2500000000000000E+01    0.0000000000000000E+00
    0.0000000000000000E+00   -0.1250000000000000E+01    0.0000000000000000E+00
    0.0000000000000000E+00    0.0000000000000000E+00    0.0000000000000000E+00
    0.0000000000000000E+00    0.1250000000000000E+01    0.0000000000000000E+00
    0.9058375365086910E+00    0.1578994732800803E+01    0.0000000000000000E+00
    0.3982050490726493E+01   -0.1583989954232354E+01    0.0000000000000000E+00
    0.4033849428301197E+01    0.1453322699199022E+01    0.0000000000000000E+00
    0.1040505887381675E+01   -0.1479596339503735E+01    0.0000000000000000E+00
    0.1099454400140349E+01   -0.3227322616384110E+00    0.0000000000000000E+00
    0.7354504170366591E+00    0.6593508822075582E+00    0.0000000000000000E+00
    0.1622302608453282E+01    0.8256214013940779E+00    0.0000000000000000E+00
    0.2145871574390382E+01   -0.1650070333782557E+01    0.0000000000000000E+00
    0.4086422318222992E+01   -0.4612828702537229E+00    0.0000000000000000E+00
    0.2979540174134984E+01   -0.8579242121530853E+00    0.0000000000000000E+00
    0.3045064261640043E+01   -0.1836846154397680E+01    0.0000000000000000E+00
    0.3428197553792836E+01    0.3508002863614053E+00    0.0000000000000000E+00
    0.4309693860063405E+01    0.5185680230613409E+00    0.0000000000000000E+00
    0.1827272193562204E+01    0.1738996113203182E+01    0.0000000000000000E+00
    0.2808563282768077E+01    0.1325493893339706E+01    0.0000000000000000E+00
    0.1895995683864404E+01   -0.8731419609589618E+00    0.0000000000000000E+00
    0.2273179336307740E+01    0.4906150219227333E-01    0.0000000000000000E+00
    0.5000000000000000E+01    0.2500000000000000E+01    0.1250000000000000E+01
    0.5000000000000000E+01    0.2500000000000000E+01    0.2500000000000000E+01
    0.5000000000000000E+01    0.2500000000000000E+01    0.3750000000000000E+01
    0.5000000000000000E+01    0.2500000000000000E+01    0.5000000000000000E+01
    0.3750000000000000E+01    0.2500000000000000E+01    0.5000000000000000E+01
    0.2500000000000000E+01    0.2500000000000000E+01    0.5000000000000000E+01
    0.1250000000000000E+01    0.2500000000000000E+01    0.5000000000000000E+01
    0.0000000000000000E+00    0.2500000000000000E+01    0.5000000000000000E+01
    0.0000000000000000E+00    0.2500000000000000E+01    0.3750000000000000E+01
    0.0000000000000000E+00    0.2500000000000000E+01    0.2500000000000000E+01
    0.0000000000000000E+00    0.2500000000000000E+01    0.1250000000000000E+01
    0.9631080833812172E+00    0.2500000000000000E+01    0.9613285771248219E+00
    0.3981732467264904E+01    0.2500000000000000E+01    0.4069753913607991E+01
    0.4035525118777670E+01    0.2500000000000000E+01    0.1012015867579395E+01
    0.9641717640894248E+00    0.2500000000000000E+01    0.3972455192261839E+01
    0.1547743040396780E+01    0.2500000000000000E+01    0.2928177746738678E+01
    0.6985170616192014E+00    0.2500000000000000E+01    0.3068281976055466E+01
    0.8931277594515110E+00    0.2500000000000000E+01    0.2052465503257726E+01
    0.2183293750162785E+01    0.2500000000000000E+01    0.3959073795658649E+01
    0.3855333506014705E+01    0.2500000000000000E+01    0.2931218481500625E+01
    0.3152495579421047E+01    0.2500000000000000E+01    0.3635850502723324E+01
    0.3103247580566054E+01    0.2500000000000000E+01    0.4331682712472464E+01
    0.3266837581688852E+01    0.2500000000000000E+01    0.1886092433583972E+01
    0.4231539241296245E+01    0.2500000000000000E+01    0.1915865356532799E+01
    0.1909741006522088E+01    0.2500000000000000E+01    0.7170024419130505E+00
    0.2880784107213163E+01    0.2500000000000000E+01    0.9046598906449592E+00
    0.2014316024535771E+01    0.2500000000000000E+01    0.1762464314805728E+01
    0.2670003247036656E+01    0.2500000000000000E+01    0.2850479545835163E+01
    0.5000000000000000E+01    0.1250000000000000E+01    0.5000000000000000E+01
    0.5000000000000000E+01    0.0000000000000000E+00    0.5000000000000000E+01
    0.5000000000000000E+01   -0.1250000000000000E+01    0.5000000000000000E+01
    0.5000000000000000E+01   -0.2500000000000000E+01    0.5000000000000000E+01
    0.5000000000000000E+01   -0.2500000000000000E+01    0.3750000000000000E+01
    0.5000000000000000E+01   -0.2500000000000000E+01    0.2500000000000000E+01
    0.5000000000000000E+01   -0.2500000000000000E+01    0.1250000000000000E+01
    0.5000000000000000E+01    0.1578994732800803E+01    0.9058375365086910E+00
    0.5000000000000000E+01   -0.1583989954232354E+01    0.3982050490726493E+01
    0.5000000000000000E+01    0.1453322699199022E+01    0.4033849428301197E+01
    0.5000000000000000E+01   -0.1479596339503735E+01    0.1040505887381675E+01
    0.5000000000000000E+01   -0.3227322616384110E+00    0.1099454400140349E+01
    0.5000000000000000E+01    0.6593508822075582E+00    0.7354504170366591E+00
    0.5000000000000000E+01    0.8256214013940779E+00    0.1622302608453282E+01
    0.5000000000000000E+01   -0.1650070333782557E+01    0.2145871574390382E+01
    0.5000000000000000E+01   -0.4612828702537229E+00    0.4086422318222992E+01
    0.5000000000000000E+01   -0.8579242121530853E+00    0.2979540174134984E+01
    0.5000000000000000E+01   -0.1836846154397680E+01    0.3045064261640043E+01
    0.5000000000000000E+01    0.3508002863614053E+00    0.3428197553792836E+01
    0.5000000000000000E+01    0.5185680230613409E+00    0.4309693860063405E+01
    0.5000000000000000E+01    0.1738996113203182E+01    0.1827272193562204E+01
    0.5000000000000000E+01    0.1325493893339706E+01    0.2808563282768077E+01
    0.5000000000000000E+01   -0.8731419609589618E+00    0.1895995683864404E+01
    0.5000000000000000E+01    0.4906150219227333E-01    0.2273179336307740E+01
    0.0000000000000000E+00    0.1250000000000000E+01    0.5000000000000000E+01
    0.0000000000000000E+00    0.0000000000000000E+00    0.5000000000000000E+01
    0.0000000000000000E+00   -0.1250000000000000E+01    0.5000000000000000E+01
    0.0000000000000000E+00   -0.2500000000000000E+01    0.5000000000000000E+01
    0.1250000000000000E+01   -0.2500000000000000E+01    0.5000000000000000E+01
    0.2500000000000000E+01   -0.2500000000000000E+01    0.5000000000000000E+01
    0.3750000000000000E+01   -0.2500000000000000E+01    0.5000000000000000E+01
    0.4042003247744892E+01    0.1558308132739014E+01    0.5000000000000000E+01
    0.9304122287900499E+00   -0.1548001304379777E+01    0.5000000000000000E+01
    0.1037243024609388E+01    0.1462892710085612E+01    0.5000000000000000E+01
    0.3946240828834967E+01   -0.1445243809615570E+01    0.5000000000000000E+01
    0.4092527262848217E+01   -0.3455338993778935E+00    0.5000000000000000E+01
    0.4293103109154542E+01    0.6277660831404320E+00    0.5000000000000000E+01
    0.3241512314643519E+01    0.7429886854239611E+00    0.5000000000000000E+01
    0.2844289952419609E+01   -0.1588117879734118E+01    0.5000000000000000E+01
    0.7159905765450471E+00   -0.6002320124191652E+00    0.5000000000000000E+01
    0.1754341919796891E+01   -0.7398147869923652E+00    0.5000000000000000E+01
    0.1870296826774691E+01   -0.1788622905643739E+01    0.5000000000000000E+01
    0.9220614901912976E+00    0.3083720183248586E+00    0.5000000000000000E+01
    0.3101523624086016E+01    0.1777901774806180E+01    0.5000000000000000E+01
    0.2192512063922564E+01    0.1576861561598471E+01    0.5000000000000000E+01
    0.2024793420196460E+01    0.4773861992750707E+00    0.5000000000000000E+01
    0.2990627757741975E+01   -0.4878110785814084E+00    0.5000000000000000E+01
    0.0000000000000000E+00   -0.2500000000000000E+01    0.1250000000000000E+01
    0.0000000000000000E+00   -0.2500000000000000E+01    0.2500000000000000E+01
    0.0000000000000000E+00   -0.2500000000000000E+01    0.3750000000000000E+01
    0.0000000000000000E+00    0.1558308132739014E+01    0.4042003247744892E+01
    0.0000000000000000E+00   -0.1548001304379777E+01    0.9304122287900499E+00
    0.0000000000000000E+00    0.1462892710085612E+01    0.1037243024609388E+01
    0.0000000000000000E+00   -0.1445243809615570E+01    0.3946240828834967E+01
    0.0000000000000000E+00   -0.3455338993778935E+00    0.4092527262848217E+01
    0.0000000000000000E+00    0.6277660831404320E+00    0.4293103109154542E+01
    0.0000000000000000E+00    0.7429886854239611E+00    0.3241512314643519E+01
    0.0000000000000000E+00   -0.1588117879734118E+01    0.2844289952419609E+01
    0.0000000000000000E+00   -0.6002320124191652E+00    0.7159905765450471E+00
    0.0000000000000000E+00   -0.7398147869923652E+00    0.1754341919796891E+01
    0.0000000000000000E+00   -0.1788622905643739E+01    0.1870296826774691E+01
    0.0000000000000000E+00    0.3083720183248586E+00    0.9220614901912976E+00
    0.0000000000000000E+00    0.1777901774806180E+01    0.3101523624086016E+01
    0.0000000000000000E+00    0.1576861561598471E+01    0.2192512063922564E+01
[...]
POINT_DATA 213
SCALARS rho double 1
LOOKUP_TABLE default
   0.1344271447736753E+01
   0.9569758910474758E+00
   0.9462964175430113E+00
   0.9418612685759392E+00
   0.8437304873664070E+00
   0.7738004284535384E+00
   0.7629818915468097E+00
   0.7664577883980154E+00
   0.8307874039349300E+00
   0.9352972551619446E+00
   0.9342219821867904E+00
   0.9617195271933211E+00
   0.1449457443389319E+01
   0.1494090642043048E+01
   0.1644667275421245E+01
   0.1425832044252403E+01
   0.1009014433566963E+01
   0.9508810839712921E+00
   0.9436508478987383E+00
   0.9581561035243388E+00
   0.9415852462063162E+00
   0.1036377239930115E+01
   0.9256161097297406E+00
   0.9322349849654988E+00
   0.9537479574969145E+00
   0.9518769546353187E+00
   0.9348583100642759E+00
   0.9564028400708374E+00
   0.9376098388260294E+00
   0.9300661523450167E+00
   0.9445157475924681E+00
   0.8863506506566066E+00
   0.9423579947835303E+00
   0.9635003075535483E+00
   0.1008299039540803E+01
   0.1006735291841506E+01
   0.1001964617568656E+01
   0.1003219581467061E+01
   0.1004132053895816E+01
   0.1005228602878748E+01
   0.1004260408208903E+01
   0.1008308189899791E+01
   0.1023893137805491E+01
   0.1063553955927973E+01
   0.1019182513000297E+01
   0.1001780766381745E+01
   0.9643309930672440E+00
   0.1005283708912530E+01
   0.1000721163214871E+01
   0.1008742083714087E+01
   0.1008078083568288E+01
   0.1002349807040774E+01
   0.9979986848002943E+00
   0.1000583560884235E+01
   0.1001620123587375E+01
   0.9826893072393839E+00
   0.9842439641048821E+00
   0.9833314032664225E+00
   0.9788207406088352E+00
   0.9902638160325683E+00
   0.9934561552581009E+00
   0.1002011751627820E+01
   0.1002134465637521E+01
   0.1002276326495501E+01
   0.1001794758329000E+01
   0.1009778638902282E+01
   0.1006429109054671E+01
   0.9558786954927704E+00
   0.9249398402852753E+00
   0.1007036755532017E+01
   0.1004504925158280E+01
   0.9143642067546047E+00
   0.9089667856668943E+00
   0.8751688893659345E+00
   0.9767271883897876E+00
   0.1000452621137447E+01
   0.1005831087461651E+01
   0.1012882803351789E+01
   0.1011618951352200E+01
   0.1010438648653881E+01
   0.1005468280897325E+01
   0.9907612678972444E+00
   0.1005140325734401E+01
   0.9860567246001372E+00
   0.1005609737754053E+01
   0.1004248005671535E+01
   0.1002888437659923E+01
   0.1003345420413719E+01
   0.1003992731837046E+01
   0.1005101716113329E+01
   0.1003211645102319E+01
   0.1002663159934222E+01
   0.1002586231387751E+01
   0.1004060870901043E+01
   0.1004320345993550E+01
   0.1001641920341642E+01
   0.1002273115951475E+01
   0.1002543475563297E+01
   0.1003469520775519E+01
   0.1003372640225423E+01
   0.1003232230004934E+01
   0.1004423863406183E+01
   0.1004313070792536E+01
   0.1003659849363755E+01
   0.1003723103892487E+01
   0.1004329726383416E+01
   0.1004465021824222E+01
   0.1003623375293721E+01
   0.1064422801105045E+01
   0.1028473621146339E+01
   0.1009586657248611E+01
   0.1006638837416760E+01
   0.1163935521213570E+01
   0.1086087969729620E+01
   0.1007893419203929E+01
   0.1007245533248318E+01
   0.1006798074092396E+01
   0.1013018286830863E+01
   0.1019384609366331E+01
   0.1235203669271879E+01
   0.1032529466542355E+01
   0.1046681191273753E+01
   0.1200953641981127E+01
   0.1014718915936616E+01
   0.1032291153071547E+01
   0.1028095236510309E+01
   0.1014628639689698E+01
   0.1029216892369854E+01
   0.1001994816342410E+01
   0.9606929187749258E+00
   0.1006852582734415E+01
   0.1001327193293164E+01
   0.1010821905287294E+01
   0.1012246098864909E+01
   0.1000946006876414E+01
   0.9979121234105622E+00
   0.9980632372386153E+00
   0.1001184143334043E+01
   0.9841362010727464E+00
   0.9814879613660266E+00
   0.9648483316865825E+00
   0.9680877121749087E+00
   0.9914124469960265E+00
   0.9910858388097229E+00
   0.9925545095570026E+00
   0.1001727533819958E+01
   0.9993409401626222E+00
   0.9941410834838087E+00
   0.1007038753579458E+01
   0.1022539494052454E+01
   0.1001088098309957E+01
   0.1008798496184134E+01
   0.1004773846022508E+01
   0.1009050237366626E+01
   0.9966470331537732E+00
   0.1004988557305260E+01
   0.1003325535118651E+01
   0.9949431084907683E+00
   0.9832680781337549E+00
   0.9943957454820159E+00
   0.9973420655938567E+00
   0.9932190085759678E+00
   0.1001306487085351E+01
   0.1003001636891500E+01
   0.1002183579583512E+01
   0.9947078545325116E+00
   0.9937965521057882E+00
   0.1004867865456655E+01
   0.1020077607361709E+01
   0.1005364552302333E+01
   0.9816998152314014E+00
   0.1004973031179108E+01
   0.1012382323320369E+01
   0.9871424292584378E+00
   0.9551513532822639E+00
   0.9865075699801487E+00
   0.9864532949141973E+00
   0.9918946939870014E+00
   0.9933508197457875E+00
   0.9954406183846342E+00
   0.1037336789614154E+01
   0.1033536797831051E+01
   0.1001443320762744E+01
   0.1001930499709060E+01
   0.9912478516536553E+00
   0.9910920509365648E+00
   0.9648489987164290E+00
   0.9933282604833745E+00
   0.1006058638659491E+01
   0.1001954027109489E+01
   0.9908735804177239E+00
   0.9740945211121781E+00
   0.9418802133461101E+00
   0.9819379689240547E+00
   0.9794803560474116E+00
   0.9704172057785386E+00
   0.9720478942567471E+00
   0.9557351700692959E+00
   0.9496731208308542E+00
   0.9528673562373190E+00
   0.1002659533959464E+01
   0.1002471631877372E+01
   0.1000509329234866E+01
   0.1001677321729442E+01
   0.9607931426883349E+00
   0.9491625497962216E+00
   0.9584503054939303E+00
   0.1001121207700389E+01
   0.1000496140521660E+01
   0.1001156644142556E+01
   0.9807376182895585E+00
   0.9806000806392382E+00
   0.9628476101733167E+00
SCALARS u double 1
LOOKUP_TABLE default
   0.0000000000000000E+00
   0.0000000000000000E+00
   0.0000000000000000E+00
   0.0000000000000000E+00
   0.0000000000000000E+00
   0.0000000000000000E+00
   0.0000000000000000E+00
   0.0000000000000000E+00
   0.0000000000000000E+00
   0.0000000000000000E+00
   0.0000000000000000E+00
   0.0000000000000000E+00
   0.0000000000000000E+00
   0.0000000000000000E+00
   0.0000000000000000E+00
   0.0000000000000000E+00
   0.0000000000000000E+00
   0.0000000000000000E+00
   0.0000000000000000E+00
   0.0000000000000000E+00
   0.0000000000000000E+00
   0.0000000000000000E+00
   0.0000000000000000E+00
   0.0000000000000000E+00
   0.0000000000000000E+00
   0.0000000000000000E+00
   0.0000000000000000E+00
   0.0000000000000000E+00
   0.0000000000000000E+00
   0.0000000000000000E+00
   0.0000000000000000E+00
   0.0000000000000000E+00
   0.0000000000000000E+00
   0.4950176839421728E+00
   0.5338221299227440E+00
   0.5183269246711766E+00
   0.4930649880182238E+00
   0.4847578720317341E+00
   0.4867666424971580E+00
   0.4890763584525132E+00
   0.4957848881065737E+00
   0.4898301884883443E+00
   0.4717388495369577E+00
   0.4454814155483590E+00
   0.4833907047776748E+00
   0.5098397462765414E+00
   0.4390712704735253E+00
   0.4949403965683133E+00
   0.5225330363038083E+00
   0.4962454546688503E+00
   0.5226154964348345E+00
   0.5038881743874158E+00
   0.5646883608807302E+00
   0.5247509157126140E+00
   0.4991466120272821E+00
   0.5730561901852446E+00
   0.5696051097543511E+00
   0.3737941449144788E+00
   0.3998658125715201E+00
   0.5599326587112531E+00
   0.5564587630798096E+00
   0.4942627332916204E+00
   0.4948659466085389E+00
   0.4925735874177286E+00
   0.4914269544076460E+00
   0.5162356850251423E+00
   0.5361798304677476E+00
   0.4947413361848021E+00
   0.4524112210379715E+00
   0.5128777325163199E+00
   0.5117942040312146E+00
   0.4783517512787833E+00
   0.4931696659510684E+00
   0.4603173600338796E+00
   0.5244892721643436E+00
   0.5297434247682975E+00
   0.5129579300466321E+00
   0.5328358318137655E+00
   0.5308941036029864E+00
   0.5309856169375902E+00
   0.5063656735175774E+00
   0.5282461955004343E+00
   0.5410312729339334E+00
   0.5361261481557182E+00
   0.5374105275021014E+00
   0.4965364819249599E+00
   0.4975340904507964E+00
   0.4963842645057416E+00
   0.4955220268146173E+00
   0.4904581832073526E+00
   0.4903044386154651E+00
   0.4862182764974554E+00
   0.4854049561878855E+00
   0.4932164388841028E+00
   0.4909833313183291E+00
   0.4832194697193727E+00
   0.4872622777750145E+00
   0.4880124910108234E+00
   0.4872445932366429E+00
   0.4882696670324493E+00
   0.4952597557248479E+00
   0.4900967168789288E+00
   0.4904000091664985E+00
   0.4944232926328971E+00
   0.4868002481759107E+00
   0.4892385984833765E+00
   0.4881393370628360E+00
   0.4878457829710178E+00
   0.4446866580240368E+00
   0.4700028782298434E+00
   0.4891999057419317E+00
   0.4885247844505239E+00
   0.4506533050955408E+00
   0.4687378567197869E+00
   0.4877010457698485E+00
   0.4868353684181894E+00
   0.4908994716754148E+00
   0.4793551577968544E+00
   0.4658071748481696E+00
   0.3792725229457667E+00
   0.4901596531430646E+00
   0.4486686692397345E+00
   0.4436137392388843E+00
   0.4845147242297695E+00
   0.4621822646970164E+00
   0.4665749536212142E+00
   0.4748140300758097E+00
   0.4894494213004993E+00
   0.5085556973319080E+00
   0.4315073874041286E+00
   0.4927349361861103E+00
   0.5318289233960628E+00
   0.4913399196743085E+00
   0.5207019993356297E+00
   0.5060964599855495E+00
   0.5688797394991643E+00
   0.5273992817797611E+00
   0.5015044841790270E+00
   0.5821790087087194E+00
   0.5689618253102519E+00
   0.3406394441907351E+00
   0.3789869412871166E+00
   0.5751958206365063E+00
   0.5666485492992539E+00
   0.5704108783173105E+00
   0.5291056376420735E+00
   0.5451902711326222E+00
   0.5718804315174347E+00
   0.5389079126481414E+00
   0.5475507505124902E+00
   0.5821713868535131E+00
   0.4925601785103815E+00
   0.5042157546865138E+00
   0.4961735436831176E+00
   0.5565207962901622E+00
   0.4758845210040289E+00
   0.4950268384216694E+00
   0.5498525443593163E+00
   0.5891202296754823E+00
   0.5841957609304432E+00
   0.5469097664596283E+00
   0.5805417617637278E+00
   0.5106251438881516E+00
   0.5030200513661763E+00
   0.5033624680382620E+00
   0.5676446096058567E+00
   0.5563943082839987E+00
   0.4947255973987031E+00
   0.5505243828822192E+00
   0.5510857280990042E+00
   0.5657350949761695E+00
   0.4920070018402236E+00
   0.4927299097237462E+00
   0.3865140568662262E+00
   0.3687754532665391E+00
   0.5574921717325561E+00
   0.5763755545538415E+00
   0.4194304389979027E+00
   0.5824843240555747E+00
   0.4265209609144444E+00
   0.5392799844264516E+00
   0.5012032759564105E+00
   0.5119513208555738E+00
   0.5049119464194081E+00
   0.5751974973472973E+00
   0.5876371360232518E+00
   0.5379907807141334E+00
   0.5677472540014342E+00
   0.5351248666061568E+00
   0.5338056379317115E+00
   0.5580313798190848E+00
   0.5512707862213273E+00
   0.4261852756670759E+00
   0.5273356177786873E+00
   0.5795712529622447E+00
   0.3318687133099130E+00
   0.4760283324434605E+00
   0.5446196254195094E+00
   0.4798331900880531E+00
   0.3005293508185141E+00
   0.5031051138589006E+00
   0.5017115978252660E+00
   0.5129033211210228E+00
   0.5414840108206604E+00
   0.3437603854705759E+00
   0.3397710716073524E+00
   0.3189928570697181E+00
   0.5065936052352388E+00
   0.5123483779925679E+00
   0.5330313519304059E+00
   0.5879310000196021E+00
   0.4644180532991954E+00
   0.3531270508908889E+00
SCALARS v double 1
LOOKUP_TABLE default
   0.0000000000000000E+00
   0.0000000000000000E+00
   0.0000000000000000E+00
   0.0000000000000000E+00
   0.0000000000000000E+00
   0.0000000000000000E+00
   0.0000000000000000E+00
   0.0000000000000000E+00
   0.0000000000000000E+00
   0.0000000000000000E+00
   0.0000000000000000E+00
   0.0000000000000000E+00
   0.0000000000000000E+00
   0.0000000000000000E+00
   0.0000000000000000E+00
   0.0000000000000000E+00
   0.0000000000000000E+00
   0.0000000000000000E+00
   0.0000000000000000E+00
   0.0000000000000000E+00
   0.0000000000000000E+00
   0.0000000000000000E+00
   0.0000000000000000E+00
   0.0000000000000000E+00
   0.0000000000000000E+00
   0.0000000000000000E+00
   0.0000000000000000E+00
   0.0000000000000000E+00
   0.0000000000000000E+00
   0.0000000000000000E+00
   0.0000000000000000E+00
   0.0000000000000000E+00
   0.0000000000000000E+00
   0.0000000000000000E+00
   0.0000000000000000E+00
   0.0000000000000000E+00
   0.0000000000000000E+00
   0.0000000000000000E+00
   0.0000000000000000E+00
   0.0000000000000000E+00
   0.0000000000000000E+00
   0.0000000000000000E+00
   0.0000000000000000E+00
   0.0000000000000000E+00
   0.0000000000000000E+00
   0.0000000000000000E+00
   0.0000000000000000E+00
   0.0000000000000000E+00
   0.0000000000000000E+00
   0.0000000000000000E+00
   0.0000000000000000E+00
   0.0000000000000000E+00
   0.0000000000000000E+00
   0.0000000000000000E+00
   0.0000000000000000E+00
   0.0000000000000000E+00
   0.0000000000000000E+00
   0.0000000000000000E+00
   0.0000000000000000E+00
   0.0000000000000000E+00
   0.0000000000000000E+00
   0.7970254490246911E-03
  -0.1329294698727831E-02
  -0.1332592762162872E-02
   0.0000000000000000E+00
   0.0000000000000000E+00
   0.0000000000000000E+00
   0.0000000000000000E+00
  -0.1922562559330479E-01
   0.4770618113423334E-03
   0.2183360177660171E-02
   0.1427333026466733E-01
  -0.6488282162029494E-02
  -0.7821622780609631E-02
  -0.1327725051444985E-01
   0.4914481780485148E-02
   0.6907121977134674E-03
   0.3434418432366916E-02
   0.1920847378561962E-02
   0.3147960246514596E-02
   0.1704778375147242E-02
  -0.7316187321299846E-02
  -0.7701900474354485E-04
   0.4468738002720533E-02
  -0.4387156230738771E-03
  -0.6383742368424497E-04
  -0.1963394584061133E-03
   0.8071267987301392E-03
   0.0000000000000000E+00
   0.0000000000000000E+00
   0.0000000000000000E+00
   0.0000000000000000E+00
   0.4257020179227353E-03
   0.1616304630745578E-02
  -0.1297550942965612E-02
  -0.1022774984271619E-02
  -0.2134342418990026E-02
  -0.1064012668254168E-02
  -0.8200064315122278E-03
  -0.7617033238430336E-03
   0.5202258831029493E-04
  -0.6244091932801507E-03
   0.7916469166373153E-03
  -0.1745238507051442E-02
   0.2747128632450762E-03
  -0.8939747369642701E-04
  -0.9424310118775651E-03
  -0.1100227544391646E-02
   0.0000000000000000E+00
   0.0000000000000000E+00
   0.0000000000000000E+00
  -0.1061759102209689E-02
  -0.7641129348215062E-02
   0.1860854751739276E-01
  -0.2834553559112077E-04
  -0.1383129142407678E-02
  -0.2035122961766722E-02
  -0.5666383177237726E-02
  -0.1585210192831877E-02
  -0.5947016649703251E-02
  -0.4160601997741997E-02
   0.1565614845816055E-02
   0.3329524840211523E-01
   0.3055140707915120E-04
  -0.2766884885329112E-02
   0.3566484706038745E-02
   0.3596189468707792E-03
   0.0000000000000000E+00
   0.0000000000000000E+00
   0.0000000000000000E+00
   0.0000000000000000E+00
   0.0000000000000000E+00
   0.0000000000000000E+00
   0.0000000000000000E+00
   0.0000000000000000E+00
   0.0000000000000000E+00
   0.0000000000000000E+00
   0.0000000000000000E+00
   0.0000000000000000E+00
   0.0000000000000000E+00
   0.0000000000000000E+00
   0.0000000000000000E+00
   0.0000000000000000E+00
   0.0000000000000000E+00
   0.5047032572434764E-02
   0.3230791932314332E-02
   0.8149134277062814E-02
   0.6168366978409980E-02
   0.1122928638281262E-01
   0.1429277501712724E-01
  -0.2038826637320245E-03
   0.5118221822319796E-02
   0.2914950543513836E-02
   0.3373611829476121E-02
   0.3728336428839012E-02
  -0.1465719871003862E-01
  -0.6159699901328198E-03
   0.6651630348629555E-02
   0.1542014268187919E-02
   0.1969646529092581E-02
   0.4266273538107964E-02
  -0.2790960946661666E-02
   0.1226887070177066E-02
   0.2819172487979609E-02
   0.1497449159944411E-02
   0.2575339051457382E-02
   0.2030646438627384E-02
   0.2118046067113965E-02
   0.8700410412430134E-02
  -0.3733397031605519E-02
   0.6241189082094281E-02
   0.2516488994482940E-04
  -0.3854044971404374E-03
  -0.1674679008251399E-01
  -0.4881976865707125E-02
  -0.4720000798376728E-02
   0.3445223057364155E-02
  -0.6135724105008895E-02
   0.9934521243579270E-04
  -0.3291372911887347E-01
  -0.3046196900000841E-02
   0.4722743107279526E-02
   0.9228367986312069E-03
   0.2112175232919830E-02
   0.4518755684449824E-02
   0.2720465273884955E-02
   0.3212576515627904E-02
   0.5200804220849296E-02
   0.1941838963395201E-02
   0.7315897455861118E-03
  -0.2555240582111556E-04
  -0.5374632800975099E-02
  -0.6959590976244515E-02
  -0.9443816333043757E-03
   0.1105268421864460E-02
  -0.2080554061303514E-02
  -0.3200035923384150E-02
  -0.2527833368422391E-02
  -0.4115193626085454E-02
  -0.7593954919198105E-02
  -0.1985686409751501E-02
   0.6240402827990047E-03
  -0.2239081761996361E-03
   0.1216949785798312E-02
  -0.3483958271818747E-02
   0.5229139972606146E-02
  -0.8487626022258610E-02
   0.2315169720430006E-04
  -0.3395192899368366E-03
   0.2542663553787405E-02
   0.1663457668223385E-02
   0.2021438708864715E-02
  -0.5620783953770545E-02
SCALARS w double 1
LOOKUP_TABLE default
   0.0000000000000000E+00
   0.0000000000000000E+00
   0.0000000000000000E+00
   0.0000000000000000E+00
   0.0000000000000000E+00
   0.0000000000000000E+00
   0.0000000000000000E+00
   0.0000000000000000E+00
   0.0000000000000000E+00
   0.0000000000000000E+00
   0.0000000000000000E+00
   0.0000000000000000E+00
   0.0000000000000000E+00
   0.0000000000000000E+00
   0.0000000000000000E+00
   0.0000000000000000E+00
   0.0000000000000000E+00
   0.0000000000000000E+00
   0.0000000000000000E+00
   0.0000000000000000E+00
   0.0000000000000000E+00
   0.0000000000000000E+00
   0.0000000000000000E+00
   0.0000000000000000E+00
   0.0000000000000000E+00
   0.0000000000000000E+00
   0.0000000000000000E+00
   0.0000000000000000E+00
   0.0000000000000000E+00
   0.0000000000000000E+00
   0.0000000000000000E+00
   0.0000000000000000E+00
   0.0000000000000000E+00
  -0.1007612293381760E+00
  -0.4249297148626661E-01
   0.7371986057738227E-03
   0.5725799916411093E-02
   0.5699057397904693E-03
   0.1609783103676435E-02
   0.3375073015335542E-02
   0.2371773639385014E-02
   0.4590624748594672E-03
   0.3518225889252299E-02
   0.4521817574766856E-01
   0.6522937802917272E-01
   0.8689296906243850E-03
  -0.2261151842643626E-01
   0.4316553518626626E-02
   0.1358734834551488E-01
   0.1039452549898911E-01
   0.4900548405187801E-01
   0.2437443504196307E-02
  -0.6509941134532788E-02
  -0.7012227591331109E-03
   0.3411016345058645E-03
   0.3904107328952027E-02
  -0.3893254321479953E-01
   0.1798168100075857E-01
   0.1119638189145029E-01
   0.3403773251361105E-01
   0.8438810194814628E-02
   0.4937312253996432E-02
   0.4970345566087557E-02
   0.4871517404021268E-02
   0.6027191703184765E-02
   0.2599191735619410E-02
  -0.4144429610802608E-01
  -0.9954261890851043E-01
  -0.1121678224584146E+00
   0.5070875020321461E-02
   0.4230770695824854E-02
  -0.1004732307827219E+00
  -0.9895252534358415E-01
  -0.9875450984453925E-01
  -0.9462509643752297E-01
  -0.6807133849400410E-01
   0.5154922184766534E-02
  -0.1935330754860660E-01
  -0.1575800299812920E-01
  -0.6002862417729787E-02
   0.6819057384770494E-02
  -0.8010050837080192E-01
  -0.2781092467701717E-01
  -0.8096457379324931E-01
  -0.5873277574978762E-01
   0.3083625680030619E-02
   0.2685146462128717E-02
   0.2640431173369704E-02
   0.3450191913127177E-02
   0.4007083778252258E-02
   0.1201214311779678E-02
  -0.1438846514190317E-03
   0.2039877268174211E-02
   0.4895693605070313E-02
   0.3857385588598005E-02
   0.1114201935851981E-02
   0.1182682023599105E-02
   0.1465296229053181E-02
  -0.1653639685931717E-04
   0.8996623911367181E-04
   0.4386667861470676E-02
   0.2715724234332367E-02
   0.2322755292597820E-02
   0.5010601032935550E-02
   0.1071689333240882E-02
   0.2712217715587284E-02
   0.2013964084663569E-02
   0.2879084778862609E-04
   0.8374614276650902E-01
   0.2793870712782007E-02
  -0.8346628107358123E-03
  -0.1492945494273445E-03
   0.1409540840345283E+00
   0.1239332954747202E+00
  -0.1219093297352715E-02
  -0.4381936077830446E-02
  -0.3043057835390748E-03
  -0.6512246804489688E-02
  -0.1949570315509484E-02
   0.1557630974708919E+00
   0.7489979192624821E-01
   0.2550174902491723E-01
   0.1656445120608750E+00