title="tecplot geometry and solution file"
variables = x y z rho u v w p mach temperature
zone t="boundary 1 bc-1", solutiontime= 0.6000000E+02, strandid=1001, i=32, j=46, f=feblock
  0.000000000000E+00  0.000000000000E+00  0.000000000000E+00  0.000000000000E+00  0.000000000000E+00  0.000000000000E+00  0.000000000000E+00
  0.000000000000E+00  0.000000000000E+00  0.000000000000E+00  0.000000000000E+00  0.000000000000E+00  0.000000000000E+00  0.000000000000E+00
  0.000000000000E+00  0.000000000000E+00  0.000000000000E+00  0.000000000000E+00  0.000000000000E+00  0.000000000000E+00  0.000000000000E+00
  0.000000000000E+00  0.000000000000E+00  0.000000000000E+00  0.000000000000E+00  0.000000000000E+00  0.000000000000E+00  0.000000000000E+00
  0.000000000000E+00  0.000000000000E+00  0.000000000000E+00  0.000000000000E+00
  0.250000000000E+01  0.250000000000E+01  0.125000000000E+01  0.146289271009E+01  0.157686156160E+01  0.308372018325E+00  0.000000000000E+00
 -0.125000000000E+01 -0.600232012419E+00  0.250000000000E+01  0.477386199275E+00  0.742988685424E+00 -0.739814786992E+00  0.177790177481E+01
  0.155830813274E+01  0.250000000000E+01 -0.250000000000E+01 -0.154800130438E+01 -0.487811078581E+00  0.250000000000E+01  0.627766083140E+00
 -0.345533899378E+00 -0.178862290564E+01 -0.158811787973E+01  0.125000000000E+01 -0.250000000000E+01 -0.144524380962E+01  0.000000000000E+00
 -0.125000000000E+01 -0.250000000000E+01 -0.250000000000E+01 -0.250000000000E+01
  0.000000000000E+00  0.125000000000E+01  0.000000000000E+00  0.103724302461E+01  0.219251206392E+01  0.922061490191E+00  0.000000000000E+00
  0.000000000000E+00  0.715990576545E+00  0.250000000000E+01  0.202479342020E+01  0.324151231464E+01  0.175434191980E+01  0.310152362409E+01
  0.404200324774E+01  0.375000000000E+01  0.000000000000E+00  0.930412228790E+00  0.299062775774E+01  0.500000000000E+01  0.429310310915E+01
  0.409252726285E+01  0.187029682677E+01  0.284428995242E+01  0.500000000000E+01  0.125000000000E+01  0.394624082883E+01  0.500000000000E+01
  0.500000000000E+01  0.250000000000E+01  0.375000000000E+01  0.500000000000E+01
  0.134427144774E+01  0.106355395593E+01  0.142583204425E+01  0.108608796972E+01  0.103229115308E+01  0.120095364199E+01  0.164466727543E+01
  0.149409064205E+01  0.123520366928E+01  0.102389313781E+01  0.102809523652E+01  0.101301828684E+01  0.103252946655E+01  0.101471891594E+01
  0.100663883742E+01  0.100830818990E+01  0.144945744340E+01  0.116393552121E+01  0.101462863969E+01  0.100426040821E+01  0.100679807409E+01
  0.100724553325E+01  0.104668119128E+01  0.101938460937E+01  0.100424800567E+01  0.106442280112E+01  0.100789341921E+01  0.100288843766E+01
  0.100334542042E+01  0.102847362115E+01  0.100958665725E+01  0.100399273184E+01
  0.000000000000E+00  0.445481415544E+00  0.000000000000E+00  0.468737856729E+00  0.462182264689E+00  0.443613739228E+00  0.000000000000E+00
  0.000000000000E+00  0.379272522942E+00  0.471738849533E+00  0.466574953615E+00  0.479355157792E+00  0.490159653134E+00  0.484514724226E+00
  0.488524784452E+00  0.489830188488E+00  0.000000000000E+00  0.450653305111E+00  0.474814030074E+00  0.495784888091E+00  0.490899471667E+00
  0.486835368414E+00  0.448668669237E+00  0.465807174850E+00  0.496536481920E+00  0.444686657991E+00  0.487701045763E+00  0.497534090445E+00
  0.496384264502E+00  0.470002878231E+00  0.489199905738E+00  0.495522026809E+00
  0.000000000000E+00  0.000000000000E+00  0.000000000000E+00  0.186085475205E-01 -0.276688488496E-02  0.332952484035E-01  0.000000000000E+00
  0.000000000000E+00 -0.594701665105E-02  0.000000000000E+00  0.356648470808E-02 -0.566638317586E-02 -0.416060200011E-02  0.305514077004E-04
 -0.106175910510E-02  0.000000000000E+00  0.000000000000E+00 -0.764112934415E-02  0.359618947197E-03  0.000000000000E+00 -0.203512296475E-02
 -0.138312914352E-02  0.156561484516E-02 -0.158521019632E-02 -0.638374252439E-04  0.000000000000E+00 -0.283455342498E-04 -0.196339459164E-03
  0.807126800446E-03  0.000000000000E+00  0.000000000000E+00  0.000000000000E+00
  0.000000000000E+00  0.452181757464E-01  0.000000000000E+00  0.123933295478E+00  0.247647171784E-01  0.165644512061E+00  0.000000000000E+00
  0.000000000000E+00  0.155763097471E+00  0.351822588945E-02  0.259783174332E-01 -0.651224680288E-02  0.748997919265E-01  0.371839290060E-02
 -0.149294546342E-03  0.459062475583E-03  0.000000000000E+00  0.140954084035E+00 -0.808565310158E-02  0.237177364464E-02 -0.304305780418E-03
 -0.438193607332E-02  0.255017490256E-01 -0.194957031504E-02  0.308362568095E-02  0.837461427521E-01 -0.121909329641E-02  0.268514646810E-02
  0.264043117839E-02  0.279387071244E-02 -0.834662810667E-03  0.345019191614E-02
  0.960184573149E+00  0.782340562162E+00  0.101844204927E+01  0.808726658031E+00  0.746125892120E+00  0.879446499428E+00  0.117475225660E+01
  0.106719924388E+01  0.916620147325E+00  0.737395238864E+00  0.743553972755E+00  0.725759211376E+00  0.757455250821E+00  0.729188343665E+00
  0.720785048227E+00  0.722781670892E+00  0.103531921254E+01  0.858317140701E+00  0.728065073337E+00  0.718615293875E+00  0.721013448758E+00
  0.721151587107E+00  0.760018786250E+00  0.732628403477E+00  0.718531161624E+00  0.791043235579E+00  0.722107949788E+00  0.717199383047E+00
  0.717636870851E+00  0.741799737326E+00  0.724056580069E+00  0.718400634617E+00
  0.000000000000E+00  0.441238348580E+00  0.000000000000E+00  0.475214987120E+00  0.460123709069E+00  0.468827815562E+00  0.000000000000E+00
  0.000000000000E+00  0.402302517062E+00  0.469814974561E+00  0.464411129167E+00  0.478714034356E+00  0.489298241790E+00  0.483068558039E+00
  0.487930073234E+00  0.488961654748E+00  0.000000000000E+00  0.464775721913E+00  0.473795652089E+00  0.495346592088E+00  0.490266103538E+00
  0.486286084016E+00  0.445717618342E+00  0.464382274854E+00  0.496127394984E+00  0.443624103816E+00  0.486964462079E+00  0.497246279831E+00
  0.496059270963E+00  0.467732355647E+00  0.488212087490E+00  0.495098264893E+00
  0.999990295612E+00  0.102982719487E+01  0.999990759591E+00  0.104247294216E+01  0.101190080517E+01  0.102520618295E+01  0.999991416995E+00
  0.999992168736E+00  0.103891223624E+01  0.100826277303E+01  0.101252833870E+01  0.100300548285E+01  0.102702865681E+01  0.100605563284E+01
  0.100244400475E+01  0.100355660043E+01  0.999992724287E+00  0.103239739237E+01  0.100459524086E+01  0.100179336276E+01  0.100260305839E+01
  0.100234966413E+01  0.101657153068E+01  0.100617544687E+01  0.100168844807E+01  0.104043292632E+01  0.100303376373E+01  0.100118726925E+01
  0.100134171019E+01  0.100976788408E+01  0.100405369347E+01  0.100176112492E+01
        12        19        11        11
        11         5        12        12
        10        14         5         5
        19        13        11        11
        19        24        13        13
        30        23        24        24
        19        12        22        22
        28        22        21        21
        11        13         6         6
         7         6         9         9
        15        12        14        14
        18        13        23        23
        15        25        21        21
        27        19        22        22
        18         8         9         9
        27        31        24        24
         4        11         6         6
         5        14        12        12
         4         2         5         5
        21        12        15        15
        14        16        15        15
        24        19        27        27
        22        29        27        27
        23        26        18        18
        17         8        18        18
         5        11         4         4
         6         3         4         4
        26        23        30        30
         5         2        10        10
        16        14        10        10
         3         6         7         7
        21        25        28        28
        29        22        28        28
         6        13         9         9
         2         4         1         1
        31        27        32        32
        25        15        20        20
        24        23        13        13
         8         7         9         9
        13        18         9         9
        31        30        24        24
        12        21        22        22
        29        32        27        27
         3         1         4         4
        26        17        18        18
        16        20        15        15
zone t="boundary 2 bc-2", solutiontime= 0.6000000E+02, strandid=1002, i=33, j=48, f=feblock
  0.500000000000E+01  0.375000000000E+01  0.250000000000E+01  0.288078410721E+01  0.125000000000E+01  0.190974100652E+01  0.326683758169E+01
  0.201431602454E+01  0.000000000000E+00  0.963108083381E+00  0.500000000000E+01  0.403552511878E+01  0.423153924130E+01  0.500000000000E+01
  0.385533350601E+01  0.500000000000E+01  0.398173246726E+01  0.315249557942E+01  0.267000324704E+01  0.154774304040E+01  0.218329375016E+01
  0.893127759452E+00  0.000000000000E+00  0.698517061619E+00  0.964171764089E+00  0.310324758057E+01  0.000000000000E+00  0.000000000000E+00
  0.125000000000E+01  0.500000000000E+01  0.375000000000E+01  0.250000000000E+01  0.000000000000E+00
 -0.250000000000E+01 -0.250000000000E+01 -0.250000000000E+01 -0.250000000000E+01 -0.250000000000E+01 -0.250000000000E+01 -0.250000000000E+01
 -0.250000000000E+01 -0.250000000000E+01 -0.250000000000E+01 -0.250000000000E+01 -0.250000000000E+01 -0.250000000000E+01 -0.250000000000E+01
 -0.250000000000E+01 -0.250000000000E+01 -0.250000000000E+01 -0.250000000000E+01 -0.250000000000E+01 -0.250000000000E+01 -0.250000000000E+01
 -0.250000000000E+01 -0.250000000000E+01 -0.250000000000E+01 -0.250000000000E+01 -0.250000000000E+01 -0.250000000000E+01 -0.250000000000E+01
 -0.250000000000E+01 -0.250000000000E+01 -0.250000000000E+01 -0.250000000000E+01 -0.250000000000E+01
  0.000000000000E+00  0.000000000000E+00  0.000000000000E+00  0.904659890645E+00  0.000000000000E+00  0.717002441913E+00  0.188609243358E+01
  0.176246431481E+01  0.000000000000E+00  0.961328577125E+00  0.125000000000E+01  0.101201586758E+01  0.191586535653E+01  0.250000000000E+01
  0.293121848150E+01  0.375000000000E+01  0.406975391361E+01  0.363585050272E+01  0.285047954584E+01  0.292817774674E+01  0.395907379566E+01
  0.205246550326E+01  0.125000000000E+01  0.306828197606E+01  0.397245519226E+01  0.433168271247E+01  0.250000000000E+01  0.375000000000E+01
  0.500000000000E+01  0.500000000000E+01  0.500000000000E+01  0.500000000000E+01  0.500000000000E+01
  0.830787403937E+00  0.935297255168E+00  0.934221982192E+00  0.968087712190E+00  0.961719527201E+00  0.964848331699E+00  0.984136201080E+00
  0.991412447000E+00  0.144945744340E+01  0.102921689237E+01  0.955878695521E+00  0.960692918804E+00  0.981487961379E+00  0.100642910906E+01
  0.997912123415E+00  0.100977863892E+01  0.100199481635E+01  0.998063237234E+00  0.991085838814E+00  0.100132719330E+01  0.100094600688E+01
  0.101224609887E+01  0.106442280112E+01  0.101082190529E+01  0.100685258274E+01  0.100118414333E+01  0.102847362115E+01  0.100958665725E+01
  0.100510171611E+01  0.100179475834E+01  0.100266315993E+01  0.100321164510E+01  0.100399273184E+01
  0.000000000000E+00  0.000000000000E+00  0.000000000000E+00  0.378986941282E+00  0.000000000000E+00  0.340639444189E+00  0.582179008702E+00
  0.575195820629E+00  0.000000000000E+00  0.489449421295E+00  0.494741336155E+00  0.431507387400E+00  0.568961825303E+00  0.536179830468E+00
  0.568879739500E+00  0.516235685022E+00  0.508555697361E+00  0.527399281788E+00  0.566648549300E+00  0.531828923398E+00  0.506096459985E+00
  0.520701999329E+00  0.444686657991E+00  0.491339919675E+00  0.492734936181E+00  0.501504484191E+00  0.470002878231E+00  0.489199905738E+00
  0.490458183198E+00  0.491426954407E+00  0.486218276500E+00  0.490304438626E+00  0.495522026809E+00
  0.000000000000E+00  0.000000000000E+00  0.000000000000E+00  0.000000000000E+00  0.000000000000E+00  0.000000000000E+00  0.000000000000E+00
  0.000000000000E+00  0.000000000000E+00  0.000000000000E+00  0.000000000000E+00  0.000000000000E+00  0.000000000000E+00  0.000000000000E+00
  0.000000000000E+00  0.000000000000E+00  0.000000000000E+00  0.000000000000E+00  0.000000000000E+00  0.000000000000E+00  0.000000000000E+00
  0.000000000000E+00  0.000000000000E+00  0.000000000000E+00  0.000000000000E+00  0.000000000000E+00  0.000000000000E+00  0.000000000000E+00
  0.000000000000E+00  0.000000000000E+00  0.000000000000E+00  0.000000000000E+00  0.000000000000E+00
  0.000000000000E+00  0.000000000000E+00  0.000000000000E+00 -0.229669075005E-02  0.000000000000E+00  0.183565245032E-01  0.121122185677E-01
  0.454986541679E-01  0.000000000000E+00  0.870789626917E-01 -0.995426189046E-01 -0.211864966902E-01 -0.306441472813E-01 -0.414442961044E-01
 -0.137883070248E-02  0.259919175636E-02  0.609478549859E-03  0.503572859624E-03  0.150967301051E-01  0.284025717957E-01  0.564163860786E-02
  0.553419830718E-01  0.837461427521E-01  0.110441020572E-01  0.679169182566E-02 -0.758115919066E-03  0.279387071244E-02 -0.834662810667E-03
  0.400708378108E-02  0.602719173287E-02 -0.143884655581E-03  0.120121429623E-02  0.345019191614E-02
  0.593415709628E+00  0.668065253241E+00  0.667297107284E+00  0.684257572377E+00  0.686937806192E+00  0.679201335880E+00  0.695811645369E+00
  0.702343853113E+00  0.103531921254E+01  0.723694676287E+00  0.672591690454E+00  0.675702734177E+00  0.694093188790E+00  0.720959962474E+00
  0.712691281804E+00  0.724770829815E+00  0.716580562926E+00  0.713298992015E+00  0.706429557535E+00  0.717737238903E+00  0.715376602428E+00
  0.730937674878E+00  0.791043235579E+00  0.724372849841E+00  0.721010721325E+00  0.715457540701E+00  0.741799737326E+00  0.724056580069E+00
  0.719312938026E+00  0.715892799179E+00  0.716608904981E+00  0.717367939435E+00  0.718400634617E+00
  0.000000000000E+00  0.000000000000E+00  0.000000000000E+00  0.380991906683E+00  0.000000000000E+00  0.343629824823E+00  0.585286157544E+00
  0.579373264156E+00  0.000000000000E+00  0.501056068473E+00  0.508460363259E+00  0.435373026962E+00  0.572640041379E+00  0.537002098857E+00
  0.568922553846E+00  0.514994090531E+00  0.508247257187E+00  0.527252853142E+00  0.567446661096E+00  0.531657143919E+00  0.505981016665E+00
  0.520795579437E+00  0.443624103816E+00  0.490663730565E+00  0.492155873860E+00  0.501390784760E+00  0.467732355647E+00  0.488212087490E+00
  0.490002767246E+00  0.491352304716E+00  0.486075475335E+00  0.490036479393E+00  0.495098264893E+00
  0.999993487554E+00  0.999993691171E+00  0.999993543296E+00  0.989539056497E+00  0.999993138819E+00  0.985524707866E+00  0.989838908931E+00
  0.991798516685E+00  0.999992724287E+00  0.984411113254E+00  0.985091906585E+00  0.984689081528E+00  0.990058464845E+00  0.100289621830E+01
  0.999855369139E+00  0.100485306643E+01  0.100121554695E+01  0.100055642926E+01  0.997896793413E+00  0.100350029560E+01  0.100058068719E+01
  0.101093276227E+01  0.104043292632E+01  0.100326475363E+01  0.100254498738E+01  0.100045587383E+01  0.100976788408E+01  0.100405369347E+01
  0.100192656832E+01  0.100045434508E+01  0.100058774180E+01  0.100109993750E+01  0.100176112492E+01
        15         7        19        19
         8        20        19        19
        18        19        21        21
         7         4         8         8
         3         6         4         4
        19         7         8         8
        19        18        15        15
        14        13        15        15
         8        22        20        20
        27        24        22        22
        19        20        21        21
        32        26        21        21
        17        18        26        26
        17        16        15        15
        25        29        21        21
        12         7        13        13
        10         8         6         6
        25        20        24        24
         4         6         8         8
        12         2         4         4
        10        23        22        22
        26        31        17        17
        30        16        17        17
         4         7        12        12
        13        11        12        12
        21        20        25        25
        24        28        25        25
        22         8        10        10
         6         5        10        10
        31        26        32        32
         4         2         3         3
         5         6         3         3
        11        13        14        14
        22        23        27        27
        28        24        27        27
        15        13         7         7
         2        12         1         1
        29        25        33        33
        23        10         9         9
        21        26        18        18
        16        14        15        15
        18        17        15        15
        29        32        21        21
        22        24        20        20
        28        33        25        25
        11         1        12        12
        31        30        17        17
         5         9        10        10
zone t="boundary 3 bc-3", solutiontime= 0.6000000E+02, strandid=1003, i=33, j=48, f=feblock
  0.375000000000E+01  0.250000000000E+01  0.500000000000E+01  0.403552511878E+01  0.288078410721E+01  0.125000000000E+01  0.190974100652E+01
  0.500000000000E+01  0.326683758169E+01  0.423153924130E+01  0.201431602454E+01  0.000000000000E+00  0.963108083381E+00  0.500000000000E+01
  0.267000324704E+01  0.385533350601E+01  0.893127759452E+00  0.154774304040E+01  0.000000000000E+00  0.500000000000E+01  0.315249557942E+01
  0.218329375016E+01  0.398173246726E+01  0.000000000000E+00  0.698517061619E+00  0.964171764089E+00  0.125000000000E+01  0.000000000000E+00
  0.500000000000E+01  0.310324758057E+01  0.250000000000E+01  0.375000000000E+01  0.000000000000E+00
  0.250000000000E+01  0.250000000000E+01  0.250000000000E+01  0.250000000000E+01  0.250000000000E+01  0.250000000000E+01  0.250000000000E+01
  0.250000000000E+01  0.250000000000E+01  0.250000000000E+01  0.250000000000E+01  0.250000000000E+01  0.250000000000E+01  0.250000000000E+01
  0.250000000000E+01  0.250000000000E+01  0.250000000000E+01  0.250000000000E+01  0.250000000000E+01  0.250000000000E+01  0.250000000000E+01
  0.250000000000E+01  0.250000000000E+01  0.250000000000E+01  0.250000000000E+01  0.250000000000E+01  0.250000000000E+01  0.250000000000E+01
  0.250000000000E+01  0.250000000000E+01  0.250000000000E+01  0.250000000000E+01  0.250000000000E+01
  0.000000000000E+00  0.000000000000E+00  0.000000000000E+00  0.101201586758E+01  0.904659890645E+00  0.000000000000E+00  0.717002441913E+00
  0.125000000000E+01  0.188609243358E+01  0.191586535653E+01  0.176246431481E+01  0.000000000000E+00  0.961328577125E+00  0.250000000000E+01
  0.285047954584E+01  0.293121848150E+01  0.205246550326E+01  0.292817774674E+01  0.125000000000E+01  0.375000000000E+01  0.363585050272E+01
  0.395907379566E+01  0.406975391361E+01  0.250000000000E+01  0.306828197606E+01  0.397245519226E+01  0.500000000000E+01  0.375000000000E+01
  0.500000000000E+01  0.433168271247E+01  0.500000000000E+01  0.500000000000E+01  0.500000000000E+01
  0.941861268624E+00  0.946296417556E+00  0.843730487454E+00  0.964330993515E+00  0.978820740658E+00  0.956975891052E+00  0.983331403261E+00
  0.963500307868E+00  0.982689307221E+00  0.984243964143E+00  0.990263816030E+00  0.134427144774E+01  0.101918251301E+01  0.100829903952E+01
  0.993456155268E+00  0.997998684797E+00  0.100807808357E+01  0.100072116322E+01  0.106355395593E+01  0.100673529183E+01  0.100058356089E+01
  0.100234980705E+01  0.100178076637E+01  0.102389313781E+01  0.100874208372E+01  0.100528370892E+01  0.100522860288E+01  0.100830818990E+01
  0.100196461762E+01  0.100162012359E+01  0.100413205391E+01  0.100321958149E+01  0.100426040821E+01
  0.000000000000E+00  0.000000000000E+00  0.000000000000E+00  0.439071270506E+00  0.399865812632E+00  0.000000000000E+00  0.373794144923E+00
  0.495017683609E+00  0.573056190177E+00  0.569605109725E+00  0.559932658712E+00  0.000000000000E+00  0.483390704776E+00  0.533822129958E+00
  0.556458763059E+00  0.564688360866E+00  0.522615496429E+00  0.522533036297E+00  0.445481415544E+00  0.518326924647E+00  0.524750915675E+00
  0.503888174364E+00  0.509839746182E+00  0.471738849533E+00  0.496245454665E+00  0.494940396560E+00  0.489076358441E+00  0.489830188488E+00
  0.493064988036E+00  0.499146611992E+00  0.486766642522E+00  0.484757872083E+00  0.495784888091E+00
  0.000000000000E+00  0.000000000000E+00  0.000000000000E+00  0.000000000000E+00  0.000000000000E+00  0.000000000000E+00  0.000000000000E+00
  0.000000000000E+00  0.000000000000E+00  0.000000000000E+00  0.000000000000E+00  0.000000000000E+00  0.000000000000E+00  0.000000000000E+00
  0.000000000000E+00  0.000000000000E+00  0.000000000000E+00  0.000000000000E+00  0.000000000000E+00  0.000000000000E+00  0.000000000000E+00
  0.000000000000E+00  0.000000000000E+00  0.000000000000E+00  0.000000000000E+00  0.000000000000E+00  0.000000000000E+00  0.000000000000E+00
  0.000000000000E+00  0.000000000000E+00  0.000000000000E+00  0.000000000000E+00  0.000000000000E+00
  0.000000000000E+00  0.000000000000E+00  0.000000000000E+00 -0.226115184600E-01  0.111963818673E-01  0.000000000000E+00  0.179816809993E-01
 -0.100761229228E+00  0.390410731763E-02 -0.389325431766E-01  0.340377324992E-01  0.000000000000E+00  0.652293780289E-01 -0.424929714262E-01
  0.843881018957E-02 -0.650994112924E-02  0.490054840507E-01  0.135873483416E-01  0.452181757464E-01  0.737198579418E-03 -0.701222767153E-03
  0.243744350872E-02  0.868929692729E-03  0.351822588945E-02  0.103945254984E-01  0.431655352430E-02  0.337507302627E-02  0.459062475583E-03
  0.572579986936E-02  0.341101631761E-03  0.160978309697E-02  0.569905747250E-03  0.237177364464E-02
  0.672750879192E+00  0.675918855556E+00  0.602658383323E+00  0.676093765222E+00  0.691308921336E+00  0.683547254624E+00  0.690066482524E+00
  0.677274860517E+00  0.695201827772E+00  0.696250865893E+00  0.703344068559E+00  0.960184573149E+00  0.719726358881E+00  0.722866646223E+00
  0.709447759031E+00  0.713700946654E+00  0.726067413863E+00  0.716602922656E+00  0.782340562162E+00  0.722284532321E+00  0.716128636869E+00
  0.716551643694E+00  0.716546536190E+00  0.737395238864E+00  0.722682910856E+00  0.719441264100E+00  0.719566095302E+00  0.722781670892E+00
  0.716030181698E+00  0.715847822101E+00  0.718146783183E+00  0.717062470320E+00  0.718615293875E+00
  0.000000000000E+00  0.000000000000E+00  0.000000000000E+00  0.443767746008E+00  0.402286944728E+00  0.000000000000E+00  0.377550369430E+00
  0.509232128832E+00  0.575832179842E+00  0.573707405418E+00  0.562554064390E+00  0.000000000000E+00  0.490563299648E+00  0.534527096476E+00
  0.556586982184E+00  0.564391577737E+00  0.522730517468E+00  0.522052000233E+00  0.441238348580E+00  0.517182331670E+00  0.524228630764E+00
  0.503687457603E+00  0.509488571094E+00  0.469814974561E+00  0.495614442522E+00  0.494483780310E+00  0.488562428461E+00  0.488961654748E+00
  0.492980744804E+00  0.499005552270E+00  0.486460936673E+00  0.484596927704E+00  0.495346592088E+00
  0.999989342639E+00  0.999989411587E+00  0.999989628440E+00  0.981541895549E+00  0.988773990648E+00  0.999989827770E+00  0.982469462818E+00
  0.984104309030E+00  0.990427545847E+00  0.990355285642E+00  0.994362997055E+00  0.999990295612E+00  0.988652071220E+00  0.100368369407E+01
  0.999769197037E+00  0.100118501210E+01  0.100834885310E+01  0.100252111036E+01  0.102982719487E+01  0.100443319456E+01  0.100199536631E+01
  0.100082056595E+01  0.100138192341E+01  0.100826277303E+01  0.100298787126E+01  0.100192389552E+01  0.100215267506E+01  0.100355660043E+01
  0.100047670023E+01  0.100056591050E+01  0.100126820227E+01  0.100066573357E+01  0.100179336276E+01
        15         9        16        16
        15        18        11        11
        22        15        21        21
        11         5         9         9
         5         7         2         2
        11         9        15        15
        16        21        15        15
        16        10        14        14
        18        17        11        11
        17        25        24        24
        22        18        15        15
        22        30        31        31
        30        21        23        23
        16        20        23        23
        22        27        26        26
        10         9         4         4
         7        11        13        13
        25        18        26        26
        11         7         5         5
         5         1         4         4
        17        19        13        13
        23        32        30        30
        23        20        29        29
         4         9         5         5
         4         8        10        10
        26        18        22        22
        26        28        25        25
        13        11        17        17
        13         6         7         7
        31        30        32        32
         2         1         5         5
         2         7         6         6
        14        10         8         8
        24        19        17        17
        24        25        28        28
         9        10        16        16
         3         4         1         1
        33        26        27        27
        12        13        19        19
        21        30        22        22
        16        14        20        20
        16        23        21        21
        22        31        27        27
        18        25        17        17
        26        33        28        28
         4         3         8         8
        23        29        32        32
        13        12         6         6
zone t="boundary 4 bc-4", solutiontime= 0.6000000E+02, strandid=1004, i=32, j=46, f=feblock
  0.125000000000E+01  0.219251206392E+01  0.103724302461E+01  0.500000000000E+01  0.250000000000E+01  0.375000000000E+01  0.404200324774E+01
  0.500000000000E+01  0.000000000000E+00  0.310152362409E+01  0.202479342020E+01  0.324151231464E+01  0.922061490191E+00  0.000000000000E+00
  0.299062775774E+01  0.394624082883E+01  0.500000000000E+01  0.409252726285E+01  0.500000000000E+01  0.429310310915E+01  0.175434191980E+01
  0.284428995242E+01  0.000000000000E+00  0.000000000000E+00  0.715990576545E+00  0.930412228790E+00  0.125000000000E+01  0.187029682677E+01
  0.500000000000E+01  0.375000000000E+01  0.250000000000E+01  0.000000000000E+00
  0.250000000000E+01  0.157686156160E+01  0.146289271009E+01  0.250000000000E+01  0.250000000000E+01  0.250000000000E+01  0.155830813274E+01
  0.125000000000E+01  0.250000000000E+01  0.177790177481E+01  0.477386199275E+00  0.742988685424E+00  0.308372018325E+00  0.125000000000E+01
 -0.487811078581E+00 -0.144524380962E+01 -0.125000000000E+01 -0.345533899378E+00  0.000000000000E+00  0.627766083140E+00 -0.739814786992E+00
 -0.158811787973E+01  0.000000000000E+00 -0.125000000000E+01 -0.600232012419E+00 -0.154800130438E+01 -0.250000000000E+01 -0.178862290564E+01
 -0.250000000000E+01 -0.250000000000E+01 -0.250000000000E+01 -0.250000000000E+01
  0.500000000000E+01  0.500000000000E+01  0.500000000000E+01  0.500000000000E+01  0.500000000000E+01  0.500000000000E+01  0.500000000000E+01
  0.500000000000E+01  0.500000000000E+01  0.500000000000E+01  0.500000000000E+01  0.500000000000E+01  0.500000000000E+01  0.500000000000E+01
  0.500000000000E+01  0.500000000000E+01  0.500000000000E+01  0.500000000000E+01  0.500000000000E+01  0.500000000000E+01  0.500000000000E+01
  0.500000000000E+01  0.500000000000E+01  0.500000000000E+01  0.500000000000E+01  0.500000000000E+01  0.500000000000E+01  0.500000000000E+01
  0.500000000000E+01  0.500000000000E+01  0.500000000000E+01  0.500000000000E+01
  0.100522860288E+01  0.100432972639E+01  0.100432034599E+01  0.100196461762E+01  0.100413205391E+01  0.100321958149E+01  0.100258623144E+01
  0.100201175170E+01  0.100426040821E+01  0.100372310389E+01  0.100446502183E+01  0.100346952079E+01  0.100365984937E+01  0.100424800567E+01
  0.100362337528E+01  0.100164192033E+01  0.100227632650E+01  0.100227311598E+01  0.100213446569E+01  0.100254347563E+01  0.100442386341E+01
  0.100337264022E+01  0.100288843766E+01  0.100334542042E+01  0.100323223001E+01  0.100406087091E+01  0.100510171611E+01  0.100431307079E+01
  0.100179475834E+01  0.100266315993E+01  0.100321164510E+01  0.100399273184E+01
  0.489076358441E+00  0.489238598509E+00  0.490983331323E+00  0.493064988036E+00  0.486766642522E+00  0.484757872083E+00  0.485404956289E+00
  0.494262733336E+00  0.495784888091E+00  0.486800248214E+00  0.488139337104E+00  0.487244593319E+00  0.494423292638E+00  0.496536481920E+00
  0.487845783022E+00  0.483219469749E+00  0.492573587435E+00  0.487262277880E+00  0.494865946666E+00  0.488012491158E+00  0.490096716884E+00
  0.488269667036E+00  0.497534090445E+00  0.496384264502E+00  0.495259755722E+00  0.493216438883E+00  0.490458183198E+00  0.490400009165E+00
  0.491426954407E+00  0.486218276500E+00  0.490304438626E+00  0.495522026809E+00
  0.000000000000E+00 -0.893974712397E-04 -0.129755094058E-02  0.000000000000E+00  0.000000000000E+00  0.000000000000E+00  0.425702053828E-03
  0.797025493132E-03  0.000000000000E+00  0.274712869037E-03 -0.942431008696E-03 -0.820006408508E-03 -0.174523850445E-02 -0.638374252439E-04
 -0.110022750576E-02 -0.102277494397E-02 -0.133259273172E-02 -0.213434236476E-02 -0.132929464870E-02 -0.106401261286E-02 -0.624409177082E-03
 -0.761703284588E-03 -0.196339459164E-03  0.807126800446E-03  0.520225906325E-04  0.161630463094E-02  0.000000000000E+00  0.791646916864E-03
  0.000000000000E+00  0.000000000000E+00  0.000000000000E+00  0.000000000000E+00