# vtk DataFile Version 2.0
FUN3D:global_image_vtk
ASCII
DATASET UNSTRUCTURED_GRID
POINTS 213 double
    0.0000000000000000E+00    0.2500000000000000E+01    0.0000000000000000E+00
    0.1250000000000000E+01    0.2500000000000000E+01    0.0000000000000000E+00
    0.2500000000000000E+01    0.2500000000000000E+01    0.0000000000000000E+00
    0.3750000000000000E+01    0.2500000000000000E+01    0.0000000000000000E+00
    0.5000000000000000E+01    0.2500000000000000E+01    0.0000000000000000E+00
    0.5000000000000000E+01    0.1250000000000000E+01    0.0000000000000000E+00
    0.5000000000000000E+01    0.0000000000000000E+00    0.0000000000000000E+00
    0.5000000000000000E+01   -0.1250000000000000E+01    0.0000000000000000E+00
    0.5000000000000000E+01   -0.2500000000000000E+01    0.0000000000000000E+00
    0.3750000000000000E+01   -0.2500000000000000E+01    0.0000000000000000E+00
    0.2500000000000000E+01   -0.2500000000000000E+01    0.0000000000000000E+00
    0.1250000000000000E+01   -0.2500000000000000E+01    0.0000000000000000E+00
    0.0000000000000000E+00   -0.2500000000000000E+01    0.0000000000000000E+00
    0.0000000000000000E+00   -0.1250000000000000E+01    0.0000000000000000E+00
    0.0000000000000000E+00    0.0000000000000000E+00    0.0000000000000000E+00
    0.0000000000000000E+00    0.1250000000000000E+01    0.0000000000000000E+00
    0.9058375365086910E+00    0.1578994732800803E+01    0.0000000000000000E+00
    0.3982050490726493E+01   -0.1583989954232354E+01    0.0000000000000000E+00
    0.4033849428301197E+01    0.1453322699199022E+01    0.0000000000000000E+00
    0.1040505887381675E+01   -0.1479596339503735E+01    0.0000000000000000E+00
    0.1099454400140349E+01   -0.3227322616384110E+00    0.0000000000000000E+00
    0.7354504170366591E+00    0.6593508822075582E+00    0.0000000000000000E+00
    0.1622302608453282E+01    0.8256214013940779E+00    0.0000000000000000E+00
    0.2145871574390382E+01   -0.1650070333782557E+01    0.0000000000000000E+00
    0.4086422318222992E+01   -0.4612828702537229E+00    0.0000000000000000E+00
    0.2979540174134984E+01   -0.8579242121530853E+00    0.0000000000000000E+00
    0.3045064261640043E+01   -0.1836846154397680E+01    0.0000000000000000E+00
    0.3428197553792836E+01    0.3508002863614053E+00    0.0000000000000000E+00
    0.4309693860063405E+01    0.5185680230613409E+00    0.0000000000000000E+00
    0.1827272193562204E+01    0.1738996113203182E+01    0.0000000000000000E+00
    0.2808563282768077E+01    0.1325493893339706E+01    0.0000000000000000E+00
    0.1895995683864404E+01   -0.8731419609589618E+00    0.0000000000000000E+00
    0.2273179336307740E+01    0.4906150219227333E-01    0.0000000000000000E+00
    0.5000000000000000E+01    0.2500000000000000E+01    0.1250000000000000E+01
    0.5000000000000000E+01    0.2500000000000000E+01    0.2500000000000000E+01
    0.5000000000000000E+01    0.2500000000000000E+01    0.3750000000000000E+01
    0.5000000000000000E+01    0.2500000000000000E+01    0.5000000000000000E+01
    0.3750000000000000E+01    0.2500000000000000E+01    0.5000000000000000E+01
    0.2500000000000000E+01    0.2500000000000000E+01    0.5000000000000000E+01
    0.1250000000000000E+01    0.2500000000000000E+01    0.5000000000000000E+01
    0.0000000000000000E+00    0.2500000000000000E+01    0.5000000000000000E+01
    0.0000000000000000E+00    0.2500000000000000E+01    0.3750000000000000E+01
    0.0000000000000000E+00    0.2500000000000000E+01    0.2500000000000000E+01
    0.0000000000000000E+00    0.2500000000000000E+01    0.1250000000000000E+01
    0.9631080833812172E+00    0.2500000000000000E+01    0.9613285771248219E+00
    0.3981732467264904E+01    0.2500000000000000E+01    0.4069753913607991E+01
    0.4035525118777670E+01    0.2500000000000000E+01    0.1012015867579395E+01
    0.9641717640894248E+00    0.2500000000000000E+01    0.3972455192261839E+01
    0.1547743040396780E+01    0.2500000000000000E+01    0.2928177746738678E+01
    0.6985170616192014E+00    0.2500000000000000E+01    0.3068281976055466E+01
    0.8931277594515110E+00    0.2500000000000000E+01    0.2052465503257726E+01
    0.2183293750162785E+01    0.2500000000000000E+01    0.3959073795658649E+01
    0.3855333506014705E+01    0.2500000000000000E+01    0.2931218481500625E+01
    0.3152495579421047E+01    0.2500000000000000E+01    0.3635850502723324E+01
    0.3103247580566054E+01    0.2500000000000000E+01    0.4331682712472464E+01
    0.3266837581688852E+01    0.2500000000000000E+01    0.1886092433583972E+01
    0.4231539241296245E+01    0.2500000000000000E+01    0.1915865356532799E+01
    0.1909741006522088E+01    0.2500000000000000E+01    0.7170024419130505E+00
    0.2880784107213163E+01    0.2500000000000000E+01    0.9046598906449592E+00
    0.2014316024535771E+01    0.2500000000000000E+01    0.1762464314805728E+01
    0.2670003247036656E+01    0.2500000000000000E+01    0.2850479545835163E+01
    0.5000000000000000E+01    0.1250000000000000E+01    0.5000000000000000E+01
    0.5000000000000000E+01    0.0000000000000000E+00    0.5000000000000000E+01
    0.5000000000000000E+01   -0.1250000000000000E+01    0.5000000000000000E+01
    0.5000000000000000E+01   -0.2500000000000000E+01    0.5000000000000000E+01
    0.5000000000000000E+01   -0.2500000000000000E+01    0.3750000000000000E+01
    0.5000000000000000E+01   -0.2500000000000000E+01    0.2500000000000000E+01
    0.5000000000000000E+01   -0.2500000000000000E+01    0.1250000000000000E+01
    0.5000000000000000E+01    0.1578994732800803E+01    0.9058375365086910E+00
    0.5000000000000000E+01   -0.1583989954232354E+01    0.3982050490726493E+01
    0.5000000000000000E+01    0.1453322699199022E+01    0.4033849428301197E+01
    0.5000000000000000E+01   -0.1479596339503735E+01    0.1040505887381675E+01
    0.5000000000000000E+01   -0.3227322616384110E+00    0.1099454400140349E+01
    0.5000000000000000E+01    0.6593508822075582E+00    0.7354504170366591E+00
    0.5000000000000000E+01    0.8256214013940779E+00    0.1622302608453282E+01
    0.5000000000000000E+01   -0.1650070333782557E+01    0.2145871574390382E+01
    0.5000000000000000E+01   -0.4612828702537229E+00    0.4086422318222992E+01
    0.5000000000000000E+01   -0.8579242121530853E+00    0.2979540174134984E+01
    0.5000000000000000E+01   -0.1836846154397680E+01    0.3045064261640043E+01
    0.5000000000000000E+01    0.3508002863614053E+00    0.3428197553792836E+01
    0.5000000000000000E+01    0.5185680230613409E+00    0.4309693860063405E+01
    0.5000000000000000E+01    0.1738996113203182E+01    0.1827272193562204E+01
    0.5000000000000000E+01    0.1325493893339706E+01    0.2808563282768077E+01
    0.5000000000000000E+01   -0.8731419609589618E+00    0.1895995683864404E+01
    0.5000000000000000E+01    0.4906150219227333E-01    0.2273179336307740E+01
    0.0000000000000000E+00    0.1250000000000000E+01    0.5000000000000000E+01
    0.0000000000000000E+00    0.0000000000000000E+00    0.5000000000000000E+01
    0.0000000000000000E+00   -0.1250000000000000E+01    0.5000000000000000E+01
    0.0000000000000000E+00   -0.2500000000000000E+01    0.5000000000000000E+01
    0.1250000000000000E+01   -0.2500000000000000E+01    0.5000000000000000E+01
    0.2500000000000000E+01   -0.2500000000000000E+01    0.5000000000000000E+01
    0.3750000000000000E+01   -0.2500000000000000E+01    0.5000000000000000E+01
    0.4042003247744892E+01    0.1558308132739014E+01    0.5000000000000000E+01
    0.9304122287900499E+00   -0.1548001304379777E+01    0.5000000000000000E+01
    0.1037243024609388E+01    0.1462892710085612E+01    0.5000000000000000E+01
    0.3946240828834967E+01   -0.1445243809615570E+01    0.5000000000000000E+01
    0.4092527262848217E+01   -0.3455338993778935E+00    0.5000000000000000E+01
    0.4293103109154542E+01    0.6277660831404320E+00    0.5000000000000000E+01
    0.3241512314643519E+01    0.7429886854239611E+00    0.5000000000000000E+01
    0.2844289952419609E+01   -0.1588117879734118E+01    0.5000000000000000E+01
    0.7159905765450471E+00   -0.6002320124191652E+00    0.5000000000000000E+01
    0.1754341919796891E+01   -0.7398147869923652E+00    0.5000000000000000E+01
    0.1870296826774691E+01   -0.1788622905643739E+01    0.5000000000000000E+01
    0.9220614901912976E+00    0.3083720183248586E+00    0.5000000000000000E+01
    0.3101523624086016E+01    0.1777901774806180E+01    0.5000000000000000E+01
    0.2192512063922564E+01    0.1576861561598471E+01    0.5000000000000000E+01
    0.2024793420196460E+01    0.4773861992750707E+00    0.5000000000000000E+01
    0.2990627757741975E+01   -0.4878110785814084E+00    0.5000000000000000E+01
    0.0000000000000000E+00   -0.2500000000000000E+01    0.1250000000000000E+01
    0.0000000000000000E+00   -0.2500000000000000E+01    0.2500000000000000E+01
    0.0000000000000000E+00   -0.2500000000000000E+01    0.3750000000000000E+01
    0.0000000000000000E+00    0.1558308132739014E+01    0.4042003247744892E+01
    0.0000000000000000E+00   -0.1548001304379777E+01    0.9304122287900499E+00
    0.0000000000000000E+00    0.1462892710085612E+01    0.1037243024609388E+01
    0.0000000000000000E+00   -0.1445243809615570E+01    0.3946240828834967E+01
    0.0000000000000000E+00   -0.3455338993778935E+00    0.4092527262848217E+01
    0.0000000000000000E+00    0.6277660831404320E+00    0.4293103109154542E+01
    0.0000000000000000E+00    0.7429886854239611E+00    0.3241512314643519E+01
    0.0000000000000000E+00   -0.1588117879734118E+01    0.2844289952419609E+01
    0.0000000000000000E+00   -0.6002320124191652E+00    0.7159905765450471E+00
    0.0000000000000000E+00   -0.7398147869923652E+00    0.1754341919796891E+01
    0.0000000000000000E+00   -0.1788622905643739E+01    0.1870296826774691E+01
    0.0000000000000000E+00    0.3083720183248586E+00    0.9220614901912976E+00
    0.0000000000000000E+00    0.1777901774806180E+01    0.3101523624086016E+01
    0.0000000000000000E+00    0.1576861561598471E+01    0.2192512063922564E+01
[...]
POINT_DATA 213
SCALARS rho double 1
LOOKUP_TABLE default
   0.1344271453054788E+01
   0.9569758886549252E+00
   0.9462964114780511E+00
   0.9418612799305129E+00
   0.8437305292750873E+00
   0.7738004331011287E+00
   0.7629818825920590E+00
   0.7664577710914031E+00
   0.8307874078922244E+00
   0.9352972591936114E+00
   0.9342219785321353E+00
   0.9617195238090395E+00
   0.1449457451467260E+01
   0.1494090634364188E+01
   0.1644667263825360E+01
   0.1425832049108797E+01
   0.1009014431500319E+01
   0.9508810852524133E+00
   0.9436508639444454E+00
   0.9581561039029279E+00
   0.9415852448233323E+00
   0.1036377237829745E+01
   0.9256161075077808E+00
   0.9322349843381532E+00
   0.9537479550198934E+00
   0.9518769609527987E+00
   0.9348583135664583E+00
   0.9564028479779295E+00
   0.9376098370798235E+00
   0.9300661497319607E+00
   0.9445157485849975E+00
   0.8863506491873044E+00
   0.9423579983282008E+00
   0.9635005467754327E+00
   0.1008299016947403E+01
   0.1006735286422771E+01
   0.1001964668894195E+01
   0.1003219585052767E+01
   0.1004132031535678E+01
   0.1005228594952584E+01
   0.1004260407253832E+01
   0.1008308186509828E+01
   0.1023893137209316E+01
   0.1063553952656751E+01
   0.1019182516258645E+01
   0.1001780783794978E+01
   0.9643313010031745E+00
   0.1005283707133745E+01
   0.1000721160683121E+01
   0.1008742081976227E+01
   0.1008078082699845E+01
   0.1002349804155194E+01
   0.9979986750301230E+00
   0.1000583560306816E+01
   0.1001620111291181E+01
   0.9826892888527909E+00
   0.9842440073001616E+00
   0.9833313968610427E+00
   0.9788208200376431E+00
   0.9902638054408746E+00
   0.9934561521160402E+00
   0.1002011769409490E+01
   0.1002134460979594E+01
   0.1002276292778330E+01
   0.1001794750832854E+01
   0.1009778688291208E+01
   0.1006429089307523E+01
   0.9558787162132533E+00
   0.9249399095391355E+00
   0.1007036788048862E+01
   0.1004504965663964E+01
   0.9143642150929955E+00
   0.9089668063047965E+00
   0.8751688714565012E+00
   0.9767271635629048E+00
   0.1000452605007036E+01
   0.1005831127439192E+01
   0.1012882793248995E+01
   0.1011618941760627E+01
   0.1010438666677456E+01
   0.1005468345055801E+01
   0.9907612587268870E+00
   0.1005140303719453E+01
   0.9860567191588784E+00
   0.1005609722121984E+01
   0.1004248005388409E+01
   0.1002888442380915E+01
   0.1003345421814121E+01
   0.1003992738579897E+01
   0.1005101711784860E+01
   0.1003211644813099E+01
   0.1002663118919068E+01
   0.1002586215653847E+01
   0.1004060873241992E+01
   0.1004320335605459E+01
   0.1001641876383569E+01
   0.1002273078151456E+01
   0.1002543429331366E+01
   0.1003469485543202E+01
   0.1003372622106059E+01
   0.1003232226623603E+01
   0.1004423845967569E+01
   0.1004313062490752E+01
   0.1003659841508757E+01
   0.1003723114442169E+01
   0.1004329706118132E+01
   0.1004465014759194E+01
   0.1003623371531710E+01
   0.1064422810908268E+01
   0.1028473617788027E+01
   0.1009586655884389E+01
   0.1006638837212517E+01
   0.1163935516194331E+01
   0.1086087965986357E+01
   0.1007893416526935E+01
   0.1007245533636578E+01
   0.1006798075636401E+01
   0.1013018285630213E+01
   0.1019384604140807E+01
   0.1235203666516579E+01
   0.1032529467026810E+01
   0.1046681187189616E+01
   0.1200953642606240E+01
   0.1014718913738832E+01
   0.1032291150010609E+01
   0.1028095233311706E+01
   0.1014628636269608E+01
   0.1029216890674999E+01
   0.1001994848153304E+01
   0.9606929482772620E+00
   0.1006852577995973E+01
   0.1001327192884947E+01
   0.1010821899757044E+01
   0.1012246097337777E+01
   0.1000945999872622E+01
   0.9979121147932956E+00
   0.9980632190685744E+00
   0.1001184128352928E+01
   0.9841362055008469E+00
   0.9814879662037967E+00
   0.9648483389936167E+00
   0.9680877144396005E+00
   0.9914124472565417E+00
   0.9910858410517511E+00
   0.9925545070571177E+00
   0.1001727530960925E+01
   0.9993409360633491E+00
   0.9941410820005496E+00
   0.1007038749744884E+01
   0.1022539492800828E+01
   0.1001088101187269E+01
   0.1008798493215946E+01
   0.1004773844604081E+01
   0.1009050235127575E+01
   0.9966470334202054E+00
   0.1004988559820801E+01
   0.1003325530436374E+01
   0.9949431070640067E+00
   0.9832680871798202E+00
   0.9943957535268158E+00
   0.9973420622284273E+00
   0.9932190014458055E+00
   0.1001306475177997E+01
   0.1003001631755015E+01
   0.1002183570285016E+01
   0.9947078549267925E+00
   0.9937965460052520E+00
   0.1004867864167379E+01
   0.1020077605078899E+01
   0.1005364552193993E+01
   0.9816998156191697E+00
   0.1004973026210659E+01
   0.1012382317779411E+01
   0.9871424337882183E+00
   0.9551513533845141E+00
   0.9865075674929616E+00
   0.9864532957053120E+00
   0.9918946884091081E+00
   0.9933508216345248E+00
   0.9954406192473571E+00
   0.1037336787921056E+01
   0.1033536795194467E+01
   0.1001443350752591E+01
   0.1001930497992585E+01
   0.9912478440544877E+00
   0.9910920431032260E+00
   0.9648489942119555E+00
   0.9933282464765372E+00
   0.1006058642023332E+01
   0.1001954036631860E+01
   0.9908735743263741E+00
   0.9740945054273388E+00
   0.9418802250105165E+00
   0.9819379630783202E+00
   0.9794803511539385E+00
   0.9704172067480069E+00
   0.9720478935418739E+00
   0.9557351788596663E+00
   0.9496731309784698E+00
   0.9528673640431428E+00
   0.1002659530466265E+01
   0.1002471619891111E+01
   0.1000509328427769E+01
   0.1001677327677999E+01
   0.9607931288513317E+00
   0.9491625688592186E+00
   0.9584503130050303E+00
   0.1001121206890481E+01
   0.1000496132537441E+01
   0.1001156632604306E+01
   0.9807376176159625E+00
   0.9806000768821311E+00
   0.9628476241385391E+00
SCALARS u double 1
LOOKUP_TABLE default
   0.0000000000000000E+00
   0.0000000000000000E+00
   0.0000000000000000E+00
   0.0000000000000000E+00
   0.0000000000000000E+00
   0.0000000000000000E+00
   0.0000000000000000E+00
   0.0000000000000000E+00
   0.0000000000000000E+00
   0.0000000000000000E+00
   0.0000000000000000E+00
   0.0000000000000000E+00
   0.0000000000000000E+00
   0.0000000000000000E+00
   0.0000000000000000E+00
   0.0000000000000000E+00
   0.0000000000000000E+00
   0.0000000000000000E+00
   0.0000000000000000E+00
   0.0000000000000000E+00
   0.0000000000000000E+00
   0.0000000000000000E+00
   0.0000000000000000E+00
   0.0000000000000000E+00
   0.0000000000000000E+00
   0.0000000000000000E+00
   0.0000000000000000E+00
   0.0000000000000000E+00
   0.0000000000000000E+00
   0.0000000000000000E+00
   0.0000000000000000E+00
   0.0000000000000000E+00
   0.0000000000000000E+00
   0.4950174087685021E+00
   0.5338221514230046E+00
   0.5183268688762728E+00
   0.4930651173884038E+00
   0.4847581343214433E+00
   0.4867666872156726E+00
   0.4890763653361860E+00
   0.4957848761064494E+00
   0.4898302001089204E+00
   0.4717388489175027E+00
   0.4454814200324180E+00
   0.4833907029767402E+00
   0.5098396910268942E+00
   0.4390712196375735E+00
   0.4949403930845234E+00
   0.5225330435450629E+00
   0.4962454606336463E+00
   0.5226154991432547E+00
   0.5038881558288032E+00
   0.5646883477276061E+00
   0.5247508938263339E+00
   0.4991465783598711E+00
   0.5730561943466836E+00
   0.5696050847403112E+00
   0.3737941394227600E+00
   0.3998657965504571E+00
   0.5599326668714552E+00
   0.5564587688400910E+00
   0.4942629093523763E+00
   0.4948660559494759E+00
   0.4925736153409970E+00
   0.4914269656836900E+00
   0.5162356913145140E+00
   0.5361798407983883E+00
   0.4947413080479127E+00
   0.4524111497108179E+00
   0.5128777225040478E+00
   0.5117941108617144E+00
   0.4783517296409882E+00
   0.4931696408227960E+00
   0.4603173727646442E+00
   0.5244892893019931E+00
   0.5297434265224210E+00
   0.5129578806346897E+00
   0.5328358270429080E+00
   0.5308941196060537E+00
   0.5309855649585961E+00
   0.5063656233133743E+00
   0.5282462052355359E+00
   0.5410312779221172E+00
   0.5361261362716948E+00
   0.5374105322659377E+00
   0.4965364832898219E+00
   0.4975340864874458E+00
   0.4963842603812193E+00
   0.4955220297437067E+00
   0.4904581549719946E+00
   0.4903044300179481E+00
   0.4862182744778663E+00
   0.4854052740187986E+00
   0.4932164446766096E+00
   0.4909833508156404E+00
   0.4832195013982844E+00
   0.4872624310339974E+00
   0.4880127476896746E+00
   0.4872447328227359E+00
   0.4882696640456365E+00
   0.4952597658664403E+00
   0.4900967254660260E+00
   0.4903999939500808E+00
   0.4944233098263914E+00
   0.4868003734530020E+00
   0.4892386456681456E+00
   0.4881393746158577E+00
   0.4878458491712390E+00
   0.4446866338556799E+00
   0.4700028829696545E+00
   0.4891999082293373E+00
   0.4885247734908262E+00
   0.4506533224576760E+00
   0.4687378543264136E+00
   0.4877010372478807E+00
   0.4868353646206214E+00
   0.4908994603053382E+00
   0.4793551612575103E+00
   0.4658071868157611E+00
   0.3792725256117576E+00
   0.4901596484476219E+00
   0.4486686732405918E+00
   0.4436137409755063E+00
   0.4845147262975795E+00
   0.4621822674420420E+00
   0.4665749613745177E+00
   0.4748140372504127E+00
   0.4894494218058685E+00
   0.5085558191344446E+00
   0.4315073946305036E+00
   0.4927349401922585E+00
   0.5318289350276245E+00
   0.4913399288242292E+00
   0.5207019968604839E+00
   0.5060964758687414E+00
   0.5688797341115328E+00
   0.5273993142890974E+00
   0.5015045263928311E+00
   0.5821790081341864E+00
   0.5689618096291439E+00
   0.3406394463777079E+00
   0.3789869387445893E+00
   0.5751958222741360E+00
   0.5666485566598065E+00
   0.5704108804773751E+00
   0.5291056390803832E+00
   0.5451902759554086E+00
   0.5718804338149321E+00
   0.5389079156165457E+00
   0.5475507498925720E+00
   0.5821713869317002E+00
   0.4925601796932063E+00
   0.5042157453810892E+00
   0.4961735455645812E+00
   0.5565208006704635E+00
   0.4758845196476938E+00
   0.4950268543608488E+00
   0.5498525401121458E+00
   0.5891202265025407E+00
   0.5841957649165228E+00
   0.5469097473677776E+00
   0.5805417606259961E+00
   0.5106251390801626E+00
   0.5030200419818518E+00
   0.5033624843519255E+00
   0.5676445875395106E+00
   0.5563943064932780E+00
   0.4947255948785888E+00
   0.5505243855818756E+00
   0.5510857277547662E+00
   0.5657350957373132E+00
   0.4920070067428838E+00
   0.4927299124704420E+00
   0.3865140497778377E+00
   0.3687754555411069E+00
   0.5574921725034293E+00
   0.5763755603245342E+00
   0.4194304357312747E+00
   0.5824843248369090E+00
   0.4265209599766773E+00
   0.5392799877403771E+00
   0.5012032825878080E+00
   0.5119513280587353E+00
   0.5049119193604088E+00
   0.5751974748956514E+00
   0.5876371235503840E+00
   0.5379907687597631E+00
   0.5677472449507748E+00
   0.5351248843489380E+00
   0.5338056322540021E+00
   0.5580313662746654E+00
   0.5512707837725290E+00
   0.4261852363363262E+00
   0.5273356187711458E+00
   0.5795712437155391E+00
   0.3318687221229342E+00
   0.4760283351046434E+00
   0.5446196186548191E+00
   0.4798331734316675E+00
   0.3005293500669627E+00
   0.5031051258537464E+00
   0.5017116062006566E+00
   0.5129033583112118E+00
   0.5414839692581046E+00
   0.3437603659700104E+00
   0.3397710791206652E+00
   0.3189928579573887E+00
   0.5065936453527125E+00
   0.5123484361313067E+00
   0.5330313004925851E+00
   0.5879309992199075E+00
   0.4644180591453715E+00
   0.3531270537307614E+00
SCALARS v double 1
LOOKUP_TABLE default
   0.0000000000000000E+00
   0.0000000000000000E+00
   0.0000000000000000E+00
   0.0000000000000000E+00
   0.0000000000000000E+00
   0.0000000000000000E+00
   0.0000000000000000E+00
   0.0000000000000000E+00
   0.0000000000000000E+00
   0.0000000000000000E+00
   0.0000000000000000E+00
   0.0000000000000000E+00
   0.0000000000000000E+00
   0.0000000000000000E+00
   0.0000000000000000E+00
   0.0000000000000000E+00
   0.0000000000000000E+00
   0.0000000000000000E+00
   0.0000000000000000E+00
   0.0000000000000000E+00
   0.0000000000000000E+00
   0.0000000000000000E+00
   0.0000000000000000E+00
   0.0000000000000000E+00
   0.0000000000000000E+00
   0.0000000000000000E+00
   0.0000000000000000E+00
   0.0000000000000000E+00
   0.0000000000000000E+00
   0.0000000000000000E+00
   0.0000000000000000E+00
   0.0000000000000000E+00
   0.0000000000000000E+00
   0.0000000000000000E+00
   0.0000000000000000E+00
   0.0000000000000000E+00
   0.0000000000000000E+00
   0.0000000000000000E+00
   0.0000000000000000E+00
   0.0000000000000000E+00
   0.0000000000000000E+00
   0.0000000000000000E+00
   0.0000000000000000E+00
   0.0000000000000000E+00
   0.0000000000000000E+00
   0.0000000000000000E+00
   0.0000000000000000E+00
   0.0000000000000000E+00
   0.0000000000000000E+00
   0.0000000000000000E+00
   0.0000000000000000E+00
   0.0000000000000000E+00
   0.0000000000000000E+00
   0.0000000000000000E+00
   0.0000000000000000E+00
   0.0000000000000000E+00
   0.0000000000000000E+00
   0.0000000000000000E+00
   0.0000000000000000E+00
   0.0000000000000000E+00
   0.0000000000000000E+00
   0.7969876210555171E-03
  -0.1329212618226617E-02
  -0.1332494612674097E-02
   0.0000000000000000E+00
   0.0000000000000000E+00
   0.0000000000000000E+00
   0.0000000000000000E+00
  -0.1922571259835469E-01
   0.4770758402729302E-03
   0.2183360870156421E-02
   0.1427332955927606E-01
  -0.6488288016101245E-02
  -0.7821664942273437E-02
  -0.1327728299031572E-01
   0.4914471883477638E-02
   0.6907024234458168E-03
   0.3434391236831376E-02
   0.1920841664953993E-02
   0.3147944745687489E-02
   0.1704773389959958E-02
  -0.7316233465660040E-02
  -0.7701856791117206E-04
   0.4468726341622768E-02
  -0.4387272987134368E-03
  -0.6383959326500698E-04
  -0.1963415154549602E-03
   0.8071271131964312E-03
   0.0000000000000000E+00
   0.0000000000000000E+00
   0.0000000000000000E+00
   0.0000000000000000E+00
   0.4256504518743000E-03
   0.1616314244175365E-02
  -0.1297543502273256E-02
  -0.1022708593108513E-02
  -0.2134204978860126E-02
  -0.1063959003506259E-02
  -0.8199355960080265E-03
  -0.7616537625395553E-03
   0.5202282638777323E-04
  -0.6243832778771392E-03
   0.7916641419196319E-03
  -0.1745242287172833E-02
   0.2747218651590050E-03
  -0.8938442105290292E-04
  -0.9424091720927679E-03
  -0.1100151220137247E-02
   0.0000000000000000E+00
   0.0000000000000000E+00
   0.0000000000000000E+00
  -0.1061765164674178E-02
  -0.7641127197326275E-02
   0.1860855239786297E-01
  -0.2834509196852091E-04
  -0.1383132434901787E-02
  -0.2035128499546774E-02
  -0.5666379889460308E-02
  -0.1585213136442852E-02
  -0.5947017635277592E-02
  -0.4160603454046409E-02
   0.1565615656142368E-02
   0.3329524617992693E-01
   0.3055348564029864E-04
  -0.2766882979296272E-02
   0.3566485812256539E-02
   0.3596197158007440E-03
   0.0000000000000000E+00
   0.0000000000000000E+00
   0.0000000000000000E+00
   0.0000000000000000E+00
   0.0000000000000000E+00
   0.0000000000000000E+00
   0.0000000000000000E+00
   0.0000000000000000E+00
   0.0000000000000000E+00
   0.0000000000000000E+00
   0.0000000000000000E+00
   0.0000000000000000E+00
   0.0000000000000000E+00
   0.0000000000000000E+00
   0.0000000000000000E+00
   0.0000000000000000E+00
   0.0000000000000000E+00
   0.5047028172061680E-02
   0.3230790656545424E-02
   0.8149129363862273E-02
   0.6168366390348907E-02
   0.1122928702367209E-01
   0.1429277552560377E-01
  -0.2038826678889263E-03
   0.5118218883400504E-02
   0.2914945011937161E-02
   0.3373608457826498E-02
   0.3728336067931062E-02
  -0.1465719875290608E-01
  -0.6159685905729107E-03
   0.6651623884188568E-02
   0.1542020410648560E-02
   0.1969642159906784E-02
   0.4266263406945335E-02
  -0.2790959144417122E-02
   0.1226877093969115E-02
   0.2819168498951584E-02
   0.1497440052526792E-02
   0.2575325263408567E-02
   0.2030636183241635E-02
   0.2118039709715253E-02
   0.8700409737906100E-02
  -0.3733396223556766E-02
   0.6241190676206101E-02
   0.2516121010057846E-04
  -0.3854054599692044E-03
  -0.1674678962556436E-01
  -0.4881977536596330E-02
  -0.4720001406912131E-02
   0.3445219773227104E-02
  -0.6135724689704003E-02
   0.9934281422669072E-04
  -0.3291372991876355E-01
  -0.3046197574240568E-02
   0.4722742532297939E-02
   0.9228317330448263E-03
   0.2112172824293179E-02
   0.4518740604694136E-02
   0.2720453392437684E-02
   0.3212575307453013E-02
   0.5200792099802147E-02
   0.1941835649408303E-02
   0.7315696280031910E-03
  -0.2555943776574437E-04
  -0.5374645593668352E-02
  -0.6959621034315119E-02
  -0.9443746002985679E-03
   0.1105267513037257E-02
  -0.2080551244936585E-02
  -0.3200035302592514E-02
  -0.2527827009733081E-02
  -0.4115192025188529E-02
  -0.7593949192833283E-02
  -0.1985687129292745E-02
   0.6240226148645598E-03
  -0.2239116173018401E-03
   0.1216944745034609E-02
  -0.3483967128989342E-02
   0.5229133528166274E-02
  -0.8487626306443044E-02
   0.2313314784487305E-04
  -0.3395409395986103E-03
   0.2542660915131892E-02
   0.1663456183411101E-02
   0.2021437492766147E-02
  -0.5620782793652376E-02
SCALARS w double 1
LOOKUP_TABLE default
   0.0000000000000000E+00
   0.0000000000000000E+00
   0.0000000000000000E+00
   0.0000000000000000E+00
   0.0000000000000000E+00
   0.0000000000000000E+00
   0.0000000000000000E+00
   0.0000000000000000E+00
   0.0000000000000000E+00
   0.0000000000000000E+00
   0.0000000000000000E+00
   0.0000000000000000E+00
   0.0000000000000000E+00
   0.0000000000000000E+00
   0.0000000000000000E+00
   0.0000000000000000E+00
   0.0000000000000000E+00
   0.0000000000000000E+00
   0.0000000000000000E+00
   0.0000000000000000E+00
   0.0000000000000000E+00
   0.0000000000000000E+00
   0.0000000000000000E+00
   0.0000000000000000E+00
   0.0000000000000000E+00
   0.0000000000000000E+00
   0.0000000000000000E+00
   0.0000000000000000E+00
   0.0000000000000000E+00
   0.0000000000000000E+00
   0.0000000000000000E+00
   0.0000000000000000E+00
   0.0000000000000000E+00
  -0.1007611665438284E+00
  -0.4249292630953043E-01
   0.7371879485381365E-03
   0.5725812896800824E-02
   0.5698443384709733E-03
   0.1609788744723984E-02
   0.3375070964536765E-02
   0.2371768947847996E-02
   0.4590588682183159E-03
   0.3518226609513382E-02
   0.4521817988179577E-01
   0.6522938118728949E-01
   0.8689528486307113E-03
  -0.2261153915260805E-01
   0.4316551853402465E-02
   0.1358734023321256E-01
   0.1039452325965341E-01
   0.4900548642884190E-01
   0.2437441785947428E-02
  -0.6509925101927861E-02
  -0.7012093461186584E-03
   0.3411348276858507E-03
   0.3904109696335139E-02
  -0.3893250997694331E-01
   0.1798168134296681E-01
   0.1119637845500940E-01
   0.3403773497607147E-01
   0.8438807112848867E-02
   0.4937410400065291E-02
   0.4970463464378970E-02
   0.4871609691442491E-02
   0.6027254097543711E-02
   0.2599222956422831E-02
  -0.4144429691281271E-01
  -0.9954260374454930E-01
  -0.1121678263179837E+00
   0.5070924385300886E-02
   0.4230775323986434E-02
  -0.1004732189074373E+00
  -0.9895250442057978E-01
  -0.9875450389752739E-01
  -0.9462506548410635E-01
  -0.6807132512436602E-01
   0.5154957709612682E-02
  -0.1935331040889610E-01
  -0.1575800704810276E-01
  -0.6002876635796699E-02
   0.6819103506095163E-02
  -0.8010045020753780E-01
  -0.2781092942382207E-01
  -0.8096455341757730E-01
  -0.5873276332405789E-01
   0.3083622575002049E-02
   0.2685139190210439E-02
   0.2640431324698172E-02
   0.3450185542562920E-02
   0.4007074301053404E-02
   0.1201171223282041E-02
  -0.1438964585860680E-03
   0.2039892395134256E-02
   0.4895681822372236E-02
   0.3857384783459097E-02
   0.1114233237210853E-02
   0.1182713513494272E-02
   0.1465396408463603E-02
  -0.1653033152488702E-04
   0.8994003561539972E-04
   0.4386667830899841E-02
   0.2715726498771161E-02
   0.2322744858251985E-02
   0.5010599002896609E-02
   0.1071626579908683E-02
   0.2712225285627526E-02
   0.2013954305436917E-02
   0.2874452626500991E-04
   0.8374613501962337E-01
   0.2793869671313681E-02
  -0.8346650716160815E-03
  -0.1492920095106461E-03
   0.1409540829918783E+00
   0.1239332938889891E+00
  -0.1219092889381746E-02
  -0.4381936976440140E-02
  -0.3042988174398056E-03
  -0.6512248412557048E-02
  -0.1949571921851150E-02
   0.1557630955643032E+00
   0.7489978898237598E-01
   0.2550175048030178E-01
   0.1656445106892435E+00