title="tecplot geometry and solution file"
variables = x y z rho u v w p mach temperature
zone t="boundary 1 bc-1", solutiontime= 0.5000000E+02, strandid=1001, i=32, j=46, f=feblock
  0.000000000000E+00  0.000000000000E+00  0.000000000000E+00  0.000000000000E+00  0.000000000000E+00  0.000000000000E+00  0.000000000000E+00
  0.000000000000E+00  0.000000000000E+00  0.000000000000E+00  0.000000000000E+00  0.000000000000E+00  0.000000000000E+00  0.000000000000E+00
  0.000000000000E+00  0.000000000000E+00  0.000000000000E+00  0.000000000000E+00  0.000000000000E+00  0.000000000000E+00  0.000000000000E+00
  0.000000000000E+00  0.000000000000E+00  0.000000000000E+00  0.000000000000E+00  0.000000000000E+00  0.000000000000E+00  0.000000000000E+00
  0.000000000000E+00  0.000000000000E+00  0.000000000000E+00  0.000000000000E+00
  0.250000000000E+01  0.250000000000E+01  0.125000000000E+01  0.146289271009E+01  0.157686156160E+01  0.308372018325E+00  0.000000000000E+00
 -0.125000000000E+01 -0.600232012419E+00  0.250000000000E+01  0.477386199275E+00  0.742988685424E+00 -0.739814786992E+00  0.177790177481E+01
  0.155830813274E+01  0.250000000000E+01 -0.250000000000E+01 -0.154800130438E+01 -0.487811078581E+00  0.250000000000E+01  0.627766083140E+00
 -0.345533899378E+00 -0.178862290564E+01 -0.158811787973E+01  0.125000000000E+01 -0.250000000000E+01 -0.144524380962E+01  0.000000000000E+00
 -0.125000000000E+01 -0.250000000000E+01 -0.250000000000E+01 -0.250000000000E+01
  0.000000000000E+00  0.125000000000E+01  0.000000000000E+00  0.103724302461E+01  0.219251206392E+01  0.922061490191E+00  0.000000000000E+00
  0.000000000000E+00  0.715990576545E+00  0.250000000000E+01  0.202479342020E+01  0.324151231464E+01  0.175434191980E+01  0.310152362409E+01
  0.404200324774E+01  0.375000000000E+01  0.000000000000E+00  0.930412228790E+00  0.299062775774E+01  0.500000000000E+01  0.429310310915E+01
  0.409252726285E+01  0.187029682677E+01  0.284428995242E+01  0.500000000000E+01  0.125000000000E+01  0.394624082883E+01  0.500000000000E+01
  0.500000000000E+01  0.250000000000E+01  0.375000000000E+01  0.500000000000E+01
  0.134427144934E+01  0.106355395592E+01  0.142583204886E+01  0.108608796950E+01  0.103229115320E+01  0.120095364052E+01  0.164466726569E+01
  0.149409063742E+01  0.123520366707E+01  0.102389313792E+01  0.102809523668E+01  0.101301828697E+01  0.103252946675E+01  0.101471891600E+01
  0.100663883743E+01  0.100830818996E+01  0.144945744883E+01  0.116393552102E+01  0.101462863970E+01  0.100426040811E+01  0.100679807405E+01
  0.100724553316E+01  0.104668119125E+01  0.101938460933E+01  0.100424800572E+01  0.106442280119E+01  0.100789341910E+01  0.100288843758E+01
  0.100334542025E+01  0.102847362116E+01  0.100958665725E+01  0.100399273182E+01
  0.000000000000E+00  0.445481415550E+00  0.000000000000E+00  0.468737856753E+00  0.462182264528E+00  0.443613739836E+00  0.000000000000E+00
  0.000000000000E+00  0.379272524101E+00  0.471738849409E+00  0.466574953498E+00  0.479355157744E+00  0.490159652851E+00  0.484514724158E+00
  0.488524784345E+00  0.489830188616E+00  0.000000000000E+00  0.450653305439E+00  0.474814030140E+00  0.495784887626E+00  0.490899471398E+00
  0.486835368332E+00  0.448668669313E+00  0.465807175082E+00  0.496536481823E+00  0.444686657283E+00  0.487701045553E+00  0.497534090338E+00
  0.496384264449E+00  0.470002878297E+00  0.489199905724E+00  0.495522026780E+00
  0.000000000000E+00  0.000000000000E+00  0.000000000000E+00  0.186085472902E-01 -0.276688490045E-02  0.332952477163E-01  0.000000000000E+00
  0.000000000000E+00 -0.594701622457E-02  0.000000000000E+00  0.356648464265E-02 -0.566638312115E-02 -0.416060185317E-02  0.305514327092E-04
 -0.106175917851E-02  0.000000000000E+00  0.000000000000E+00 -0.764112842084E-02  0.359618938630E-03  0.000000000000E+00 -0.203512304919E-02
 -0.138312919510E-02  0.156561484926E-02 -0.158521028208E-02 -0.638374743886E-04  0.000000000000E+00 -0.283455293434E-04 -0.196339536121E-03
  0.807126751689E-03  0.000000000000E+00  0.000000000000E+00  0.000000000000E+00
  0.000000000000E+00  0.452181758212E-01  0.000000000000E+00  0.123933295718E+00  0.247647170424E-01  0.165644511034E+00  0.000000000000E+00
  0.000000000000E+00  0.155763096205E+00  0.351822584266E-02  0.259783171092E-01 -0.651224678280E-02  0.748997913672E-01  0.371839289152E-02
 -0.149294472056E-03  0.459062416991E-03  0.000000000000E+00  0.140954083998E+00 -0.808565309759E-02  0.237177355385E-02 -0.304305743200E-03
 -0.438193607398E-02  0.255017490071E-01 -0.194957039674E-02  0.308362543491E-02  0.837461427544E-01 -0.121909321287E-02  0.268514640724E-02
  0.264043137270E-02  0.279387062190E-02 -0.834662801937E-03  0.345019199861E-02
  0.960184573987E+00  0.782340562221E+00  0.101844205107E+01  0.808726658016E+00  0.746125892204E+00  0.879446498702E+00  0.117475225246E+01
  0.106719924215E+01  0.916620146110E+00  0.737395238966E+00  0.743553972780E+00  0.725759211462E+00  0.757455250816E+00  0.729188343728E+00
  0.720785048267E+00  0.722781670966E+00  0.103531921473E+01  0.858317140617E+00  0.728065073333E+00  0.718615293758E+00  0.721013448732E+00
  0.721151587081E+00  0.760018786241E+00  0.732628403451E+00  0.718531161624E+00  0.791043235517E+00  0.722107949723E+00  0.717199382957E+00
  0.717636870751E+00  0.741799737336E+00  0.724056580059E+00  0.718400634599E+00
  0.000000000000E+00  0.441238348575E+00  0.000000000000E+00  0.475214987148E+00  0.460123708903E+00  0.468827815628E+00  0.000000000000E+00
  0.000000000000E+00  0.402302517544E+00  0.469814974430E+00  0.464411129062E+00  0.478714034309E+00  0.489298241478E+00  0.483068557965E+00
  0.487930073118E+00  0.488961654864E+00  0.000000000000E+00  0.464775722180E+00  0.473795652159E+00  0.495346591641E+00  0.490266103267E+00
  0.486286083923E+00  0.445717618415E+00  0.464382275084E+00  0.496127394897E+00  0.443624103166E+00  0.486964461865E+00  0.497246279737E+00
  0.496059270905E+00  0.467732355712E+00  0.488212087479E+00  0.495098264867E+00
  0.999990295293E+00  0.102982719495E+01  0.999990758121E+00  0.104247294236E+01  0.101190080516E+01  0.102520618336E+01  0.999991419388E+00
  0.999992170211E+00  0.103891223671E+01  0.100826277305E+01  0.101252833857E+01  0.100300548284E+01  0.102702865661E+01  0.100605563286E+01
  0.100244400479E+01  0.100355660048E+01  0.999992722650E+00  0.103239739244E+01  0.100459524084E+01  0.100179336269E+01  0.100260305839E+01
  0.100234966418E+01  0.101657153069E+01  0.100617544688E+01  0.100168844802E+01  0.104043292617E+01  0.100303376374E+01  0.100118726920E+01
  0.100134171022E+01  0.100976788408E+01  0.100405369346E+01  0.100176112492E+01
        12        19        11        11
        11         5        12        12
        10        14         5         5
        19        13        11        11
        19        24        13        13
        30        23        24        24
        19        12        22        22
        28        22        21        21
        11        13         6         6
         7         6         9         9
        15        12        14        14
        18        13        23        23
        15        25        21        21
        27        19        22        22
        18         8         9         9
        27        31        24        24
         4        11         6         6
         5        14        12        12
         4         2         5         5
        21        12        15        15
        14        16        15        15
        24        19        27        27
        22        29        27        27
        23        26        18        18
        17         8        18        18
         5        11         4         4
         6         3         4         4
        26        23        30        30
         5         2        10        10
        16        14        10        10
         3         6         7         7
        21        25        28        28
        29        22        28        28
         6        13         9         9
         2         4         1         1
        31        27        32        32
        25        15        20        20
        24        23        13        13
         8         7         9         9
        13        18         9         9
        31        30        24        24
        12        21        22        22
        29        32        27        27
         3         1         4         4
        26        17        18        18
        16        20        15        15
zone t="boundary 2 bc-2", solutiontime= 0.5000000E+02, strandid=1002, i=33, j=48, f=feblock
  0.500000000000E+01  0.375000000000E+01  0.250000000000E+01  0.288078410721E+01  0.125000000000E+01  0.190974100652E+01  0.326683758169E+01
  0.201431602454E+01  0.000000000000E+00  0.963108083381E+00  0.500000000000E+01  0.403552511878E+01  0.423153924130E+01  0.500000000000E+01
  0.385533350601E+01  0.500000000000E+01  0.398173246726E+01  0.315249557942E+01  0.267000324704E+01  0.154774304040E+01  0.218329375016E+01
  0.893127759452E+00  0.000000000000E+00  0.698517061619E+00  0.964171764089E+00  0.310324758057E+01  0.000000000000E+00  0.000000000000E+00
  0.125000000000E+01  0.500000000000E+01  0.375000000000E+01  0.250000000000E+01  0.000000000000E+00
 -0.250000000000E+01 -0.250000000000E+01 -0.250000000000E+01 -0.250000000000E+01 -0.250000000000E+01 -0.250000000000E+01 -0.250000000000E+01
 -0.250000000000E+01 -0.250000000000E+01 -0.250000000000E+01 -0.250000000000E+01 -0.250000000000E+01 -0.250000000000E+01 -0.250000000000E+01
 -0.250000000000E+01 -0.250000000000E+01 -0.250000000000E+01 -0.250000000000E+01 -0.250000000000E+01 -0.250000000000E+01 -0.250000000000E+01
 -0.250000000000E+01 -0.250000000000E+01 -0.250000000000E+01 -0.250000000000E+01 -0.250000000000E+01 -0.250000000000E+01 -0.250000000000E+01
 -0.250000000000E+01 -0.250000000000E+01 -0.250000000000E+01 -0.250000000000E+01 -0.250000000000E+01
  0.000000000000E+00  0.000000000000E+00  0.000000000000E+00  0.904659890645E+00  0.000000000000E+00  0.717002441913E+00  0.188609243358E+01
  0.176246431481E+01  0.000000000000E+00  0.961328577125E+00  0.125000000000E+01  0.101201586758E+01  0.191586535653E+01  0.250000000000E+01
  0.293121848150E+01  0.375000000000E+01  0.406975391361E+01  0.363585050272E+01  0.285047954584E+01  0.292817774674E+01  0.395907379566E+01
  0.205246550326E+01  0.125000000000E+01  0.306828197606E+01  0.397245519226E+01  0.433168271247E+01  0.250000000000E+01  0.375000000000E+01
  0.500000000000E+01  0.500000000000E+01  0.500000000000E+01  0.500000000000E+01  0.500000000000E+01
  0.830787402959E+00  0.935297254407E+00  0.934221980927E+00  0.968087712619E+00  0.961719525955E+00  0.964848332055E+00  0.984136201214E+00
  0.991412447265E+00  0.144945744883E+01  0.102921689301E+01  0.955878696376E+00  0.960692919734E+00  0.981487961751E+00  0.100642910915E+01
  0.997912123476E+00  0.100977863982E+01  0.100199481679E+01  0.998063237034E+00  0.991085838919E+00  0.100132719331E+01  0.100094600681E+01
  0.101224609885E+01  0.106442280119E+01  0.101082190525E+01  0.100685258271E+01  0.100118414311E+01  0.102847362116E+01  0.100958665725E+01
  0.100510171608E+01  0.100179475824E+01  0.100266315902E+01  0.100321164511E+01  0.100399273182E+01
  0.000000000000E+00  0.000000000000E+00  0.000000000000E+00  0.378986941082E+00  0.000000000000E+00  0.340639444253E+00  0.582179008489E+00
  0.575195820272E+00  0.000000000000E+00  0.489449421243E+00  0.494741335329E+00  0.431507387495E+00  0.568961825158E+00  0.536179830495E+00
  0.568879739595E+00  0.516235684945E+00  0.508555698933E+00  0.527399282508E+00  0.566648549352E+00  0.531828923500E+00  0.506096460466E+00
  0.520701999152E+00  0.444686657283E+00  0.491339919765E+00  0.492734936143E+00  0.501504484967E+00  0.470002878297E+00  0.489199905724E+00
  0.490458183082E+00  0.491426954038E+00  0.486218275704E+00  0.490304438745E+00  0.495522026780E+00
  0.000000000000E+00  0.000000000000E+00  0.000000000000E+00  0.000000000000E+00  0.000000000000E+00  0.000000000000E+00  0.000000000000E+00
  0.000000000000E+00  0.000000000000E+00  0.000000000000E+00  0.000000000000E+00  0.000000000000E+00  0.000000000000E+00  0.000000000000E+00
  0.000000000000E+00  0.000000000000E+00  0.000000000000E+00  0.000000000000E+00  0.000000000000E+00  0.000000000000E+00  0.000000000000E+00
  0.000000000000E+00  0.000000000000E+00  0.000000000000E+00  0.000000000000E+00  0.000000000000E+00  0.000000000000E+00  0.000000000000E+00
  0.000000000000E+00  0.000000000000E+00  0.000000000000E+00  0.000000000000E+00  0.000000000000E+00
  0.000000000000E+00  0.000000000000E+00  0.000000000000E+00 -0.229669070489E-02  0.000000000000E+00  0.183565247074E-01  0.121122187228E-01
  0.454986543928E-01  0.000000000000E+00  0.870789630153E-01 -0.995426187951E-01 -0.211864968711E-01 -0.306441471520E-01 -0.414442958967E-01
 -0.137882998903E-02  0.259919291431E-02  0.609480410478E-03  0.503573387543E-03  0.150967303977E-01  0.284025721089E-01  0.564163876546E-02
  0.553419830863E-01  0.837461427544E-01  0.110441021002E-01  0.679169182851E-02 -0.758115469903E-03  0.279387062190E-02 -0.834662801937E-03
  0.400708358147E-02  0.602719328153E-02 -0.143884293697E-03  0.120121360705E-02  0.345019199861E-02
  0.593415709448E+00  0.668065253330E+00  0.667297107188E+00  0.684257572430E+00  0.686937806500E+00  0.679201335892E+00  0.695811645413E+00
  0.702343853187E+00  0.103531921473E+01  0.723694676387E+00  0.672591690890E+00  0.675702734193E+00  0.694093188846E+00  0.720959962582E+00
  0.712691281899E+00  0.724770830457E+00  0.716580562863E+00  0.713298991797E+00  0.706429557555E+00  0.717737238917E+00  0.715376602371E+00
  0.730937674873E+00  0.791043235517E+00  0.724372849829E+00  0.721010721300E+00  0.715457540496E+00  0.741799737336E+00  0.724056580059E+00
  0.719312938018E+00  0.715892799153E+00  0.716608904390E+00  0.717367939263E+00  0.718400634599E+00
  0.000000000000E+00  0.000000000000E+00  0.000000000000E+00  0.380991906551E+00  0.000000000000E+00  0.343629824959E+00  0.585286157354E+00
  0.579373263863E+00  0.000000000000E+00  0.501056068599E+00  0.508460362484E+00  0.435373027272E+00  0.572640041312E+00  0.537002098852E+00
  0.568922553918E+00  0.514994090460E+00  0.508247258893E+00  0.527252853890E+00  0.567446661178E+00  0.531657144034E+00  0.505981017152E+00
  0.520795579261E+00  0.443624103166E+00  0.490663730651E+00  0.492155873824E+00  0.501390785552E+00  0.467732355712E+00  0.488212087479E+00
  0.490002767122E+00  0.491352304353E+00  0.486075474519E+00  0.490036479571E+00  0.495098264867E+00
  0.999993488427E+00  0.999993692118E+00  0.999993544506E+00  0.989539056135E+00  0.999993140562E+00  0.985524707519E+00  0.989838908858E+00
  0.991798516526E+00  0.999992722650E+00  0.984411112778E+00  0.985091906344E+00  0.984689080598E+00  0.990058464549E+00  0.100289621836E+01
  0.999855369211E+00  0.100485306643E+01  0.100121554643E+01  0.100055642915E+01  0.997896793335E+00  0.100350029560E+01  0.100058068717E+01
  0.101093276228E+01  0.104043292617E+01  0.100326475365E+01  0.100254498737E+01  0.100045587376E+01  0.100976788408E+01  0.100405369346E+01
  0.100192656834E+01  0.100045434513E+01  0.100058774188E+01  0.100109993725E+01  0.100176112492E+01
        15         7        19        19
         8        20        19        19
        18        19        21        21
         7         4         8         8
         3         6         4         4
        19         7         8         8
        19        18        15        15
        14        13        15        15
         8        22        20        20
        27        24        22        22
        19        20        21        21
        32        26        21        21
        17        18        26        26
        17        16        15        15
        25        29        21        21
        12         7        13        13
        10         8         6         6
        25        20        24        24
         4         6         8         8
        12         2         4         4
        10        23        22        22
        26        31        17        17
        30        16        17        17
         4         7        12        12
        13        11        12        12
        21        20        25        25
        24        28        25        25
        22         8        10        10
         6         5        10        10
        31        26        32        32
         4         2         3         3
         5         6         3         3
        11        13        14        14
        22        23        27        27
        28        24        27        27
        15        13         7         7
         2        12         1         1
        29        25        33        33
        23        10         9         9
        21        26        18        18
        16        14        15        15
        18        17        15        15
        29        32        21        21
        22        24        20        20
        28        33        25        25
        11         1        12        12
        31        30        17        17
         5         9        10        10
zone t="boundary 3 bc-3", solutiontime= 0.5000000E+02, strandid=1003, i=33, j=48, f=feblock
  0.375000000000E+01  0.250000000000E+01  0.500000000000E+01  0.403552511878E+01  0.288078410721E+01  0.125000000000E+01  0.190974100652E+01
  0.500000000000E+01  0.326683758169E+01  0.423153924130E+01  0.201431602454E+01  0.000000000000E+00  0.963108083381E+00  0.500000000000E+01
  0.267000324704E+01  0.385533350601E+01  0.893127759452E+00  0.154774304040E+01  0.000000000000E+00  0.500000000000E+01  0.315249557942E+01
  0.218329375016E+01  0.398173246726E+01  0.000000000000E+00  0.698517061619E+00  0.964171764089E+00  0.125000000000E+01  0.000000000000E+00
  0.500000000000E+01  0.310324758057E+01  0.250000000000E+01  0.375000000000E+01  0.000000000000E+00
  0.250000000000E+01  0.250000000000E+01  0.250000000000E+01  0.250000000000E+01  0.250000000000E+01  0.250000000000E+01  0.250000000000E+01
  0.250000000000E+01  0.250000000000E+01  0.250000000000E+01  0.250000000000E+01  0.250000000000E+01  0.250000000000E+01  0.250000000000E+01
  0.250000000000E+01  0.250000000000E+01  0.250000000000E+01  0.250000000000E+01  0.250000000000E+01  0.250000000000E+01  0.250000000000E+01
  0.250000000000E+01  0.250000000000E+01  0.250000000000E+01  0.250000000000E+01  0.250000000000E+01  0.250000000000E+01  0.250000000000E+01
  0.250000000000E+01  0.250000000000E+01  0.250000000000E+01  0.250000000000E+01  0.250000000000E+01
  0.000000000000E+00  0.000000000000E+00  0.000000000000E+00  0.101201586758E+01  0.904659890645E+00  0.000000000000E+00  0.717002441913E+00
  0.125000000000E+01  0.188609243358E+01  0.191586535653E+01  0.176246431481E+01  0.000000000000E+00  0.961328577125E+00  0.250000000000E+01
  0.285047954584E+01  0.293121848150E+01  0.205246550326E+01  0.292817774674E+01  0.125000000000E+01  0.375000000000E+01  0.363585050272E+01
  0.395907379566E+01  0.406975391361E+01  0.250000000000E+01  0.306828197606E+01  0.397245519226E+01  0.500000000000E+01  0.375000000000E+01
  0.500000000000E+01  0.433168271247E+01  0.500000000000E+01  0.500000000000E+01  0.500000000000E+01
  0.941861271080E+00  0.946296416989E+00  0.843730488227E+00  0.964331006190E+00  0.978820743206E+00  0.956975891236E+00  0.983331403304E+00
  0.963500317010E+00  0.982689306647E+00  0.984243965555E+00  0.990263815921E+00  0.134427144934E+01  0.101918251331E+01  0.100829903922E+01
  0.993456155336E+00  0.997998684806E+00  0.100807808368E+01  0.100072116334E+01  0.106355395592E+01  0.100673529108E+01  0.100058356131E+01
  0.100234980720E+01  0.100178076608E+01  0.102389313792E+01  0.100874208380E+01  0.100528370894E+01  0.100522860295E+01  0.100830818996E+01
  0.100196461975E+01  0.100162012357E+01  0.100413205354E+01  0.100321958201E+01  0.100426040811E+01
  0.000000000000E+00  0.000000000000E+00  0.000000000000E+00  0.439071269639E+00  0.399865812908E+00  0.000000000000E+00  0.373794144932E+00
  0.495017673460E+00  0.573056189922E+00  0.569605109085E+00  0.559932658651E+00  0.000000000000E+00  0.483390704732E+00  0.533822130957E+00
  0.556458762774E+00  0.564688361296E+00  0.522615496267E+00  0.522533036125E+00  0.445481415550E+00  0.518326923419E+00  0.524750914822E+00
  0.503888174013E+00  0.509839741709E+00  0.471738849409E+00  0.496245454617E+00  0.494940396393E+00  0.489076359034E+00  0.489830188616E+00
  0.493064989607E+00  0.499146610202E+00  0.486766643092E+00  0.484757875484E+00  0.495784887626E+00
  0.000000000000E+00  0.000000000000E+00  0.000000000000E+00  0.000000000000E+00  0.000000000000E+00  0.000000000000E+00  0.000000000000E+00
  0.000000000000E+00  0.000000000000E+00  0.000000000000E+00  0.000000000000E+00  0.000000000000E+00  0.000000000000E+00  0.000000000000E+00
  0.000000000000E+00  0.000000000000E+00  0.000000000000E+00  0.000000000000E+00  0.000000000000E+00  0.000000000000E+00  0.000000000000E+00
  0.000000000000E+00  0.000000000000E+00  0.000000000000E+00  0.000000000000E+00  0.000000000000E+00  0.000000000000E+00  0.000000000000E+00
  0.000000000000E+00  0.000000000000E+00  0.000000000000E+00  0.000000000000E+00  0.000000000000E+00
  0.000000000000E+00  0.000000000000E+00  0.000000000000E+00 -0.226115193182E-01  0.111963815130E-01  0.000000000000E+00  0.179816810732E-01
 -0.100761226626E+00  0.390410746407E-02 -0.389325418438E-01  0.340377325217E-01  0.000000000000E+00  0.652293783067E-01 -0.424929694552E-01
  0.843881014534E-02 -0.650994071541E-02  0.490054840898E-01  0.135873483372E-01  0.452181758212E-01  0.737198053438E-03 -0.701223104143E-03
  0.243744345029E-02  0.868930323191E-03  0.351822584266E-02  0.103945254987E-01  0.431655366525E-02  0.337507277771E-02  0.459062416991E-03
  0.572579789074E-02  0.341102269405E-03  0.160978415743E-02  0.569905688672E-03  0.237177355385E-02
  0.672750879527E+00  0.675918855484E+00  0.602658384436E+00  0.676093765218E+00  0.691308921385E+00  0.683547254604E+00  0.690066482590E+00
  0.677274864269E+00  0.695201828105E+00  0.696250866540E+00  0.703344068749E+00  0.960184573987E+00  0.719726359012E+00  0.722866646155E+00
  0.709447759136E+00  0.713700946764E+00  0.726067413987E+00  0.716602922744E+00  0.782340562221E+00  0.722284531902E+00  0.716128637193E+00
  0.716551643803E+00  0.716546536643E+00  0.737395238966E+00  0.722682910945E+00  0.719441264149E+00  0.719566095255E+00  0.722781670966E+00
  0.716030183396E+00  0.715847822374E+00  0.718146783004E+00  0.717062470422E+00  0.718615293758E+00
  0.000000000000E+00  0.000000000000E+00  0.000000000000E+00  0.443767748097E+00  0.402286945505E+00  0.000000000000E+00  0.377550369432E+00
  0.509232119290E+00  0.575832179280E+00  0.573707404830E+00  0.562554064223E+00  0.000000000000E+00  0.490563299671E+00  0.534527097262E+00
  0.556586981877E+00  0.564391578121E+00  0.522730517294E+00  0.522052000059E+00  0.441238348575E+00  0.517182330403E+00  0.524228629904E+00
  0.503687457253E+00  0.509488566390E+00  0.469814974430E+00  0.495614442463E+00  0.494483780133E+00  0.488562429085E+00  0.488961654864E+00
  0.492980746293E+00  0.499005550380E+00  0.486460937217E+00  0.484596931193E+00  0.495346591641E+00
  0.999989340529E+00  0.999989412080E+00  0.999989629369E+00  0.981541882641E+00  0.988773988145E+00  0.999989827549E+00  0.982469462868E+00
  0.984104305143E+00  0.990427546900E+00  0.990355285141E+00  0.994362997434E+00  0.999990295293E+00  0.988652071100E+00  0.100368369427E+01
  0.999769197117E+00  0.100118501225E+01  0.100834885317E+01  0.100252111037E+01  0.102982719495E+01  0.100443319473E+01  0.100199536634E+01
  0.100082056595E+01  0.100138192434E+01  0.100826277305E+01  0.100298787130E+01  0.100192389556E+01  0.100215267493E+01  0.100355660048E+01
  0.100047670047E+01  0.100056591091E+01  0.100126820239E+01  0.100066573320E+01  0.100179336269E+01
        15         9        16        16
        15        18        11        11
        22        15        21        21
        11         5         9         9
         5         7         2         2
        11         9        15        15
        16        21        15        15
        16        10        14        14
        18        17        11        11
        17        25        24        24
        22        18        15        15
        22        30        31        31
        30        21        23        23
        16        20        23        23
        22        27        26        26
        10         9         4         4
         7        11        13        13
        25        18        26        26
        11         7         5         5
         5         1         4         4
        17        19        13        13
        23        32        30        30
        23        20        29        29
         4         9         5         5
         4         8        10        10
        26        18        22        22
        26        28        25        25
        13        11        17        17
        13         6         7         7
        31        30        32        32
         2         1         5         5
         2         7         6         6
        14        10         8         8
        24        19        17        17
        24        25        28        28
         9        10        16        16
         3         4         1         1
        33        26        27        27
        12        13        19        19
        21        30        22        22
        16        14        20        20
        16        23        21        21
        22        31        27        27
        18        25        17        17
        26        33        28        28
         4         3         8         8
        23        29        32        32
        13        12         6         6
zone t="boundary 4 bc-4", solutiontime= 0.5000000E+02, strandid=1004, i=32, j=46, f=feblock
  0.125000000000E+01  0.219251206392E+01  0.103724302461E+01  0.500000000000E+01  0.250000000000E+01  0.375000000000E+01  0.404200324774E+01
  0.500000000000E+01  0.000000000000E+00  0.310152362409E+01  0.202479342020E+01  0.324151231464E+01  0.922061490191E+00  0.000000000000E+00
  0.299062775774E+01  0.394624082883E+01  0.500000000000E+01  0.409252726285E+01  0.500000000000E+01  0.429310310915E+01  0.175434191980E+01
  0.284428995242E+01  0.000000000000E+00  0.000000000000E+00  0.715990576545E+00  0.930412228790E+00  0.125000000000E+01  0.187029682677E+01
  0.500000000000E+01  0.375000000000E+01  0.250000000000E+01  0.000000000000E+00
  0.250000000000E+01  0.157686156160E+01  0.146289271009E+01  0.250000000000E+01  0.250000000000E+01  0.250000000000E+01  0.155830813274E+01
  0.125000000000E+01  0.250000000000E+01  0.177790177481E+01  0.477386199275E+00  0.742988685424E+00  0.308372018325E+00  0.125000000000E+01
 -0.487811078581E+00 -0.144524380962E+01 -0.125000000000E+01 -0.345533899378E+00  0.000000000000E+00  0.627766083140E+00 -0.739814786992E+00
 -0.158811787973E+01  0.000000000000E+00 -0.125000000000E+01 -0.600232012419E+00 -0.154800130438E+01 -0.250000000000E+01 -0.178862290564E+01
 -0.250000000000E+01 -0.250000000000E+01 -0.250000000000E+01 -0.250000000000E+01
  0.500000000000E+01  0.500000000000E+01  0.500000000000E+01  0.500000000000E+01  0.500000000000E+01  0.500000000000E+01  0.500000000000E+01
  0.500000000000E+01  0.500000000000E+01  0.500000000000E+01  0.500000000000E+01  0.500000000000E+01  0.500000000000E+01  0.500000000000E+01
  0.500000000000E+01  0.500000000000E+01  0.500000000000E+01  0.500000000000E+01  0.500000000000E+01  0.500000000000E+01  0.500000000000E+01
  0.500000000000E+01  0.500000000000E+01  0.500000000000E+01  0.500000000000E+01  0.500000000000E+01  0.500000000000E+01  0.500000000000E+01
  0.500000000000E+01  0.500000000000E+01  0.500000000000E+01  0.500000000000E+01
  0.100522860295E+01  0.100432972632E+01  0.100432034574E+01  0.100196461975E+01  0.100413205354E+01  0.100321958201E+01  0.100258623318E+01
  0.100201175429E+01  0.100426040811E+01  0.100372310375E+01  0.100446502184E+01  0.100346952073E+01  0.100365984925E+01  0.100424800572E+01
  0.100362337498E+01  0.100164191963E+01  0.100227632648E+01  0.100227311665E+01  0.100213446730E+01  0.100254347684E+01  0.100442386307E+01
  0.100337263990E+01  0.100288843758E+01  0.100334542025E+01  0.100323223009E+01  0.100406087101E+01  0.100510171608E+01  0.100431307067E+01
  0.100179475824E+01  0.100266315902E+01  0.100321164511E+01  0.100399273182E+01
  0.489076359034E+00  0.489238599863E+00  0.490983331934E+00  0.493064989607E+00  0.486766643092E+00  0.484757875484E+00  0.485404962312E+00
  0.494262736419E+00  0.495784887626E+00  0.486800249409E+00  0.488139338316E+00  0.487244596198E+00  0.494423293205E+00  0.496536481823E+00
  0.487845784607E+00  0.483219470590E+00  0.492573587982E+00  0.487262282196E+00  0.494865949244E+00  0.488012497505E+00  0.490096717031E+00
  0.488269666829E+00  0.497534090338E+00  0.496384264449E+00  0.495259755909E+00  0.493216439059E+00  0.490458183082E+00  0.490400009288E+00
  0.491426954038E+00  0.486218275704E+00  0.490304438745E+00  0.495522026780E+00
  0.000000000000E+00 -0.893973356726E-04 -0.129755083417E-02  0.000000000000E+00  0.000000000000E+00  0.000000000000E+00  0.425702039587E-03
  0.797025574405E-03  0.000000000000E+00  0.274713432492E-03 -0.942430825401E-03 -0.820004697006E-03 -0.174523847021E-02 -0.638374743886E-04
 -0.110022569431E-02 -0.102277310778E-02 -0.133259051904E-02 -0.213433862800E-02 -0.132929171337E-02 -0.106401016799E-02 -0.624408481156E-03
 -0.761701599686E-03 -0.196339536121E-03  0.807126751689E-03  0.520226500882E-04  0.161630473806E-02  0.000000000000E+00  0.791647253998E-03
  0.000000000000E+00  0.000000000000E+00  0.000000000000E+00  0.000000000000E+00