title="tecplot geometry and solution file"
variables = x y z rho u v w p mach temperature
zone t="boundary 1 bc-1", solutiontime= 0.2000000E+02, strandid=1001, i=32, j=46, f=feblock
  0.000000000000E+00  0.000000000000E+00  0.000000000000E+00  0.000000000000E+00  0.000000000000E+00  0.000000000000E+00  0.000000000000E+00
  0.000000000000E+00  0.000000000000E+00  0.000000000000E+00  0.000000000000E+00  0.000000000000E+00  0.000000000000E+00  0.000000000000E+00
  0.000000000000E+00  0.000000000000E+00  0.000000000000E+00  0.000000000000E+00  0.000000000000E+00  0.000000000000E+00  0.000000000000E+00
  0.000000000000E+00  0.000000000000E+00  0.000000000000E+00  0.000000000000E+00  0.000000000000E+00  0.000000000000E+00  0.000000000000E+00
  0.000000000000E+00  0.000000000000E+00  0.000000000000E+00  0.000000000000E+00
  0.250000000000E+01  0.250000000000E+01  0.125000000000E+01  0.146289271009E+01  0.157686156160E+01  0.308372018325E+00  0.000000000000E+00
 -0.125000000000E+01 -0.600232012419E+00  0.250000000000E+01  0.477386199275E+00  0.742988685424E+00 -0.739814786992E+00  0.177790177481E+01
  0.155830813274E+01  0.250000000000E+01 -0.250000000000E+01 -0.154800130438E+01 -0.487811078581E+00  0.250000000000E+01  0.627766083140E+00
 -0.345533899378E+00 -0.178862290564E+01 -0.158811787973E+01  0.125000000000E+01 -0.250000000000E+01 -0.144524380962E+01  0.000000000000E+00
 -0.125000000000E+01 -0.250000000000E+01 -0.250000000000E+01 -0.250000000000E+01
  0.000000000000E+00  0.125000000000E+01  0.000000000000E+00  0.103724302461E+01  0.219251206392E+01  0.922061490191E+00  0.000000000000E+00
  0.000000000000E+00  0.715990576545E+00  0.250000000000E+01  0.202479342020E+01  0.324151231464E+01  0.175434191980E+01  0.310152362409E+01
  0.404200324774E+01  0.375000000000E+01  0.000000000000E+00  0.930412228790E+00  0.299062775774E+01  0.500000000000E+01  0.429310310915E+01
  0.409252726285E+01  0.187029682677E+01  0.284428995242E+01  0.500000000000E+01  0.125000000000E+01  0.394624082883E+01  0.500000000000E+01
  0.500000000000E+01  0.250000000000E+01  0.375000000000E+01  0.500000000000E+01
  0.134426701768E+01  0.106353722395E+01  0.142583324640E+01  0.108608895659E+01  0.103227520350E+01  0.120094108464E+01  0.164465758192E+01
  0.149408226178E+01  0.123519710592E+01  0.102388234827E+01  0.102808040242E+01  0.101300795123E+01  0.103252519813E+01  0.101471103451E+01
  0.100663023319E+01  0.100829261485E+01  0.144945813915E+01  0.116391595142E+01  0.101461495291E+01  0.100425912430E+01  0.100678946564E+01
  0.100722906749E+01  0.104666365105E+01  0.101936973934E+01  0.100424222883E+01  0.106441589275E+01  0.100787570355E+01  0.100286957442E+01
  0.100332752099E+01  0.102846330329E+01  0.100957053802E+01  0.100398659639E+01
  0.000000000000E+00  0.445502159221E+00  0.000000000000E+00  0.468722502064E+00  0.462215739135E+00  0.443631071782E+00  0.000000000000E+00
  0.000000000000E+00  0.379281439673E+00  0.471751766372E+00  0.466599107803E+00  0.479368099539E+00  0.490162122195E+00  0.484523872435E+00
  0.488507933489E+00  0.489833049251E+00  0.000000000000E+00  0.450681529930E+00  0.474830915632E+00  0.495838299468E+00  0.490907355775E+00
  0.486837988427E+00  0.448686223072E+00  0.465828908841E+00  0.496553145468E+00  0.444694304389E+00  0.487708064110E+00  0.497546478154E+00
  0.496392567052E+00  0.470013357209E+00  0.489214224234E+00  0.495539796454E+00
  0.000000000000E+00  0.000000000000E+00  0.000000000000E+00  0.186087595595E-01 -0.276741567593E-02  0.332958745905E-01  0.000000000000E+00
  0.000000000000E+00 -0.594964425870E-02  0.000000000000E+00  0.356387033292E-02 -0.567709590024E-02 -0.416507820614E-02  0.271711984405E-04
 -0.106254703096E-02  0.000000000000E+00  0.000000000000E+00 -0.764324757567E-02  0.350752779323E-03  0.000000000000E+00 -0.204372341073E-02
 -0.139250783986E-02  0.156590239577E-02 -0.159340345241E-02 -0.667808514946E-04  0.000000000000E+00 -0.286087480604E-04 -0.196204524531E-03
  0.818388066297E-03  0.000000000000E+00  0.000000000000E+00  0.000000000000E+00
  0.000000000000E+00  0.452273379151E-01  0.000000000000E+00  0.123915592753E+00  0.247677978391E-01  0.165640433700E+00  0.000000000000E+00
  0.000000000000E+00  0.155764357933E+00  0.351559790474E-02  0.259798604117E-01 -0.651569435077E-02  0.748921461145E-01  0.371198843001E-02
 -0.161272179910E-03  0.449477755774E-03  0.000000000000E+00  0.140948591902E+00 -0.808864093707E-02  0.234307653929E-02 -0.316762054792E-03
 -0.438254547717E-02  0.254933345194E-01 -0.195692395573E-02  0.306193566276E-02  0.837381834384E-01 -0.119849964582E-02  0.269104744335E-02
  0.265391791207E-02  0.278336965512E-02 -0.838486966707E-03  0.344745646892E-02
  0.960181408853E+00  0.782328436352E+00  0.101844290794E+01  0.808716094852E+00  0.746112592552E+00  0.879437112169E+00  0.117474533273E+01
  0.106719325802E+01  0.916611474298E+00  0.737382530578E+00  0.743541114670E+00  0.725748324455E+00  0.757445017328E+00  0.729178264892E+00
  0.720770365603E+00  0.722769165461E+00  0.103531970950E+01  0.858306074738E+00  0.728052468489E+00  0.718607414453E+00  0.720999730557E+00
  0.721136176356E+00  0.760004405437E+00  0.732614153585E+00  0.718521710307E+00  0.791033213290E+00  0.722091268811E+00  0.717182284737E+00
  0.717623086554E+00  0.741787294602E+00  0.724041022472E+00  0.718394372922E+00
  0.000000000000E+00  0.441259545600E+00  0.000000000000E+00  0.475199357578E+00  0.460157651096E+00  0.468842501763E+00  0.000000000000E+00
  0.000000000000E+00  0.402311950119E+00  0.469829391565E+00  0.464435826146E+00  0.478728276383E+00  0.489301841623E+00  0.483079091734E+00
  0.487916132689E+00  0.488964955106E+00  0.000000000000E+00  0.464799739669E+00  0.473813446476E+00  0.495402218020E+00  0.490276588973E+00
  0.486289954197E+00  0.445735010085E+00  0.464405129580E+00  0.496145746508E+00  0.443631397325E+00  0.486972763751E+00  0.497259942822E+00
  0.496067997474E+00  0.467744298300E+00  0.488227731224E+00  0.495116644381E+00
  0.999990295612E+00  0.102982743455E+01  0.999990759591E+00  0.104245837869E+01  0.101189840271E+01  0.102520595955E+01  0.999991416995E+00
  0.999992168736E+00  0.103890792641E+01  0.100825602136E+01  0.101252543875E+01  0.100300067043E+01  0.102701902692E+01  0.100604954132E+01
  0.100243215292E+01  0.100355473872E+01  0.999992724287E+00  0.103240144030E+01  0.100459139988E+01  0.100178365911E+01  0.100259255507E+01
  0.100234462992E+01  0.101656933108E+01  0.100617055366E+01  0.100168103426E+01  0.104042649696E+01  0.100302822339E+01  0.100118223171E+01
  0.100134034018E+01  0.100976107666E+01  0.100404815046E+01  0.100175851521E+01
        12        19        11        11
        11         5        12        12
        10        14         5         5
        19        13        11        11
        19        24        13        13
        30        23        24        24
        19        12        22        22
        28        22        21        21
        11        13         6         6
         7         6         9         9
        15        12        14        14
        18        13        23        23
        15        25        21        21
        27        19        22        22
        18         8         9         9
        27        31        24        24
         4        11         6         6
         5        14        12        12
         4         2         5         5
        21        12        15        15
        14        16        15        15
        24        19        27        27
        22        29        27        27
        23        26        18        18
        17         8        18        18
         5        11         4         4
         6         3         4         4
        26        23        30        30
         5         2        10        10
        16        14        10        10
         3         6         7         7
        21        25        28        28
        29        22        28        28
         6        13         9         9
         2         4         1         1
        31        27        32        32
        25        15        20        20
        24        23        13        13
         8         7         9         9
        13        18         9         9
        31        30        24        24
        12        21        22        22
        29        32        27        27
         3         1         4         4
        26        17        18        18
        16        20        15        15
zone t="boundary 2 bc-2", solutiontime= 0.2000000E+02, strandid=1002, i=33, j=48, f=feblock
  0.500000000000E+01  0.375000000000E+01  0.250000000000E+01  0.288078410721E+01  0.125000000000E+01  0.190974100652E+01  0.326683758169E+01
  0.201431602454E+01  0.000000000000E+00  0.963108083381E+00  0.500000000000E+01  0.403552511878E+01  0.423153924130E+01  0.500000000000E+01
  0.385533350601E+01  0.500000000000E+01  0.398173246726E+01  0.315249557942E+01  0.267000324704E+01  0.154774304040E+01  0.218329375016E+01
  0.893127759452E+00  0.000000000000E+00  0.698517061619E+00  0.964171764089E+00  0.310324758057E+01  0.000000000000E+00  0.000000000000E+00
  0.125000000000E+01  0.500000000000E+01  0.375000000000E+01  0.250000000000E+01  0.000000000000E+00
 -0.250000000000E+01 -0.250000000000E+01 -0.250000000000E+01 -0.250000000000E+01 -0.250000000000E+01 -0.250000000000E+01 -0.250000000000E+01
 -0.250000000000E+01 -0.250000000000E+01 -0.250000000000E+01 -0.250000000000E+01 -0.250000000000E+01 -0.250000000000E+01 -0.250000000000E+01
 -0.250000000000E+01 -0.250000000000E+01 -0.250000000000E+01 -0.250000000000E+01 -0.250000000000E+01 -0.250000000000E+01 -0.250000000000E+01
 -0.250000000000E+01 -0.250000000000E+01 -0.250000000000E+01 -0.250000000000E+01 -0.250000000000E+01 -0.250000000000E+01 -0.250000000000E+01
 -0.250000000000E+01 -0.250000000000E+01 -0.250000000000E+01 -0.250000000000E+01 -0.250000000000E+01
  0.000000000000E+00  0.000000000000E+00  0.000000000000E+00  0.904659890645E+00  0.000000000000E+00  0.717002441913E+00  0.188609243358E+01
  0.176246431481E+01  0.000000000000E+00  0.961328577125E+00  0.125000000000E+01  0.101201586758E+01  0.191586535653E+01  0.250000000000E+01
  0.293121848150E+01  0.375000000000E+01  0.406975391361E+01  0.363585050272E+01  0.285047954584E+01  0.292817774674E+01  0.395907379566E+01
  0.205246550326E+01  0.125000000000E+01  0.306828197606E+01  0.397245519226E+01  0.433168271247E+01  0.250000000000E+01  0.375000000000E+01
  0.500000000000E+01  0.500000000000E+01  0.500000000000E+01  0.500000000000E+01  0.500000000000E+01
  0.830779579338E+00  0.935292128868E+00  0.934197596503E+00  0.968077636920E+00  0.961706367876E+00  0.964847090050E+00  0.984107331099E+00
  0.991409208837E+00  0.144945813915E+01  0.102920880208E+01  0.955851858496E+00  0.960703236446E+00  0.981461648446E+00  0.100642093534E+01
  0.997904288867E+00  0.100979441738E+01  0.100198705863E+01  0.998056252738E+00  0.991073072850E+00  0.100131016844E+01  0.100093454233E+01
  0.101223643952E+01  0.106441589275E+01  0.101080727378E+01  0.100683968613E+01  0.100116893424E+01  0.102846330329E+01  0.100957053802E+01
  0.100508730193E+01  0.100172928849E+01  0.100263232858E+01  0.100320019678E+01  0.100398659639E+01
  0.000000000000E+00  0.000000000000E+00  0.000000000000E+00  0.378965707850E+00  0.000000000000E+00  0.340647528510E+00  0.582144046233E+00
  0.575193919012E+00  0.000000000000E+00  0.489464423469E+00  0.494721028035E+00  0.431487015079E+00  0.568932985228E+00  0.536179562752E+00
  0.568935577449E+00  0.516295004765E+00  0.508655053909E+00  0.527482739454E+00  0.566664286828E+00  0.531844435871E+00  0.506166675224E+00
  0.520712567274E+00  0.444694304389E+00  0.491349463269E+00  0.492748995832E+00  0.501553582822E+00  0.470013357209E+00  0.489214224234E+00
  0.490452708262E+00  0.491388555768E+00  0.486045591600E+00  0.490248818383E+00  0.495539796454E+00
  0.000000000000E+00  0.000000000000E+00  0.000000000000E+00  0.000000000000E+00  0.000000000000E+00  0.000000000000E+00  0.000000000000E+00
  0.000000000000E+00  0.000000000000E+00  0.000000000000E+00  0.000000000000E+00  0.000000000000E+00  0.000000000000E+00  0.000000000000E+00
  0.000000000000E+00  0.000000000000E+00  0.000000000000E+00  0.000000000000E+00  0.000000000000E+00  0.000000000000E+00  0.000000000000E+00
  0.000000000000E+00  0.000000000000E+00  0.000000000000E+00  0.000000000000E+00  0.000000000000E+00  0.000000000000E+00  0.000000000000E+00
  0.000000000000E+00  0.000000000000E+00  0.000000000000E+00  0.000000000000E+00  0.000000000000E+00
  0.000000000000E+00  0.000000000000E+00  0.000000000000E+00 -0.228646923263E-02  0.000000000000E+00  0.183642478671E-01  0.121355153605E-01
  0.455238605531E-01  0.000000000000E+00  0.870800459442E-01 -0.995468611181E-01 -0.212082486761E-01 -0.306597957471E-01 -0.414703147374E-01
 -0.139027481929E-02  0.261893424839E-02  0.595508730745E-03  0.496382534656E-03  0.151295844369E-01  0.284403336001E-01  0.564511913196E-02
  0.553424894306E-01  0.837381834384E-01  0.110562412409E-01  0.680842991496E-02 -0.786332633785E-03  0.278336965512E-02 -0.838486966707E-03
  0.400065913594E-02  0.607035992023E-02 -0.141985639609E-03  0.120294341089E-02  0.344745646892E-02
  0.593410120665E+00  0.668061591622E+00  0.667279689047E+00  0.684247937287E+00  0.686928406739E+00  0.679190351049E+00  0.695799618824E+00
  0.702332103293E+00  0.103531970950E+01  0.723688263933E+00  0.672573124443E+00  0.675691576634E+00  0.694082166205E+00  0.720956470040E+00
  0.712682244917E+00  0.724783544584E+00  0.716575124484E+00  0.713285597616E+00  0.706419899847E+00  0.717724689589E+00  0.715362376783E+00
  0.730926620279E+00  0.791033213290E+00  0.724358577203E+00  0.720997124519E+00  0.715435221300E+00  0.741787294602E+00  0.724041022472E+00
  0.719303249801E+00  0.715838527303E+00  0.716585935450E+00  0.717364985689E+00  0.718394372922E+00
  0.000000000000E+00  0.000000000000E+00  0.000000000000E+00  0.380971199362E+00  0.000000000000E+00  0.343640932996E+00  0.585247984697E+00
  0.579377257212E+00  0.000000000000E+00  0.501071396967E+00  0.508441027168E+00  0.435359529394E+00  0.572608815894E+00  0.537002955210E+00
  0.568979797337E+00  0.515052871831E+00  0.508346497946E+00  0.527339386820E+00  0.567463510708E+00  0.531674747059E+00  0.506053379464E+00
  0.520807537869E+00  0.443631397325E+00  0.490674811489E+00  0.492171633625E+00  0.501443928432E+00  0.467744298300E+00  0.488227731224E+00
  0.489997031648E+00  0.491317018054E+00  0.485903157339E+00  0.489979107099E+00  0.495116644381E+00
  0.999993487554E+00  0.999993691171E+00  0.999993543296E+00  0.989535421199E+00  0.999993138819E+00  0.985510037055E+00  0.989850837983E+00
  0.991785163831E+00  0.999992724287E+00  0.984410128885E+00  0.985092371638E+00  0.984662246780E+00  0.990069285157E+00  0.100289950518E+01
  0.999850540793E+00  0.100485499321E+01  0.100121569998E+01  0.100054464257E+01  0.997896004723E+00  0.100349981164E+01  0.100057225037E+01
  0.101092711983E+01  0.104042649696E+01  0.100325950791E+01  0.100253892276E+01  0.100043986141E+01  0.100976107666E+01  0.100404815046E+01
  0.100192744231E+01  0.100044388214E+01  0.100058643736E+01  0.100110723980E+01  0.100175851521E+01
        15         7        19        19
         8        20        19        19
        18        19        21        21
         7         4         8         8
         3         6         4         4
        19         7         8         8
        19        18        15        15
        14        13        15        15
         8        22        20        20
        27        24        22        22
        19        20        21        21
        32        26        21        21
        17        18        26        26
        17        16        15        15
        25        29        21        21
        12         7        13        13
        10         8         6         6
        25        20        24        24
         4         6         8         8
        12         2         4         4
        10        23        22        22
        26        31        17        17
        30        16        17        17
         4         7        12        12
        13        11        12        12
        21        20        25        25
        24        28        25        25
        22         8        10        10
         6         5        10        10
        31        26        32        32
         4         2         3         3
         5         6         3         3
        11        13        14        14
        22        23        27        27
        28        24        27        27
        15        13         7         7
         2        12         1         1
        29        25        33        33
        23        10         9         9
        21        26        18        18
        16        14        15        15
        18        17        15        15
        29        32        21        21
        22        24        20        20
        28        33        25        25
        11         1        12        12
        31        30        17        17
         5         9        10        10
zone t="boundary 3 bc-3", solutiontime= 0.2000000E+02, strandid=1003, i=33, j=48, f=feblock
  0.375000000000E+01  0.250000000000E+01  0.500000000000E+01  0.403552511878E+01  0.288078410721E+01  0.125000000000E+01  0.190974100652E+01
  0.500000000000E+01  0.326683758169E+01  0.423153924130E+01  0.201431602454E+01  0.000000000000E+00  0.963108083381E+00  0.500000000000E+01
  0.267000324704E+01  0.385533350601E+01  0.893127759452E+00  0.154774304040E+01  0.000000000000E+00  0.500000000000E+01  0.315249557942E+01
  0.218329375016E+01  0.398173246726E+01  0.000000000000E+00  0.698517061619E+00  0.964171764089E+00  0.125000000000E+01  0.000000000000E+00
  0.500000000000E+01  0.310324758057E+01  0.250000000000E+01  0.375000000000E+01  0.000000000000E+00
  0.250000000000E+01  0.250000000000E+01  0.250000000000E+01  0.250000000000E+01  0.250000000000E+01  0.250000000000E+01  0.250000000000E+01
  0.250000000000E+01  0.250000000000E+01  0.250000000000E+01  0.250000000000E+01  0.250000000000E+01  0.250000000000E+01  0.250000000000E+01
  0.250000000000E+01  0.250000000000E+01  0.250000000000E+01  0.250000000000E+01  0.250000000000E+01  0.250000000000E+01  0.250000000000E+01
  0.250000000000E+01  0.250000000000E+01  0.250000000000E+01  0.250000000000E+01  0.250000000000E+01  0.250000000000E+01  0.250000000000E+01
  0.250000000000E+01  0.250000000000E+01  0.250000000000E+01  0.250000000000E+01  0.250000000000E+01
  0.000000000000E+00  0.000000000000E+00  0.000000000000E+00  0.101201586758E+01  0.904659890645E+00  0.000000000000E+00  0.717002441913E+00
  0.125000000000E+01  0.188609243358E+01  0.191586535653E+01  0.176246431481E+01  0.000000000000E+00  0.961328577125E+00  0.250000000000E+01
  0.285047954584E+01  0.293121848150E+01  0.205246550326E+01  0.292817774674E+01  0.125000000000E+01  0.375000000000E+01  0.363585050272E+01
  0.395907379566E+01  0.406975391361E+01  0.250000000000E+01  0.306828197606E+01  0.397245519226E+01  0.500000000000E+01  0.375000000000E+01
  0.500000000000E+01  0.433168271247E+01  0.500000000000E+01  0.500000000000E+01  0.500000000000E+01
  0.941868384125E+00  0.946282681348E+00  0.843728826781E+00  0.964401017626E+00  0.978854167015E+00  0.956962034659E+00  0.983321857354E+00
  0.963537821743E+00  0.982672031860E+00  0.984234056256E+00  0.990249466013E+00  0.134426701768E+01  0.101917346741E+01  0.100830881652E+01
  0.993441986955E+00  0.998000140993E+00  0.100806074970E+01  0.100070006653E+01  0.106353722395E+01  0.100676919216E+01  0.100058010167E+01
  0.100233614168E+01  0.100177153510E+01  0.102388234827E+01  0.100872421653E+01  0.100526518671E+01  0.100522297009E+01  0.100829261485E+01
  0.100185747765E+01  0.100160319752E+01  0.100409380304E+01  0.100312445951E+01  0.100425912430E+01
  0.000000000000E+00  0.000000000000E+00  0.000000000000E+00  0.439021993692E+00  0.399808553911E+00  0.000000000000E+00  0.373781815096E+00
  0.494927882872E+00  0.573032115955E+00  0.569564488984E+00  0.559935349800E+00  0.000000000000E+00  0.483396774884E+00  0.533811257340E+00
  0.556500196655E+00  0.564763857498E+00  0.522634609374E+00  0.522556625606E+00  0.445502159221E+00  0.518380733052E+00  0.524843787811E+00
  0.503953520108E+00  0.509945499911E+00  0.471751766372E+00  0.496257374459E+00  0.494963505954E+00  0.489129682709E+00  0.489833049251E+00
  0.493003484183E+00  0.499229138090E+00  0.486735849397E+00  0.484535963913E+00  0.495838299468E+00
  0.000000000000E+00  0.000000000000E+00  0.000000000000E+00  0.000000000000E+00  0.000000000000E+00  0.000000000000E+00  0.000000000000E+00
  0.000000000000E+00  0.000000000000E+00  0.000000000000E+00  0.000000000000E+00  0.000000000000E+00  0.000000000000E+00  0.000000000000E+00
  0.000000000000E+00  0.000000000000E+00  0.000000000000E+00  0.000000000000E+00  0.000000000000E+00  0.000000000000E+00  0.000000000000E+00
  0.000000000000E+00  0.000000000000E+00  0.000000000000E+00  0.000000000000E+00  0.000000000000E+00  0.000000000000E+00  0.000000000000E+00
  0.000000000000E+00  0.000000000000E+00  0.000000000000E+00  0.000000000000E+00  0.000000000000E+00
  0.000000000000E+00  0.000000000000E+00  0.000000000000E+00 -0.226393385842E-01  0.112003263111E-01  0.000000000000E+00  0.179825689994E-01
 -0.100768222437E+00  0.390762145486E-02 -0.389581045056E-01  0.340488033353E-01  0.000000000000E+00  0.652254547039E-01 -0.425016353590E-01
  0.845628900400E-02 -0.650707460172E-02  0.490101376199E-01  0.136107652169E-01  0.452273379151E-01  0.800397833213E-03 -0.696527375124E-03
  0.244022336012E-02  0.926077367738E-03  0.351559790474E-02  0.103959314473E-01  0.431218060306E-02  0.333955886833E-02  0.449477755774E-03
  0.583862676441E-02  0.339967736816E-03  0.163636614553E-02  0.684397883172E-03  0.234307653929E-02
  0.672755961638E+00  0.675909044083E+00  0.602657197141E+00  0.676087291270E+00  0.691292296036E+00  0.683537357300E+00  0.690058705120E+00
  0.677283316246E+00  0.695189973160E+00  0.696240548199E+00  0.703330042188E+00  0.960181408853E+00  0.719710324614E+00  0.722872246897E+00
  0.709435440579E+00  0.713693424087E+00  0.726050861899E+00  0.716587407023E+00  0.782328436352E+00  0.722305401179E+00  0.716113221884E+00
  0.716528086691E+00  0.716535039481E+00  0.737382530578E+00  0.722665401135E+00  0.719417937165E+00  0.719559248100E+00  0.722769165461E+00
  0.715957653611E+00  0.715824042124E+00  0.718133026452E+00  0.717024289315E+00  0.718607414453E+00
  0.000000000000E+00  0.000000000000E+00  0.000000000000E+00  0.443737753480E+00  0.402241200223E+00  0.000000000000E+00  0.377538282516E+00
  0.509151564763E+00  0.575807862280E+00  0.573669797775E+00  0.562558965237E+00  0.000000000000E+00  0.490572109609E+00  0.534517485149E+00
  0.556629544413E+00  0.564470378291E+00  0.522751364848E+00  0.522076309167E+00  0.441259545600E+00  0.517237351002E+00  0.524326140914E+00
  0.503757636024E+00  0.509596092409E+00  0.469829391565E+00  0.495627986232E+00  0.494510289908E+00  0.488616406463E+00  0.488964955106E+00
  0.492919192966E+00  0.499092127067E+00  0.486425645793E+00  0.484365173206E+00  0.495402218020E+00
  0.999989342639E+00  0.999989411587E+00  0.999989628440E+00  0.981461228762E+00  0.988716447314E+00  0.999989827770E+00  0.982467927406E+00
  0.984078280425E+00  0.990428068439E+00  0.990350578994E+00  0.994357576407E+00  0.999990295612E+00  0.988638820264E+00  0.100368173825E+01
  0.999766095909E+00  0.100117299856E+01  0.100834320447E+01  0.100252053876E+01  0.102982743455E+01  0.100442839284E+01  0.100197726196E+01
  0.100080130772E+01  0.100137508416E+01  0.100825602136E+01  0.100298133525E+01  0.100190986950E+01  0.100214875437E+01  0.100355473872E+01
  0.100048234147E+01  0.100054958037E+01  0.100128716459E+01  0.100070733549E+01  0.100178365911E+01
        15         9        16        16
        15        18        11        11
        22        15        21        21
        11         5         9         9
         5         7         2         2
        11         9        15        15
        16        21        15        15
        16        10        14        14
        18        17        11        11
        17        25        24        24
        22        18        15        15
        22        30        31        31
        30        21        23        23
        16        20        23        23
        22        27        26        26
        10         9         4         4
         7        11        13        13
        25        18        26        26
        11         7         5         5
         5         1         4         4
        17        19        13        13
        23        32        30        30
        23        20        29        29
         4         9         5         5
         4         8        10        10
        26        18        22        22
        26        28        25        25
        13        11        17        17
        13         6         7         7
        31        30        32        32
         2         1         5         5
         2         7         6         6
        14        10         8         8
        24        19        17        17
        24        25        28        28
         9        10        16        16
         3         4         1         1
        33        26        27        27
        12        13        19        19
        21        30        22        22
        16        14        20        20
        16        23        21        21
        22        31        27        27
        18        25        17        17
        26        33        28        28
         4         3         8         8
        23        29        32        32
        13        12         6         6
zone t="boundary 4 bc-4", solutiontime= 0.2000000E+02, strandid=1004, i=32, j=46, f=feblock
  0.125000000000E+01  0.219251206392E+01  0.103724302461E+01  0.500000000000E+01  0.250000000000E+01  0.375000000000E+01  0.404200324774E+01
  0.500000000000E+01  0.000000000000E+00  0.310152362409E+01  0.202479342020E+01  0.324151231464E+01  0.922061490191E+00  0.000000000000E+00
  0.299062775774E+01  0.394624082883E+01  0.500000000000E+01  0.409252726285E+01  0.500000000000E+01  0.429310310915E+01  0.175434191980E+01
  0.284428995242E+01  0.000000000000E+00  0.000000000000E+00  0.715990576545E+00  0.930412228790E+00  0.125000000000E+01  0.187029682677E+01
  0.500000000000E+01  0.375000000000E+01  0.250000000000E+01  0.000000000000E+00
  0.250000000000E+01  0.157686156160E+01  0.146289271009E+01  0.250000000000E+01  0.250000000000E+01  0.250000000000E+01  0.155830813274E+01
  0.125000000000E+01  0.250000000000E+01  0.177790177481E+01  0.477386199275E+00  0.742988685424E+00  0.308372018325E+00  0.125000000000E+01
 -0.487811078581E+00 -0.144524380962E+01 -0.125000000000E+01 -0.345533899378E+00  0.000000000000E+00  0.627766083140E+00 -0.739814786992E+00
 -0.158811787973E+01  0.000000000000E+00 -0.125000000000E+01 -0.600232012419E+00 -0.154800130438E+01 -0.250000000000E+01 -0.178862290564E+01
 -0.250000000000E+01 -0.250000000000E+01 -0.250000000000E+01 -0.250000000000E+01
  0.500000000000E+01  0.500000000000E+01  0.500000000000E+01  0.500000000000E+01  0.500000000000E+01  0.500000000000E+01  0.500000000000E+01
  0.500000000000E+01  0.500000000000E+01  0.500000000000E+01  0.500000000000E+01  0.500000000000E+01  0.500000000000E+01  0.500000000000E+01
  0.500000000000E+01  0.500000000000E+01  0.500000000000E+01  0.500000000000E+01  0.500000000000E+01  0.500000000000E+01  0.500000000000E+01
  0.500000000000E+01  0.500000000000E+01  0.500000000000E+01  0.500000000000E+01  0.500000000000E+01  0.500000000000E+01  0.500000000000E+01
  0.500000000000E+01  0.500000000000E+01  0.500000000000E+01  0.500000000000E+01
  0.100522297009E+01  0.100430409999E+01  0.100429816986E+01  0.100185747765E+01  0.100409380304E+01  0.100312445951E+01  0.100249908529E+01
  0.100192639830E+01  0.100425912430E+01  0.100366028812E+01  0.100444678826E+01  0.100343727336E+01  0.100364959813E+01  0.100424222883E+01
  0.100359219744E+01  0.100160857734E+01  0.100223016629E+01  0.100221148393E+01  0.100205884650E+01  0.100246494272E+01  0.100441735456E+01
  0.100336325671E+01  0.100286957442E+01  0.100332752099E+01  0.100322043437E+01  0.100404930089E+01  0.100508730193E+01  0.100430731600E+01
  0.100172928849E+01  0.100263232858E+01  0.100320019678E+01  0.100398659639E+01
  0.489129682709E+00  0.489233965170E+00  0.491008143061E+00  0.493003484183E+00  0.486735849397E+00  0.484535963913E+00  0.485191095647E+00
  0.494181399233E+00  0.495838299468E+00  0.486687387115E+00  0.488138770248E+00  0.487155398272E+00  0.494443687718E+00  0.496553145468E+00
  0.487763145776E+00  0.483082163649E+00  0.492508804031E+00  0.487117009367E+00  0.494805212047E+00  0.487847758706E+00  0.490094423704E+00
  0.488157953332E+00  0.497546478154E+00  0.496392567052E+00  0.495268314020E+00  0.493225226141E+00  0.490452708262E+00  0.490379650110E+00
  0.491388555768E+00  0.486045591600E+00  0.490248818383E+00  0.495539796454E+00
  0.000000000000E+00 -0.103184854708E-03 -0.131129948440E-02  0.000000000000E+00  0.000000000000E+00  0.000000000000E+00  0.467103747137E-03
  0.848266288148E-03  0.000000000000E+00  0.267550587917E-03 -0.947956312970E-03 -0.833862638560E-03 -0.174496508026E-02 -0.667808514946E-04
 -0.110427320848E-02 -0.103579764110E-02 -0.134058220329E-02 -0.215505666102E-02 -0.130480920597E-02 -0.105192348883E-02 -0.594080074739E-03
 -0.749378750627E-03 -0.196204524531E-03  0.818388066297E-03  0.658751439432E-04  0.163944248013E-02  0.000000000000E+00  0.805152336995E-03
  0.000000000000E+00  0.000000000000E+00  0.000000000000E+00  0.000000000000E+00