# vtk DataFile Version 2.0
FUN3D:global_image_vtk
ASCII
DATASET UNSTRUCTURED_GRID
POINTS 213 double
    0.0000000000000000E+00    0.2500000000000000E+01    0.0000000000000000E+00
    0.1250000000000000E+01    0.2500000000000000E+01    0.0000000000000000E+00
    0.2500000000000000E+01    0.2500000000000000E+01    0.0000000000000000E+00
    0.3750000000000000E+01    0.2500000000000000E+01    0.0000000000000000E+00
    0.5000000000000000E+01    0.2500000000000000E+01    0.0000000000000000E+00
    0.5000000000000000E+01    0.1250000000000000E+01    0.0000000000000000E+00
    0.5000000000000000E+01    0.0000000000000000E+00    0.0000000000000000E+00
    0.5000000000000000E+01   -0.1250000000000000E+01    0.0000000000000000E+00
    0.5000000000000000E+01   -0.2500000000000000E+01    0.0000000000000000E+00
    0.3750000000000000E+01   -0.2500000000000000E+01    0.0000000000000000E+00
    0.2500000000000000E+01   -0.2500000000000000E+01    0.0000000000000000E+00
    0.1250000000000000E+01   -0.2500000000000000E+01    0.0000000000000000E+00
    0.0000000000000000E+00   -0.2500000000000000E+01    0.0000000000000000E+00
    0.0000000000000000E+00   -0.1250000000000000E+01    0.0000000000000000E+00
    0.0000000000000000E+00    0.0000000000000000E+00    0.0000000000000000E+00
    0.0000000000000000E+00    0.1250000000000000E+01    0.0000000000000000E+00
    0.9058375365086910E+00    0.1578994732800803E+01    0.0000000000000000E+00
    0.3982050490726493E+01   -0.1583989954232354E+01    0.0000000000000000E+00
    0.4033849428301197E+01    0.1453322699199022E+01    0.0000000000000000E+00
    0.1040505887381675E+01   -0.1479596339503735E+01    0.0000000000000000E+00
    0.1099454400140349E+01   -0.3227322616384110E+00    0.0000000000000000E+00
    0.7354504170366591E+00    0.6593508822075582E+00    0.0000000000000000E+00
    0.1622302608453282E+01    0.8256214013940779E+00    0.0000000000000000E+00
    0.2145871574390382E+01   -0.1650070333782557E+01    0.0000000000000000E+00
    0.4086422318222992E+01   -0.4612828702537229E+00    0.0000000000000000E+00
    0.2979540174134984E+01   -0.8579242121530853E+00    0.0000000000000000E+00
    0.3045064261640043E+01   -0.1836846154397680E+01    0.0000000000000000E+00
    0.3428197553792836E+01    0.3508002863614053E+00    0.0000000000000000E+00
    0.4309693860063405E+01    0.5185680230613409E+00    0.0000000000000000E+00
    0.1827272193562204E+01    0.1738996113203182E+01    0.0000000000000000E+00
    0.2808563282768077E+01    0.1325493893339706E+01    0.0000000000000000E+00
    0.1895995683864404E+01   -0.8731419609589618E+00    0.0000000000000000E+00
    0.2273179336307740E+01    0.4906150219227333E-01    0.0000000000000000E+00
    0.5000000000000000E+01    0.2500000000000000E+01    0.1250000000000000E+01
    0.5000000000000000E+01    0.2500000000000000E+01    0.2500000000000000E+01
    0.5000000000000000E+01    0.2500000000000000E+01    0.3750000000000000E+01
    0.5000000000000000E+01    0.2500000000000000E+01    0.5000000000000000E+01
    0.3750000000000000E+01    0.2500000000000000E+01    0.5000000000000000E+01
    0.2500000000000000E+01    0.2500000000000000E+01    0.5000000000000000E+01
    0.1250000000000000E+01    0.2500000000000000E+01    0.5000000000000000E+01
    0.0000000000000000E+00    0.2500000000000000E+01    0.5000000000000000E+01
    0.0000000000000000E+00    0.2500000000000000E+01    0.3750000000000000E+01
    0.0000000000000000E+00    0.2500000000000000E+01    0.2500000000000000E+01
    0.0000000000000000E+00    0.2500000000000000E+01    0.1250000000000000E+01
    0.9631080833812172E+00    0.2500000000000000E+01    0.9613285771248219E+00
    0.3981732467264904E+01    0.2500000000000000E+01    0.4069753913607991E+01
    0.4035525118777670E+01    0.2500000000000000E+01    0.1012015867579395E+01
    0.9641717640894248E+00    0.2500000000000000E+01    0.3972455192261839E+01
    0.1547743040396780E+01    0.2500000000000000E+01    0.2928177746738678E+01
    0.6985170616192014E+00    0.2500000000000000E+01    0.3068281976055466E+01
    0.8931277594515110E+00    0.2500000000000000E+01    0.2052465503257726E+01
    0.2183293750162785E+01    0.2500000000000000E+01    0.3959073795658649E+01
    0.3855333506014705E+01    0.2500000000000000E+01    0.2931218481500625E+01
    0.3152495579421047E+01    0.2500000000000000E+01    0.3635850502723324E+01
    0.3103247580566054E+01    0.2500000000000000E+01    0.4331682712472464E+01
    0.3266837581688852E+01    0.2500000000000000E+01    0.1886092433583972E+01
    0.4231539241296245E+01    0.2500000000000000E+01    0.1915865356532799E+01
    0.1909741006522088E+01    0.2500000000000000E+01    0.7170024419130505E+00
    0.2880784107213163E+01    0.2500000000000000E+01    0.9046598906449592E+00
    0.2014316024535771E+01    0.2500000000000000E+01    0.1762464314805728E+01
    0.2670003247036656E+01    0.2500000000000000E+01    0.2850479545835163E+01
    0.5000000000000000E+01    0.1250000000000000E+01    0.5000000000000000E+01
    0.5000000000000000E+01    0.0000000000000000E+00    0.5000000000000000E+01
    0.5000000000000000E+01   -0.1250000000000000E+01    0.5000000000000000E+01
    0.5000000000000000E+01   -0.2500000000000000E+01    0.5000000000000000E+01
    0.5000000000000000E+01   -0.2500000000000000E+01    0.3750000000000000E+01
    0.5000000000000000E+01   -0.2500000000000000E+01    0.2500000000000000E+01
    0.5000000000000000E+01   -0.2500000000000000E+01    0.1250000000000000E+01
    0.5000000000000000E+01    0.1578994732800803E+01    0.9058375365086910E+00
    0.5000000000000000E+01   -0.1583989954232354E+01    0.3982050490726493E+01
    0.5000000000000000E+01    0.1453322699199022E+01    0.4033849428301197E+01
    0.5000000000000000E+01   -0.1479596339503735E+01    0.1040505887381675E+01
    0.5000000000000000E+01   -0.3227322616384110E+00    0.1099454400140349E+01
    0.5000000000000000E+01    0.6593508822075582E+00    0.7354504170366591E+00
    0.5000000000000000E+01    0.8256214013940779E+00    0.1622302608453282E+01
    0.5000000000000000E+01   -0.1650070333782557E+01    0.2145871574390382E+01
    0.5000000000000000E+01   -0.4612828702537229E+00    0.4086422318222992E+01
    0.5000000000000000E+01   -0.8579242121530853E+00    0.2979540174134984E+01
    0.5000000000000000E+01   -0.1836846154397680E+01    0.3045064261640043E+01
    0.5000000000000000E+01    0.3508002863614053E+00    0.3428197553792836E+01
    0.5000000000000000E+01    0.5185680230613409E+00    0.4309693860063405E+01
    0.5000000000000000E+01    0.1738996113203182E+01    0.1827272193562204E+01
    0.5000000000000000E+01    0.1325493893339706E+01    0.2808563282768077E+01
    0.5000000000000000E+01   -0.8731419609589618E+00    0.1895995683864404E+01
    0.5000000000000000E+01    0.4906150219227333E-01    0.2273179336307740E+01
    0.0000000000000000E+00    0.1250000000000000E+01    0.5000000000000000E+01
    0.0000000000000000E+00    0.0000000000000000E+00    0.5000000000000000E+01
    0.0000000000000000E+00   -0.1250000000000000E+01    0.5000000000000000E+01
    0.0000000000000000E+00   -0.2500000000000000E+01    0.5000000000000000E+01
    0.1250000000000000E+01   -0.2500000000000000E+01    0.5000000000000000E+01
    0.2500000000000000E+01   -0.2500000000000000E+01    0.5000000000000000E+01
    0.3750000000000000E+01   -0.2500000000000000E+01    0.5000000000000000E+01
    0.4042003247744892E+01    0.1558308132739014E+01    0.5000000000000000E+01
    0.9304122287900499E+00   -0.1548001304379777E+01    0.5000000000000000E+01
    0.1037243024609388E+01    0.1462892710085612E+01    0.5000000000000000E+01
    0.3946240828834967E+01   -0.1445243809615570E+01    0.5000000000000000E+01
    0.4092527262848217E+01   -0.3455338993778935E+00    0.5000000000000000E+01
    0.4293103109154542E+01    0.6277660831404320E+00    0.5000000000000000E+01
    0.3241512314643519E+01    0.7429886854239611E+00    0.5000000000000000E+01
    0.2844289952419609E+01   -0.1588117879734118E+01    0.5000000000000000E+01
    0.7159905765450471E+00   -0.6002320124191652E+00    0.5000000000000000E+01
    0.1754341919796891E+01   -0.7398147869923652E+00    0.5000000000000000E+01
    0.1870296826774691E+01   -0.1788622905643739E+01    0.5000000000000000E+01
    0.9220614901912976E+00    0.3083720183248586E+00    0.5000000000000000E+01
    0.3101523624086016E+01    0.1777901774806180E+01    0.5000000000000000E+01
    0.2192512063922564E+01    0.1576861561598471E+01    0.5000000000000000E+01
    0.2024793420196460E+01    0.4773861992750707E+00    0.5000000000000000E+01
    0.2990627757741975E+01   -0.4878110785814084E+00    0.5000000000000000E+01
    0.0000000000000000E+00   -0.2500000000000000E+01    0.1250000000000000E+01
    0.0000000000000000E+00   -0.2500000000000000E+01    0.2500000000000000E+01
    0.0000000000000000E+00   -0.2500000000000000E+01    0.3750000000000000E+01
    0.0000000000000000E+00    0.1558308132739014E+01    0.4042003247744892E+01
    0.0000000000000000E+00   -0.1548001304379777E+01    0.9304122287900499E+00
    0.0000000000000000E+00    0.1462892710085612E+01    0.1037243024609388E+01
    0.0000000000000000E+00   -0.1445243809615570E+01    0.3946240828834967E+01
    0.0000000000000000E+00   -0.3455338993778935E+00    0.4092527262848217E+01
    0.0000000000000000E+00    0.6277660831404320E+00    0.4293103109154542E+01
    0.0000000000000000E+00    0.7429886854239611E+00    0.3241512314643519E+01
    0.0000000000000000E+00   -0.1588117879734118E+01    0.2844289952419609E+01
    0.0000000000000000E+00   -0.6002320124191652E+00    0.7159905765450471E+00
    0.0000000000000000E+00   -0.7398147869923652E+00    0.1754341919796891E+01
    0.0000000000000000E+00   -0.1788622905643739E+01    0.1870296826774691E+01
    0.0000000000000000E+00    0.3083720183248586E+00    0.9220614901912976E+00
    0.0000000000000000E+00    0.1777901774806180E+01    0.3101523624086016E+01
    0.0000000000000000E+00    0.1576861561598471E+01    0.2192512063922564E+01
[...]
POINT_DATA 213
SCALARS rho double 1
LOOKUP_TABLE default
   0.1344271449109578E+01
   0.9569758910994854E+00
   0.9462964168573518E+00
   0.9418612703972690E+00
   0.8437304861890839E+00
   0.7738004281107309E+00
   0.7629818876999784E+00
   0.7664577873972451E+00
   0.8307874027358978E+00
   0.9352972542399804E+00
   0.9342219808870453E+00
   0.9617195257889694E+00
   0.1449457448550119E+01
   0.1494090637346016E+01
   0.1644667265539183E+01
   0.1425832048720632E+01
   0.1009014433572615E+01
   0.9508810858446198E+00
   0.9436508476125719E+00
   0.9581561029980128E+00
   0.9415852461535134E+00
   0.1036377238914365E+01
   0.9256161085972143E+00
   0.9322349854612215E+00
   0.9537479567539667E+00
   0.9518769555430564E+00
   0.9348583123557441E+00
   0.9564028402654512E+00
   0.9376098372573902E+00
   0.9300661522096714E+00
   0.9445157477467405E+00
   0.8863506498864490E+00
   0.9423579951731603E+00
   0.9635003077570340E+00
   0.1008299039566921E+01
   0.1006735291818520E+01
   0.1001964617558372E+01
   0.1003219581457618E+01
   0.1004132053883424E+01
   0.1005228602864502E+01
   0.1004260408198962E+01
   0.1008308189878634E+01
   0.1023893137810052E+01
   0.1063553955894878E+01
   0.1019182513130453E+01
   0.1001780766368299E+01
   0.9643309934216086E+00
   0.1005283708898987E+01
   0.1000721163189932E+01
   0.1008742083704103E+01
   0.1008078083537563E+01
   0.1002349807027257E+01
   0.9979986847923996E+00
   0.1000583560866737E+01
   0.1001620123574701E+01
   0.9826893072877778E+00
   0.9842439641850756E+00
   0.9833314034466484E+00
   0.9788207406980085E+00
   0.9902638161050548E+00
   0.9934561552556946E+00
   0.1002011751622139E+01
   0.1002134465637071E+01
   0.1002276326501647E+01
   0.1001794758322983E+01
   0.1009778638883767E+01
   0.1006429109013300E+01
   0.9558786956420845E+00
   0.9249398404073549E+00
   0.1007036755521460E+01
   0.1004504925143985E+01
   0.9143642070738883E+00
   0.9089667854691960E+00
   0.8751688890221936E+00
   0.9767271883807870E+00
   0.1000452621072559E+01
   0.1005831087460530E+01
   0.1012882803283105E+01
   0.1011618951305026E+01
   0.1010438648631848E+01
   0.1005468280889993E+01
   0.9907612679776553E+00
   0.1005140325722799E+01
   0.9860567245071188E+00
   0.1005609737632874E+01
   0.1004248005662161E+01
   0.1002888437651285E+01
   0.1003345420397375E+01
   0.1003992731818062E+01
   0.1005101716092026E+01
   0.1003211645084344E+01
   0.1002663159916879E+01
   0.1002586231379737E+01
   0.1004060870881219E+01
   0.1004320345979632E+01
   0.1001641920335581E+01
   0.1002273115947792E+01
   0.1002543475556846E+01
   0.1003469520762756E+01
   0.1003372640205620E+01
   0.1003232229989533E+01
   0.1004423863381230E+01
   0.1004313070773225E+01
   0.1003659849345562E+01
   0.1003723103881289E+01
   0.1004329726369900E+01
   0.1004465021806813E+01
   0.1003623375276441E+01
   0.1064422800781931E+01
   0.1028473621179921E+01
   0.1009586657214528E+01
   0.1006638837399300E+01
   0.1163935521190859E+01
   0.1086087969657498E+01
   0.1007893419169416E+01
   0.1007245533213105E+01
   0.1006798074067146E+01
   0.1013018286823440E+01
   0.1019384609318177E+01
   0.1235203666986579E+01
   0.1032529466568681E+01
   0.1046681191270343E+01
   0.1200953640366502E+01
   0.1014718915916443E+01
   0.1032291153070315E+01
   0.1028095236494831E+01
   0.1014628639616802E+01
   0.1029216892918691E+01
   0.1001994816337314E+01
   0.9606929190247151E+00
   0.1006852582710946E+01
   0.1001327193249113E+01
   0.1010821905256878E+01
   0.1012246098761325E+01
   0.1000946006858190E+01
   0.9979121233907565E+00
   0.9980632372379604E+00
   0.1001184143317750E+01
   0.9841362010547171E+00
   0.9814879613868125E+00
   0.9648483316310145E+00
   0.9680877122636175E+00
   0.9914124471533117E+00
   0.9910858388441346E+00
   0.9925545095457602E+00
   0.1001727533823147E+01
   0.9993409401329892E+00
   0.9941410834452102E+00
   0.1007038753490006E+01
   0.1022539493998451E+01
   0.1001088098405883E+01
   0.1008798496159115E+01
   0.1004773846012030E+01
   0.1009050237348920E+01
   0.9966470331681264E+00
   0.1004988557778328E+01
   0.1003325535102086E+01
   0.9949431084791424E+00
   0.9832680781098053E+00
   0.9943957454847050E+00
   0.9973420655860420E+00
   0.9932190085481521E+00
   0.1001306487082533E+01
   0.1003001636877098E+01
   0.1002183579572085E+01
   0.9947078544937427E+00
   0.9937965521104352E+00
   0.1004867865445738E+01
   0.1020077607330330E+01
   0.1005364552322091E+01
   0.9816998151858289E+00
   0.1004973031157986E+01
   0.1012382323292561E+01
   0.9871424291060481E+00
   0.9551513531839536E+00
   0.9865075699182160E+00
   0.9864532949511632E+00
   0.9918946940977584E+00
   0.9933508197723911E+00
   0.9954406186101742E+00
   0.1037336789485552E+01
   0.1033536797443501E+01
   0.1001443320757780E+01
   0.1001930499694814E+01
   0.9912478515509832E+00
   0.9910920509020338E+00
   0.9648489987472767E+00
   0.9933282604339884E+00
   0.1006058638639113E+01
   0.1001954027103911E+01
   0.9908735804239083E+00
   0.9740945211789980E+00
   0.9418802133400458E+00
   0.9819379690034200E+00
   0.9794803559440872E+00
   0.9704172054253559E+00
   0.9720478942105176E+00
   0.9557351699437483E+00
   0.9496731209084360E+00
   0.9528673563666137E+00
   0.1002659533945460E+01
   0.1002471631868217E+01
   0.1000509329237191E+01
   0.1001677321717183E+01
   0.9607931427638651E+00
   0.9491625497383009E+00
   0.9584503062157625E+00
   0.1001121207691155E+01
   0.1000496140518138E+01
   0.1001156644128622E+01
   0.9807376183222487E+00
   0.9806000805866549E+00
   0.9628476100826320E+00
SCALARS u double 1
LOOKUP_TABLE default
   0.0000000000000000E+00
   0.0000000000000000E+00
   0.0000000000000000E+00
   0.0000000000000000E+00
   0.0000000000000000E+00
   0.0000000000000000E+00
   0.0000000000000000E+00
   0.0000000000000000E+00
   0.0000000000000000E+00
   0.0000000000000000E+00
   0.0000000000000000E+00
   0.0000000000000000E+00
   0.0000000000000000E+00
   0.0000000000000000E+00
   0.0000000000000000E+00
   0.0000000000000000E+00
   0.0000000000000000E+00
   0.0000000000000000E+00
   0.0000000000000000E+00
   0.0000000000000000E+00
   0.0000000000000000E+00
   0.0000000000000000E+00
   0.0000000000000000E+00
   0.0000000000000000E+00
   0.0000000000000000E+00
   0.0000000000000000E+00
   0.0000000000000000E+00
   0.0000000000000000E+00
   0.0000000000000000E+00
   0.0000000000000000E+00
   0.0000000000000000E+00
   0.0000000000000000E+00
   0.0000000000000000E+00
   0.4950176837584264E+00
   0.5338221298911084E+00
   0.5183269246715938E+00
   0.4930649880171911E+00
   0.4847578720462031E+00
   0.4867666425238184E+00
   0.4890763584822571E+00
   0.4957848881166756E+00
   0.4898301885106766E+00
   0.4717388495409253E+00
   0.4454814155516643E+00
   0.4833907048127449E+00
   0.5098397462667086E+00
   0.4390712704795321E+00
   0.4949403965849090E+00
   0.5225330362871836E+00
   0.4962454546810866E+00
   0.5226154964164914E+00
   0.5038881743886354E+00
   0.5646883608731919E+00
   0.5247509156925437E+00
   0.4991466120257779E+00
   0.5730561901972002E+00
   0.5696051097383510E+00
   0.3737941449823458E+00
   0.3998658125806476E+00
   0.5599326586906600E+00
   0.5564587630577976E+00
   0.4942627332816205E+00
   0.4948659465862784E+00
   0.4925735873913603E+00
   0.4914269544010353E+00
   0.5162356849950811E+00
   0.5361798304579858E+00
   0.4947413360333090E+00
   0.4524112209619488E+00
   0.5128777324852033E+00
   0.5117942040189798E+00
   0.4783517510423250E+00
   0.4931696662451545E+00
   0.4603173604292489E+00
   0.5244892722249738E+00
   0.5297434247976464E+00
   0.5129579300055055E+00
   0.5328358318384885E+00
   0.5308941035949825E+00
   0.5309856169224992E+00
   0.5063656734920017E+00
   0.5282461954320614E+00
   0.5410312729325962E+00
   0.5361261482709796E+00
   0.5374105276276825E+00
   0.4965364819317885E+00
   0.4975340904570573E+00
   0.4963842645239895E+00
   0.4955220268357636E+00
   0.4904581832404855E+00
   0.4903044386458728E+00
   0.4862182765173214E+00
   0.4854049561924972E+00
   0.4932164389128237E+00
   0.4909833313467541E+00
   0.4832194697248804E+00
   0.4872622777680743E+00
   0.4880124910064025E+00
   0.4872445932483609E+00
   0.4882696670630468E+00
   0.4952597557514400E+00
   0.4900967169177730E+00
   0.4904000091995916E+00
   0.4944232926635584E+00
   0.4868002481939098E+00
   0.4892385985088215E+00
   0.4881393370944712E+00
   0.4878457829921573E+00
   0.4446866581692517E+00
   0.4700028782421972E+00
   0.4891999057743691E+00
   0.4885247844859327E+00
   0.4506533049838634E+00
   0.4687378565990255E+00
   0.4877010458129195E+00
   0.4868353684802497E+00
   0.4908994717129451E+00
   0.4793551578286884E+00
   0.4658071749168159E+00
   0.3792725242002047E+00
   0.4901596530849849E+00
   0.4486686693141363E+00
   0.4436137400672416E+00
   0.4845147242506244E+00
   0.4621822647222524E+00
   0.4665749535701239E+00
   0.4748140301520740E+00
   0.4894494213677328E+00
   0.5085556973074545E+00
   0.4315073873984008E+00
   0.4927349362077009E+00
   0.5318289233391967E+00
   0.4913399197005918E+00
   0.5207019993096961E+00
   0.5060964599773726E+00
   0.5688797394420922E+00
   0.5273992817357094E+00
   0.5015044841762980E+00
   0.5821790086712495E+00
   0.5689618252748607E+00
   0.3406394443311871E+00
   0.3789869413042499E+00
   0.5751958205574120E+00
   0.5666485492176268E+00
   0.5704108782620523E+00
   0.5291056375616060E+00
   0.5451902710524168E+00
   0.5718804314431284E+00
   0.5389079125339390E+00
   0.5475507505361282E+00
   0.5821713869358831E+00
   0.4925601785025481E+00
   0.5042157546848238E+00
   0.4961735436863721E+00
   0.5565207962645895E+00
   0.4758845212551811E+00
   0.4950268384368957E+00
   0.5498525443226381E+00
   0.5891202297461529E+00
   0.5841957609301729E+00
   0.5469097664149600E+00
   0.5805417618046654E+00
   0.5106251438573179E+00
   0.5030200513529154E+00
   0.5033624680236973E+00
   0.5676446096007800E+00
   0.5563943082037700E+00
   0.4947255974026482E+00
   0.5505243827329183E+00
   0.5510857280107934E+00
   0.5657350949464978E+00
   0.4920070018656357E+00
   0.4927299097273719E+00
   0.3865140571477600E+00
   0.3687754535078939E+00
   0.5574921718443315E+00
   0.5763755545553204E+00
   0.4194304390916472E+00
   0.5824843241175071E+00
   0.4265209611706902E+00
   0.5392799842939228E+00
   0.5012032758832904E+00
   0.5119513208242219E+00
   0.5049119464109475E+00
   0.5751974973992401E+00
   0.5876371359668152E+00
   0.5379907807140372E+00
   0.5677472539871643E+00
   0.5351248665671043E+00
   0.5338056378827245E+00
   0.5580313797396649E+00
   0.5512707862509238E+00
   0.4261852757748821E+00
   0.5273356178498908E+00
   0.5795712530067688E+00
   0.3318687135926386E+00
   0.4760283324985797E+00
   0.5446196256261400E+00
   0.4798331902335017E+00
   0.3005293509760941E+00
   0.5031051138439587E+00
   0.5017115978152269E+00
   0.5129033210790452E+00
   0.5414840107978062E+00
   0.3437603856172259E+00
   0.3397710720611420E+00
   0.3189928570790143E+00
   0.5065936052164924E+00
   0.5123483779627339E+00
   0.5330313519112563E+00
   0.5879309999527353E+00
   0.4644180533274830E+00
   0.3531270511837996E+00
SCALARS v double 1
LOOKUP_TABLE default
   0.0000000000000000E+00
   0.0000000000000000E+00
   0.0000000000000000E+00
   0.0000000000000000E+00
   0.0000000000000000E+00
   0.0000000000000000E+00
   0.0000000000000000E+00
   0.0000000000000000E+00
   0.0000000000000000E+00
   0.0000000000000000E+00
   0.0000000000000000E+00
   0.0000000000000000E+00
   0.0000000000000000E+00
   0.0000000000000000E+00
   0.0000000000000000E+00
   0.0000000000000000E+00
   0.0000000000000000E+00
   0.0000000000000000E+00
   0.0000000000000000E+00
   0.0000000000000000E+00
   0.0000000000000000E+00
   0.0000000000000000E+00
   0.0000000000000000E+00
   0.0000000000000000E+00
   0.0000000000000000E+00
   0.0000000000000000E+00
   0.0000000000000000E+00
   0.0000000000000000E+00
   0.0000000000000000E+00
   0.0000000000000000E+00
   0.0000000000000000E+00
   0.0000000000000000E+00
   0.0000000000000000E+00
   0.0000000000000000E+00
   0.0000000000000000E+00
   0.0000000000000000E+00
   0.0000000000000000E+00
   0.0000000000000000E+00
   0.0000000000000000E+00
   0.0000000000000000E+00
   0.0000000000000000E+00
   0.0000000000000000E+00
   0.0000000000000000E+00
   0.0000000000000000E+00
   0.0000000000000000E+00
   0.0000000000000000E+00
   0.0000000000000000E+00
   0.0000000000000000E+00
   0.0000000000000000E+00
   0.0000000000000000E+00
   0.0000000000000000E+00
   0.0000000000000000E+00
   0.0000000000000000E+00
   0.0000000000000000E+00
   0.0000000000000000E+00
   0.0000000000000000E+00
   0.0000000000000000E+00
   0.0000000000000000E+00
   0.0000000000000000E+00
   0.0000000000000000E+00
   0.0000000000000000E+00
   0.7970254267950699E-03
  -0.1329294715831158E-02
  -0.1332592767418576E-02
   0.0000000000000000E+00
   0.0000000000000000E+00
   0.0000000000000000E+00
   0.0000000000000000E+00
  -0.1922562565131936E-01
   0.4770618089167254E-03
   0.2183360152325346E-02
   0.1427333030140057E-01
  -0.6488282062003268E-02
  -0.7821622992197682E-02
  -0.1327725058733737E-01
   0.4914481807997715E-02
   0.6907121788531405E-03
   0.3434418427713255E-02
   0.1920847384971733E-02
   0.3147960206625600E-02
   0.1704778346304239E-02
  -0.7316187363562906E-02
  -0.7701904268698488E-04
   0.4468738064454390E-02
  -0.4387156507524469E-03
  -0.6383742247429588E-04
  -0.1963394574800946E-03
   0.8071267923220470E-03
   0.0000000000000000E+00
   0.0000000000000000E+00
   0.0000000000000000E+00
   0.0000000000000000E+00
   0.4257019992471802E-03
   0.1616304627228111E-02
  -0.1297550945731467E-02
  -0.1022774987271479E-02
  -0.2134342431374879E-02
  -0.1064012688247398E-02
  -0.8200064520753748E-03
  -0.7617033244899710E-03
   0.5202258308228190E-04
  -0.6244091980064766E-03
   0.7916469162243034E-03
  -0.1745238508383944E-02
   0.2747128484681576E-03
  -0.8939748645959947E-04
  -0.9424310251170842E-03
  -0.1100227553724091E-02
   0.0000000000000000E+00
   0.0000000000000000E+00
   0.0000000000000000E+00
  -0.1061759098284968E-02
  -0.7641128536394713E-02
   0.1860854720518591E-01
  -0.2834553307504462E-04
  -0.1383129143918129E-02
  -0.2035122956866337E-02
  -0.5666383167346116E-02
  -0.1585210166583821E-02
  -0.5947016178081890E-02
  -0.4160601809748579E-02
   0.1565614859161841E-02
   0.3329524773954224E-01
   0.3055141261670169E-04
  -0.2766884913519752E-02
   0.3566484586002421E-02
   0.3596189405543350E-03
   0.0000000000000000E+00
   0.0000000000000000E+00
   0.0000000000000000E+00
   0.0000000000000000E+00
   0.0000000000000000E+00
   0.0000000000000000E+00
   0.0000000000000000E+00
   0.0000000000000000E+00
   0.0000000000000000E+00
   0.0000000000000000E+00
   0.0000000000000000E+00
   0.0000000000000000E+00
   0.0000000000000000E+00
   0.0000000000000000E+00
   0.0000000000000000E+00
   0.0000000000000000E+00
   0.0000000000000000E+00
   0.5047032532255338E-02
   0.3230791932889138E-02
   0.8149134206432021E-02
   0.6168366927341818E-02
   0.1122928626221422E-01
   0.1429277480983488E-01
  -0.2038827212234448E-03
   0.5118221791794433E-02
   0.2914950517913814E-02
   0.3373611792573635E-02
   0.3728336362956742E-02
  -0.1465719870913379E-01
  -0.6159699862660541E-03
   0.6651630308630692E-02
   0.1542014265602198E-02
   0.1969646520061617E-02
   0.4266273500894210E-02
  -0.2790960975702590E-02
   0.1226887043052043E-02
   0.2819172457659606E-02
   0.1497449134607366E-02
   0.2575339024407028E-02
   0.2030646426318281E-02
   0.2118046043606351E-02
   0.8700410436968047E-02
  -0.3733396943106093E-02
   0.6241189084606008E-02
   0.2516488610738733E-04
  -0.3854044697505036E-03
  -0.1674679002003142E-01
  -0.4881976867554926E-02
  -0.4720000812871226E-02
   0.3445223047602774E-02
  -0.6135724046224677E-02
   0.9934520304509305E-04
  -0.3291372933541924E-01
  -0.3046196628409055E-02
   0.4722743276433871E-02
   0.9228367693332785E-03
   0.2112175212910979E-02
   0.4518755685373204E-02
   0.2720465281042190E-02
   0.3212576518321461E-02
   0.5200804227158381E-02
   0.1941838967165852E-02
   0.7315897387619554E-03
  -0.2555238460025175E-04
  -0.5374632793864231E-02
  -0.6959590987890132E-02
  -0.9443815742719672E-03
   0.1105268413417899E-02
  -0.2080554095840210E-02
  -0.3200035964809356E-02
  -0.2527833351883197E-02
  -0.4115193566757706E-02
  -0.7593954910970301E-02
  -0.1985686386273194E-02
   0.6240402725049161E-03
  -0.2239081907243510E-03
   0.1216949752340213E-02
  -0.3483958232654695E-02
   0.5229139994452367E-02
  -0.8487626056548818E-02
   0.2315169980957156E-04
  -0.3395192861401739E-03
   0.2542663534444864E-02
   0.1663457689655858E-02
   0.2021438702231357E-02
  -0.5620783926791541E-02
SCALARS w double 1
LOOKUP_TABLE default
   0.0000000000000000E+00
   0.0000000000000000E+00
   0.0000000000000000E+00
   0.0000000000000000E+00
   0.0000000000000000E+00
   0.0000000000000000E+00
   0.0000000000000000E+00
   0.0000000000000000E+00
   0.0000000000000000E+00
   0.0000000000000000E+00
   0.0000000000000000E+00
   0.0000000000000000E+00
   0.0000000000000000E+00
   0.0000000000000000E+00
   0.0000000000000000E+00
   0.0000000000000000E+00
   0.0000000000000000E+00
   0.0000000000000000E+00
   0.0000000000000000E+00
   0.0000000000000000E+00
   0.0000000000000000E+00
   0.0000000000000000E+00
   0.0000000000000000E+00
   0.0000000000000000E+00
   0.0000000000000000E+00
   0.0000000000000000E+00
   0.0000000000000000E+00
   0.0000000000000000E+00
   0.0000000000000000E+00
   0.0000000000000000E+00
   0.0000000000000000E+00
   0.0000000000000000E+00
   0.0000000000000000E+00
  -0.1007612293689176E+00
  -0.4249297141942851E-01
   0.7371986378363601E-03
   0.5725799909103529E-02
   0.5699057292882588E-03
   0.1609783090544527E-02
   0.3375073003706040E-02
   0.2371773631791115E-02
   0.4590624744403599E-03
   0.3518225876246147E-02
   0.4521817582369218E-01
   0.6522937828284596E-01
   0.8689297008642549E-03
  -0.2261151849229821E-01
   0.4316553515557585E-02
   0.1358734837393592E-01
   0.1039452551027463E-01
   0.4900548410672990E-01
   0.2437443507277115E-02
  -0.6509941083621813E-02
  -0.7012227358463481E-03
   0.3411016348005511E-03
   0.3904107389178453E-02
  -0.3893254316101553E-01
   0.1798168110010119E-01
   0.1119638189943588E-01
   0.3403773261514591E-01
   0.8438810245519948E-02
   0.4937312239145918E-02
   0.4970345538527744E-02
   0.4871517370704104E-02
   0.6027191685272598E-02
   0.2599191712223787E-02
  -0.4144429607451357E-01
  -0.9954261890090096E-01
  -0.1121678225951891E+00
   0.5070874982884476E-02
   0.4230770699448163E-02
  -0.1004732309039094E+00
  -0.9895252567111709E-01
  -0.9875451022988005E-01
  -0.9462509650687198E-01
  -0.6807133844725598E-01
   0.5154922137974009E-02
  -0.1935330759140184E-01
  -0.1575800301257545E-01
  -0.6002862448935082E-02
   0.6819057359154750E-02
  -0.8010050833763709E-01
  -0.2781092464833560E-01
  -0.8096457381498091E-01
  -0.5873277580283804E-01
   0.3083625666699058E-02
   0.2685146445661498E-02
   0.2640431161829270E-02
   0.3450191899984898E-02
   0.4007083763606355E-02
   0.1201214298481584E-02
  -0.1438846528649358E-03
   0.2039877255198282E-02
   0.4895693587296837E-02
   0.3857385576312825E-02
   0.1114201922420057E-02
   0.1182682004851464E-02
   0.1465296214213996E-02
  -0.1653640730366480E-04
   0.8996623247951915E-04
   0.4386667843513618E-02
   0.2715724223265048E-02
   0.2322755277461764E-02
   0.5010601018968389E-02
   0.1071689320232702E-02
   0.2712217699967351E-02
   0.2013964071817166E-02
   0.2879084012839366E-04
   0.8374614315983467E-01
   0.2793870711519206E-02
  -0.8346628094365566E-03
  -0.1492945456331722E-03
   0.1409540839876473E+00
   0.1239332957229837E+00
  -0.1219093306088755E-02
  -0.4381936062357570E-02
  -0.3043057778535295E-03
  -0.6512246793982691E-02
  -0.1949570344036174E-02
   0.1557630961976141E+00
   0.7489979138688553E-01
   0.2550174902941814E-01
   0.1656445110097905E+00