# vtk DataFile Version 2.0
FUN3D:global_image_vtk
ASCII
DATASET UNSTRUCTURED_GRID
POINTS 213 double
    0.0000000000000000E+00    0.2500000000000000E+01    0.0000000000000000E+00
    0.1250000000000000E+01    0.2500000000000000E+01    0.0000000000000000E+00
    0.2500000000000000E+01    0.2500000000000000E+01    0.0000000000000000E+00
    0.3750000000000000E+01    0.2500000000000000E+01    0.0000000000000000E+00
    0.5000000000000000E+01    0.2500000000000000E+01    0.0000000000000000E+00
    0.5000000000000000E+01    0.1250000000000000E+01    0.0000000000000000E+00
    0.5000000000000000E+01    0.0000000000000000E+00    0.0000000000000000E+00
    0.5000000000000000E+01   -0.1250000000000000E+01    0.0000000000000000E+00
    0.5000000000000000E+01   -0.2500000000000000E+01    0.0000000000000000E+00
    0.3750000000000000E+01   -0.2500000000000000E+01    0.0000000000000000E+00
    0.2500000000000000E+01   -0.2500000000000000E+01    0.0000000000000000E+00
    0.1250000000000000E+01   -0.2500000000000000E+01    0.0000000000000000E+00
    0.0000000000000000E+00   -0.2500000000000000E+01    0.0000000000000000E+00
    0.0000000000000000E+00   -0.1250000000000000E+01    0.0000000000000000E+00
    0.0000000000000000E+00    0.0000000000000000E+00    0.0000000000000000E+00
    0.0000000000000000E+00    0.1250000000000000E+01    0.0000000000000000E+00
    0.9058375365086910E+00    0.1578994732800803E+01    0.0000000000000000E+00
    0.3982050490726493E+01   -0.1583989954232354E+01    0.0000000000000000E+00
    0.4033849428301197E+01    0.1453322699199022E+01    0.0000000000000000E+00
    0.1040505887381675E+01   -0.1479596339503735E+01    0.0000000000000000E+00
    0.1099454400140349E+01   -0.3227322616384110E+00    0.0000000000000000E+00
    0.7354504170366591E+00    0.6593508822075582E+00    0.0000000000000000E+00
    0.1622302608453282E+01    0.8256214013940779E+00    0.0000000000000000E+00
    0.2145871574390382E+01   -0.1650070333782557E+01    0.0000000000000000E+00
    0.4086422318222992E+01   -0.4612828702537229E+00    0.0000000000000000E+00
    0.2979540174134984E+01   -0.8579242121530853E+00    0.0000000000000000E+00
    0.3045064261640043E+01   -0.1836846154397680E+01    0.0000000000000000E+00
    0.3428197553792836E+01    0.3508002863614053E+00    0.0000000000000000E+00
    0.4309693860063405E+01    0.5185680230613409E+00    0.0000000000000000E+00
    0.1827272193562204E+01    0.1738996113203182E+01    0.0000000000000000E+00
    0.2808563282768077E+01    0.1325493893339706E+01    0.0000000000000000E+00
    0.1895995683864404E+01   -0.8731419609589618E+00    0.0000000000000000E+00
    0.2273179336307740E+01    0.4906150219227333E-01    0.0000000000000000E+00
    0.5000000000000000E+01    0.2500000000000000E+01    0.1250000000000000E+01
    0.5000000000000000E+01    0.2500000000000000E+01    0.2500000000000000E+01
    0.5000000000000000E+01    0.2500000000000000E+01    0.3750000000000000E+01
    0.5000000000000000E+01    0.2500000000000000E+01    0.5000000000000000E+01
    0.3750000000000000E+01    0.2500000000000000E+01    0.5000000000000000E+01
    0.2500000000000000E+01    0.2500000000000000E+01    0.5000000000000000E+01
    0.1250000000000000E+01    0.2500000000000000E+01    0.5000000000000000E+01
    0.0000000000000000E+00    0.2500000000000000E+01    0.5000000000000000E+01
    0.0000000000000000E+00    0.2500000000000000E+01    0.3750000000000000E+01
    0.0000000000000000E+00    0.2500000000000000E+01    0.2500000000000000E+01
    0.0000000000000000E+00    0.2500000000000000E+01    0.1250000000000000E+01
    0.9631080833812172E+00    0.2500000000000000E+01    0.9613285771248219E+00
    0.3981732467264904E+01    0.2500000000000000E+01    0.4069753913607991E+01
    0.4035525118777670E+01    0.2500000000000000E+01    0.1012015867579395E+01
    0.9641717640894248E+00    0.2500000000000000E+01    0.3972455192261839E+01
    0.1547743040396780E+01    0.2500000000000000E+01    0.2928177746738678E+01
    0.6985170616192014E+00    0.2500000000000000E+01    0.3068281976055466E+01
    0.8931277594515110E+00    0.2500000000000000E+01    0.2052465503257726E+01
    0.2183293750162785E+01    0.2500000000000000E+01    0.3959073795658649E+01
    0.3855333506014705E+01    0.2500000000000000E+01    0.2931218481500625E+01
    0.3152495579421047E+01    0.2500000000000000E+01    0.3635850502723324E+01
    0.3103247580566054E+01    0.2500000000000000E+01    0.4331682712472464E+01
    0.3266837581688852E+01    0.2500000000000000E+01    0.1886092433583972E+01
    0.4231539241296245E+01    0.2500000000000000E+01    0.1915865356532799E+01
    0.1909741006522088E+01    0.2500000000000000E+01    0.7170024419130505E+00
    0.2880784107213163E+01    0.2500000000000000E+01    0.9046598906449592E+00
    0.2014316024535771E+01    0.2500000000000000E+01    0.1762464314805728E+01
    0.2670003247036656E+01    0.2500000000000000E+01    0.2850479545835163E+01
    0.5000000000000000E+01    0.1250000000000000E+01    0.5000000000000000E+01
    0.5000000000000000E+01    0.0000000000000000E+00    0.5000000000000000E+01
    0.5000000000000000E+01   -0.1250000000000000E+01    0.5000000000000000E+01
    0.5000000000000000E+01   -0.2500000000000000E+01    0.5000000000000000E+01
    0.5000000000000000E+01   -0.2500000000000000E+01    0.3750000000000000E+01
    0.5000000000000000E+01   -0.2500000000000000E+01    0.2500000000000000E+01
    0.5000000000000000E+01   -0.2500000000000000E+01    0.1250000000000000E+01
    0.5000000000000000E+01    0.1578994732800803E+01    0.9058375365086910E+00
    0.5000000000000000E+01   -0.1583989954232354E+01    0.3982050490726493E+01
    0.5000000000000000E+01    0.1453322699199022E+01    0.4033849428301197E+01
    0.5000000000000000E+01   -0.1479596339503735E+01    0.1040505887381675E+01
    0.5000000000000000E+01   -0.3227322616384110E+00    0.1099454400140349E+01
    0.5000000000000000E+01    0.6593508822075582E+00    0.7354504170366591E+00
    0.5000000000000000E+01    0.8256214013940779E+00    0.1622302608453282E+01
    0.5000000000000000E+01   -0.1650070333782557E+01    0.2145871574390382E+01
    0.5000000000000000E+01   -0.4612828702537229E+00    0.4086422318222992E+01
    0.5000000000000000E+01   -0.8579242121530853E+00    0.2979540174134984E+01
    0.5000000000000000E+01   -0.1836846154397680E+01    0.3045064261640043E+01
    0.5000000000000000E+01    0.3508002863614053E+00    0.3428197553792836E+01
    0.5000000000000000E+01    0.5185680230613409E+00    0.4309693860063405E+01
    0.5000000000000000E+01    0.1738996113203182E+01    0.1827272193562204E+01
    0.5000000000000000E+01    0.1325493893339706E+01    0.2808563282768077E+01
    0.5000000000000000E+01   -0.8731419609589618E+00    0.1895995683864404E+01
    0.5000000000000000E+01    0.4906150219227333E-01    0.2273179336307740E+01
    0.0000000000000000E+00    0.1250000000000000E+01    0.5000000000000000E+01
    0.0000000000000000E+00    0.0000000000000000E+00    0.5000000000000000E+01
    0.0000000000000000E+00   -0.1250000000000000E+01    0.5000000000000000E+01
    0.0000000000000000E+00   -0.2500000000000000E+01    0.5000000000000000E+01
    0.1250000000000000E+01   -0.2500000000000000E+01    0.5000000000000000E+01
    0.2500000000000000E+01   -0.2500000000000000E+01    0.5000000000000000E+01
    0.3750000000000000E+01   -0.2500000000000000E+01    0.5000000000000000E+01
    0.4042003247744892E+01    0.1558308132739014E+01    0.5000000000000000E+01
    0.9304122287900499E+00   -0.1548001304379777E+01    0.5000000000000000E+01
    0.1037243024609388E+01    0.1462892710085612E+01    0.5000000000000000E+01
    0.3946240828834967E+01   -0.1445243809615570E+01    0.5000000000000000E+01
    0.4092527262848217E+01   -0.3455338993778935E+00    0.5000000000000000E+01
    0.4293103109154542E+01    0.6277660831404320E+00    0.5000000000000000E+01
    0.3241512314643519E+01    0.7429886854239611E+00    0.5000000000000000E+01
    0.2844289952419609E+01   -0.1588117879734118E+01    0.5000000000000000E+01
    0.7159905765450471E+00   -0.6002320124191652E+00    0.5000000000000000E+01
    0.1754341919796891E+01   -0.7398147869923652E+00    0.5000000000000000E+01
    0.1870296826774691E+01   -0.1788622905643739E+01    0.5000000000000000E+01
    0.9220614901912976E+00    0.3083720183248586E+00    0.5000000000000000E+01
    0.3101523624086016E+01    0.1777901774806180E+01    0.5000000000000000E+01
    0.2192512063922564E+01    0.1576861561598471E+01    0.5000000000000000E+01
    0.2024793420196460E+01    0.4773861992750707E+00    0.5000000000000000E+01
    0.2990627757741975E+01   -0.4878110785814084E+00    0.5000000000000000E+01
    0.0000000000000000E+00   -0.2500000000000000E+01    0.1250000000000000E+01
    0.0000000000000000E+00   -0.2500000000000000E+01    0.2500000000000000E+01
    0.0000000000000000E+00   -0.2500000000000000E+01    0.3750000000000000E+01
    0.0000000000000000E+00    0.1558308132739014E+01    0.4042003247744892E+01
    0.0000000000000000E+00   -0.1548001304379777E+01    0.9304122287900499E+00
    0.0000000000000000E+00    0.1462892710085612E+01    0.1037243024609388E+01
    0.0000000000000000E+00   -0.1445243809615570E+01    0.3946240828834967E+01
    0.0000000000000000E+00   -0.3455338993778935E+00    0.4092527262848217E+01
    0.0000000000000000E+00    0.6277660831404320E+00    0.4293103109154542E+01
    0.0000000000000000E+00    0.7429886854239611E+00    0.3241512314643519E+01
    0.0000000000000000E+00   -0.1588117879734118E+01    0.2844289952419609E+01
    0.0000000000000000E+00   -0.6002320124191652E+00    0.7159905765450471E+00
    0.0000000000000000E+00   -0.7398147869923652E+00    0.1754341919796891E+01
    0.0000000000000000E+00   -0.1788622905643739E+01    0.1870296826774691E+01
    0.0000000000000000E+00    0.3083720183248586E+00    0.9220614901912976E+00
    0.0000000000000000E+00    0.1777901774806180E+01    0.3101523624086016E+01
    0.0000000000000000E+00    0.1576861561598471E+01    0.2192512063922564E+01
[...]
POINT_DATA 213
SCALARS rho double 1
LOOKUP_TABLE default
   0.1344271206729704E+01
   0.9569753653171436E+00
   0.9462958467115336E+00
   0.9418607937055217E+00
   0.8437304665617430E+00
   0.7737999612325135E+00
   0.7629813024646981E+00
   0.7664566212070171E+00
   0.8307870625397812E+00
   0.9352971442742937E+00
   0.9342214703231938E+00
   0.9617188884246116E+00
   0.1449457019843602E+01
   0.1494090137098591E+01
   0.1644666866549731E+01
   0.1425831825165307E+01
   0.1009013941607003E+01
   0.9508806802698893E+00
   0.9436506545468382E+00
   0.9581556333231172E+00
   0.9415847364572520E+00
   0.1036376812859127E+01
   0.9256155191545757E+00
   0.9322343745962294E+00
   0.9537476559616134E+00
   0.9518766704863205E+00
   0.9348579446097272E+00
   0.9564026834027467E+00
   0.9376096233556706E+00
   0.9300655880844354E+00
   0.9445152924133107E+00
   0.8863500462860364E+00
   0.9423576191015590E+00
   0.9635049392220015E+00
   0.1008297547054640E+01
   0.1006736524549249E+01
   0.1001962597745005E+01
   0.1003217541992313E+01
   0.1004131523230106E+01
   0.1005228017036127E+01
   0.1004260078613627E+01
   0.1008307819657429E+01
   0.1023892679711142E+01
   0.1063553379296890E+01
   0.1019182198698498E+01
   0.1001781828162714E+01
   0.9643370746032423E+00
   0.1005283223664520E+01
   0.1000720594751428E+01
   0.1008741628383901E+01
   0.1008077615346108E+01
   0.1002349080974449E+01
   0.9979976478146948E+00
   0.1000582805734294E+01
   0.1001619700007140E+01
   0.9826888155515200E+00
   0.9842444302573998E+00
   0.9833309158703133E+00
   0.9788228460518047E+00
   0.9902631160440563E+00
   0.9934556333344372E+00
   0.1002008567421677E+01
   0.1002131937622040E+01
   0.1002273868400960E+01
   0.1001792588398718E+01
   0.1009780380596033E+01
   0.1006428770896871E+01
   0.9558785328325612E+00
   0.9249414595475430E+00
   0.1007037222699292E+01
   0.1004506706945123E+01
   0.9143642030726687E+00
   0.9089674245794268E+00
   0.8751689913658054E+00
   0.9767263160467341E+00
   0.1000451720919981E+01
   0.1005832110595436E+01
   0.1012882859616366E+01
   0.1011619456472240E+01
   0.1010439651497220E+01
   0.1005469850608378E+01
   0.9907607347596796E+00
   0.1005139244685388E+01
   0.9860561063932198E+00
   0.1005608731435315E+01
   0.1004247665067707E+01
   0.1002888227842598E+01
   0.1003345233655900E+01
   0.1003992934842995E+01
   0.1005101252114758E+01
   0.1003211245497442E+01
   0.1002660999937321E+01
   0.1002582352517613E+01
   0.1004060478861448E+01
   0.1004319750320865E+01
   0.1001639798428007E+01
   0.1002269923847037E+01
   0.1002539698951356E+01
   0.1003467879665106E+01
   0.1003371755041241E+01
   0.1003231840557795E+01
   0.1004423355973869E+01
   0.1004312869567366E+01
   0.1003659577352717E+01
   0.1003722447099003E+01
   0.1004328701762871E+01
   0.1004464189765836E+01
   0.1003622266390921E+01
   0.1064422805998365E+01
   0.1028473136579277E+01
   0.1009586336753686E+01
   0.1006638479276255E+01
   0.1163935046737823E+01
   0.1086087624390931E+01
   0.1007893018325704E+01
   0.1007245102698469E+01
   0.1006797771213844E+01
   0.1013017832572300E+01
   0.1019384062779411E+01
   0.1235203387567549E+01
   0.1032529209975312E+01
   0.1046680597857608E+01
   0.1200953382734028E+01
   0.1014718475774810E+01
   0.1032290601926564E+01
   0.1028094682736548E+01
   0.1014628089882569E+01
   0.1029216449662335E+01
   0.1001995313614977E+01
   0.9606935926297072E+00
   0.1006852001645258E+01
   0.1001326718752209E+01
   0.1010821283723480E+01
   0.1012245682321450E+01
   0.1000945521220326E+01
   0.9979118584883512E+00
   0.9980626117897894E+00
   0.1001183410890224E+01
   0.9841357043057715E+00
   0.9814876451970136E+00
   0.9648480950863335E+00
   0.9680872729403311E+00
   0.9914121515334493E+00
   0.9910855268913793E+00
   0.9925540310194361E+00
   0.1001726950768344E+01
   0.9993404000049416E+00
   0.9941406545438610E+00
   0.1007038267300324E+01
   0.1022539075248380E+01
   0.1001087798862200E+01
   0.1008797957795449E+01
   0.1004773313193291E+01
   0.1009049752625529E+01
   0.9966466435487701E+00
   0.1004988210196385E+01
   0.1003325054040663E+01
   0.9949426557258173E+00
   0.9832678209226730E+00
   0.9943951203882997E+00
   0.9973415609186546E+00
   0.9932183039427740E+00
   0.1001305687182632E+01
   0.1003001012556519E+01
   0.1002183019048249E+01
   0.9947076970076536E+00
   0.9937961218508089E+00
   0.1004867357007051E+01
   0.1020077193887426E+01
   0.1005364189521478E+01
   0.9816994965797392E+00
   0.1004972507160717E+01
   0.1012381721909443E+01
   0.9871421273065183E+00
   0.9551509552526718E+00
   0.9865071476819336E+00
   0.9864529267635013E+00
   0.9918942183006135E+00
   0.9933504725930755E+00
   0.9954401739630279E+00
   0.1037336480877216E+01
   0.1033536384915863E+01
   0.1001443721264270E+01
   0.1001929834913422E+01
   0.9912472976395892E+00
   0.9910915033028640E+00
   0.9648483299474109E+00
   0.9933277824497092E+00
   0.1006058688397005E+01
   0.1001953965960338E+01
   0.9908730288316743E+00
   0.9740944808420688E+00
   0.9418804192212237E+00
   0.9819375025980474E+00
   0.9794798828186300E+00
   0.9704169885829327E+00
   0.9720473134465892E+00
   0.9557349863397326E+00
   0.9496732346809112E+00
   0.9528674734119661E+00
   0.1002658943296276E+01
   0.1002470941032252E+01
   0.1000509066257538E+01
   0.1001677410831345E+01
   0.9607925481698930E+00
   0.9491634577073246E+00
   0.9584505325780682E+00
   0.1001120983740484E+01
   0.1000495893865596E+01
   0.1001156198446532E+01
   0.9807373265382234E+00
   0.9805995710912504E+00
   0.9628478412516421E+00
SCALARS u double 1
LOOKUP_TABLE default
   0.0000000000000000E+00
   0.0000000000000000E+00
   0.0000000000000000E+00
   0.0000000000000000E+00
   0.0000000000000000E+00
   0.0000000000000000E+00
   0.0000000000000000E+00
   0.0000000000000000E+00
   0.0000000000000000E+00
   0.0000000000000000E+00
   0.0000000000000000E+00
   0.0000000000000000E+00
   0.0000000000000000E+00
   0.0000000000000000E+00
   0.0000000000000000E+00
   0.0000000000000000E+00
   0.0000000000000000E+00
   0.0000000000000000E+00
   0.0000000000000000E+00
   0.0000000000000000E+00
   0.0000000000000000E+00
   0.0000000000000000E+00
   0.0000000000000000E+00
   0.0000000000000000E+00
   0.0000000000000000E+00
   0.0000000000000000E+00
   0.0000000000000000E+00
   0.0000000000000000E+00
   0.0000000000000000E+00
   0.0000000000000000E+00
   0.0000000000000000E+00
   0.0000000000000000E+00
   0.0000000000000000E+00
   0.4950110138982782E+00
   0.5338225451121298E+00
   0.5183272201529463E+00
   0.4930668744955665E+00
   0.4847615484185339E+00
   0.4867708651751576E+00
   0.4890781398851822E+00
   0.4957852387005587E+00
   0.4898308253141648E+00
   0.4717392715971142E+00
   0.4454820092553660E+00
   0.4833909692939522E+00
   0.5098448340113231E+00
   0.4390689334593252E+00
   0.4949406632066866E+00
   0.5225336460996423E+00
   0.4962460560109745E+00
   0.5226160335497796E+00
   0.5038889834254875E+00
   0.5646883773955732E+00
   0.5247516907101651E+00
   0.4991503247911688E+00
   0.5730562760359151E+00
   0.5696032649170093E+00
   0.3737941480427791E+00
   0.3998649567194957E+00
   0.5599333490165378E+00
   0.5564591911540364E+00
   0.4942646007863606E+00
   0.4948669616749810E+00
   0.4925722795665018E+00
   0.4914259436623602E+00
   0.5162367827423020E+00
   0.5361799213492079E+00
   0.4947403936142337E+00
   0.4524087684605336E+00
   0.5128784556709645E+00
   0.5117944342943856E+00
   0.4783506589249755E+00
   0.4931686305585429E+00
   0.4603167341104046E+00
   0.5244892853319959E+00
   0.5297435781834702E+00
   0.5129577278155876E+00
   0.5328357021342809E+00
   0.5308945472255547E+00
   0.5309850996716804E+00
   0.5063656844830008E+00
   0.5282454138388760E+00
   0.5410314680969427E+00
   0.5361259217538794E+00
   0.5374106355603054E+00
   0.4965368167079057E+00
   0.4975343343025404E+00
   0.4963843264216216E+00
   0.4955221094621651E+00
   0.4904588021333837E+00
   0.4903057946976498E+00
   0.4862158702835345E+00
   0.4854072200764888E+00
   0.4932172235240130E+00
   0.4909844513689336E+00
   0.4832164991536305E+00
   0.4872625899096994E+00
   0.4880148003154456E+00
   0.4872477242704578E+00
   0.4882690328425311E+00
   0.4952602390631297E+00
   0.4900976088714418E+00
   0.4904008967146913E+00
   0.4944239626495148E+00
   0.4868046651821191E+00
   0.4892409163018718E+00
   0.4881405475964823E+00
   0.4878464083354722E+00
   0.4446864135183770E+00
   0.4700033912937174E+00
   0.4892002186409607E+00
   0.4885244055803533E+00
   0.4506542233783711E+00
   0.4687377380848202E+00
   0.4877011041135891E+00
   0.4868355580766593E+00
   0.4908993812168245E+00
   0.4793557144684487E+00
   0.4658078894515026E+00
   0.3792728859151400E+00
   0.4901597507372135E+00
   0.4486692407938153E+00
   0.4436142185393115E+00
   0.4845151869795091E+00
   0.4621829422424431E+00
   0.4665756932170116E+00
   0.4748147316815354E+00
   0.4894497513194614E+00
   0.5085609645211993E+00
   0.4315071847944166E+00
   0.4927356291619959E+00
   0.5318295951896008E+00
   0.4913405853495207E+00
   0.5207023235292453E+00
   0.5060988232703576E+00
   0.5688805978020856E+00
   0.5274018789101148E+00
   0.5015077355203392E+00
   0.5821787294170991E+00
   0.5689608800957299E+00
   0.3406396586611350E+00
   0.3789867446749448E+00
   0.5751961258984570E+00
   0.5666490233496990E+00
   0.5704107661329412E+00
   0.5291061772930611E+00
   0.5451907103874627E+00
   0.5718807983470018E+00
   0.5389084366049608E+00
   0.5475510982396334E+00
   0.5821718716990185E+00
   0.4925606394063650E+00
   0.5042161174988119E+00
   0.4961740395282906E+00
   0.5565212879402841E+00
   0.4758848613535568E+00
   0.4950282846302222E+00
   0.5498526890559301E+00
   0.5891201066861947E+00
   0.5841957167492384E+00
   0.5469100835791617E+00
   0.5805414046465593E+00
   0.5106265300972355E+00
   0.5030213710551601E+00
   0.5033662723928801E+00
   0.5676438117501670E+00
   0.5563948696721113E+00
   0.4947260785726793E+00
   0.5505248453914054E+00
   0.5510860369497108E+00
   0.5657353192190222E+00
   0.4920076891633457E+00
   0.4927303928313120E+00
   0.3865146828178446E+00
   0.3687760129745913E+00
   0.5574923630058916E+00
   0.5763759202726306E+00
   0.4194306388528710E+00
   0.5824846975859920E+00
   0.4265214302607099E+00
   0.5392804297451729E+00
   0.5012038370596142E+00
   0.5119550875312430E+00
   0.5049134346667499E+00
   0.5751969833168793E+00
   0.5876371202187073E+00
   0.5379899780604025E+00
   0.5677471391156382E+00
   0.5351265451321049E+00
   0.5338067791488419E+00
   0.5580313870595779E+00
   0.5512700826701581E+00
   0.4261841820197421E+00
   0.5273361161490671E+00
   0.5795709025879200E+00
   0.3318693592505004E+00
   0.4760282339859799E+00
   0.5446195800742085E+00
   0.4798326822943881E+00
   0.3005294979805250E+00
   0.5031061118785413E+00
   0.5017129527626988E+00
   0.5129058476369786E+00
   0.5414848409684195E+00
   0.3437605823343081E+00
   0.3397717774248361E+00
   0.3189926626527664E+00
   0.5065964662393584E+00
   0.5123517622597629E+00
   0.5330314337073657E+00
   0.5879311148058805E+00
   0.4644184198033312E+00
   0.3531279300868416E+00
SCALARS v double 1
LOOKUP_TABLE default
   0.0000000000000000E+00
   0.0000000000000000E+00
   0.0000000000000000E+00
   0.0000000000000000E+00
   0.0000000000000000E+00
   0.0000000000000000E+00
   0.0000000000000000E+00
   0.0000000000000000E+00
   0.0000000000000000E+00
   0.0000000000000000E+00
   0.0000000000000000E+00
   0.0000000000000000E+00
   0.0000000000000000E+00
   0.0000000000000000E+00
   0.0000000000000000E+00
   0.0000000000000000E+00
   0.0000000000000000E+00
   0.0000000000000000E+00
   0.0000000000000000E+00
   0.0000000000000000E+00
   0.0000000000000000E+00
   0.0000000000000000E+00
   0.0000000000000000E+00
   0.0000000000000000E+00
   0.0000000000000000E+00
   0.0000000000000000E+00
   0.0000000000000000E+00
   0.0000000000000000E+00
   0.0000000000000000E+00
   0.0000000000000000E+00
   0.0000000000000000E+00
   0.0000000000000000E+00
   0.0000000000000000E+00
   0.0000000000000000E+00
   0.0000000000000000E+00
   0.0000000000000000E+00
   0.0000000000000000E+00
   0.0000000000000000E+00
   0.0000000000000000E+00
   0.0000000000000000E+00
   0.0000000000000000E+00
   0.0000000000000000E+00
   0.0000000000000000E+00
   0.0000000000000000E+00
   0.0000000000000000E+00
   0.0000000000000000E+00
   0.0000000000000000E+00
   0.0000000000000000E+00
   0.0000000000000000E+00
   0.0000000000000000E+00
   0.0000000000000000E+00
   0.0000000000000000E+00
   0.0000000000000000E+00
   0.0000000000000000E+00
   0.0000000000000000E+00
   0.0000000000000000E+00
   0.0000000000000000E+00
   0.0000000000000000E+00
   0.0000000000000000E+00
   0.0000000000000000E+00
   0.0000000000000000E+00
   0.7979018038696219E-03
  -0.1328404909915854E-02
  -0.1331226177888091E-02
   0.0000000000000000E+00
   0.0000000000000000E+00
   0.0000000000000000E+00
   0.0000000000000000E+00
  -0.1922688856206672E-01
   0.4778632217267079E-03
   0.2183522588409603E-02
   0.1427267809752714E-01
  -0.6488826288869640E-02
  -0.7822179980129313E-02
  -0.1327763617946049E-01
   0.4914310381798437E-02
   0.6910809113649004E-03
   0.3434282839059602E-02
   0.1921126665693365E-02
   0.3148223519313265E-02
   0.1705222472750531E-02
  -0.7316874211352396E-02
  -0.7674073702477290E-04
   0.4468311495750825E-02
  -0.4386952158092941E-03
  -0.6346344162934430E-04
  -0.1963133628702985E-03
   0.8072420555274209E-03
   0.0000000000000000E+00
   0.0000000000000000E+00
   0.0000000000000000E+00
   0.0000000000000000E+00
   0.4251041471087370E-03
   0.1616516036833961E-02
  -0.1297234940045405E-02
  -0.1020900422710340E-02
  -0.2132689127164758E-02
  -0.1063558467815136E-02
  -0.8199895460579975E-03
  -0.7604492851143633E-03
   0.5199048604940885E-04
  -0.6237297648013734E-03
   0.7917300082104645E-03
  -0.1745017575521874E-02
   0.2737086098008648E-03
  -0.8978173504607010E-04
  -0.9420626063236679E-03
  -0.1098173965582226E-02
   0.0000000000000000E+00
   0.0000000000000000E+00
   0.0000000000000000E+00
  -0.1061656959527733E-02
  -0.7641219779012025E-02
   0.1860860331267226E-01
  -0.2837138271907308E-04
  -0.1383170201462893E-02
  -0.2034926375572539E-02
  -0.5666332022265801E-02
  -0.1585204306690195E-02
  -0.5947126906274006E-02
  -0.4160705782386054E-02
   0.1565585169616764E-02
   0.3329510672303197E-01
   0.3056735232047945E-04
  -0.2766910729099361E-02
   0.3566404791462544E-02
   0.3596838263437723E-03
   0.0000000000000000E+00
   0.0000000000000000E+00
   0.0000000000000000E+00
   0.0000000000000000E+00
   0.0000000000000000E+00
   0.0000000000000000E+00
   0.0000000000000000E+00
   0.0000000000000000E+00
   0.0000000000000000E+00
   0.0000000000000000E+00
   0.0000000000000000E+00
   0.0000000000000000E+00
   0.0000000000000000E+00
   0.0000000000000000E+00
   0.0000000000000000E+00
   0.0000000000000000E+00
   0.0000000000000000E+00
   0.5046967190397648E-02
   0.3230603418690751E-02
   0.8149094356939885E-02
   0.6168377203383341E-02
   0.1122926962659696E-01
   0.1429274519936728E-01
  -0.2038643507832325E-03
   0.5118189082784504E-02
   0.2914941150486867E-02
   0.3373532839240954E-02
   0.3728344243810995E-02
  -0.1465733619276926E-01
  -0.6160572166462179E-03
   0.6651716158864084E-02
   0.1542211067101659E-02
   0.1969584169758856E-02
   0.4266195760082697E-02
  -0.2790895279106809E-02
   0.1226797688961328E-02
   0.2819070594621097E-02
   0.1496955042962243E-02
   0.2575300864835107E-02
   0.2030367640803230E-02
   0.2118016522920377E-02
   0.8700444993427836E-02
  -0.3733305937858959E-02
   0.6241359689960059E-02
   0.2504140000548655E-04
  -0.3854562524471804E-03
  -0.1674687459698720E-01
  -0.4881897984432284E-02
  -0.4719789023252555E-02
   0.3445187696546478E-02
  -0.6135918230777851E-02
   0.9942845486924735E-04
  -0.3291388072273790E-01
  -0.3046155585147198E-02
   0.4722764144661030E-02
   0.9228893346843063E-03
   0.2112113991422698E-02
   0.4518570280347033E-02
   0.2720124638988416E-02
   0.3212464444759327E-02
   0.5200621774219910E-02
   0.1942088773410060E-02
   0.7315997709123930E-03
  -0.2603233771390042E-04
  -0.5375056518199103E-02
  -0.6959994862385426E-02
  -0.9444288219382419E-03
   0.1105334665246535E-02
  -0.2079991028966062E-02
  -0.3199648359929053E-02
  -0.2527749164167386E-02
  -0.4115443363922816E-02
  -0.7593834847039848E-02
  -0.1985953999758763E-02
   0.6237792316594571E-03
  -0.2233848549575246E-03
   0.1217004922562680E-02
  -0.3484298094823876E-02
   0.5228776601031529E-02
  -0.8487673420861616E-02
   0.2296261481254541E-04
  -0.3398900919198623E-03
   0.2542584498724743E-02
   0.1663465698408292E-02
   0.2021620544107822E-02
  -0.5620704374070286E-02
SCALARS w double 1
LOOKUP_TABLE default
   0.0000000000000000E+00
   0.0000000000000000E+00
   0.0000000000000000E+00
   0.0000000000000000E+00
   0.0000000000000000E+00
   0.0000000000000000E+00
   0.0000000000000000E+00
   0.0000000000000000E+00
   0.0000000000000000E+00
   0.0000000000000000E+00
   0.0000000000000000E+00
   0.0000000000000000E+00
   0.0000000000000000E+00
   0.0000000000000000E+00
   0.0000000000000000E+00
   0.0000000000000000E+00
   0.0000000000000000E+00
   0.0000000000000000E+00
   0.0000000000000000E+00
   0.0000000000000000E+00
   0.0000000000000000E+00
   0.0000000000000000E+00
   0.0000000000000000E+00
   0.0000000000000000E+00
   0.0000000000000000E+00
   0.0000000000000000E+00
   0.0000000000000000E+00
   0.0000000000000000E+00
   0.0000000000000000E+00
   0.0000000000000000E+00
   0.0000000000000000E+00
   0.0000000000000000E+00
   0.0000000000000000E+00
  -0.1007598496441062E+00
  -0.4249198343345459E-01
   0.7385934097278343E-03
   0.5730841559371269E-02
   0.5701813541753665E-03
   0.1607524134760843E-02
   0.3374082323189653E-02
   0.2371610337629107E-02
   0.4586905707103273E-03
   0.3518195704732474E-02
   0.4521846533925004E-01
   0.6522941616787419E-01
   0.8695991274596774E-03
  -0.2261164092909751E-01
   0.4316379455811189E-02
   0.1358718946266211E-01
   0.1039428528916030E-01
   0.4900544120842969E-01
   0.2437737287870537E-02
  -0.6508433063656413E-02
  -0.6996962370208065E-03
   0.3412757316425414E-03
   0.3904624648992825E-02
  -0.3893106863102843E-01
   0.1798170605270840E-01
   0.1119639954611234E-01
   0.3403780439840974E-01
   0.8439371631074810E-02
   0.4943175606081363E-02
   0.4974594588196034E-02
   0.4874421063485347E-02
   0.6029568487404800E-02
   0.2600926793126078E-02
  -0.4144409866322965E-01
  -0.9954192770332392E-01
  -0.1121675337173125E+00
   0.5073053498687101E-02
   0.4233770016881705E-02
  -0.1004726114656401E+00
  -0.9895147841486249E-01
  -0.9875398467440258E-01
  -0.9462371833977634E-01
  -0.6807077405083188E-01
   0.5157011347729462E-02
  -0.1935286227468474E-01
  -0.1575751588685989E-01
  -0.6002313381105503E-02
   0.6822543313676577E-02
  -0.8009898108627224E-01
  -0.2781045417322163E-01
  -0.8096363444273587E-01
  -0.5873208798542118E-01
   0.3083504766267493E-02
   0.2684895074346797E-02
   0.2640178839473944E-02
   0.3449253473933195E-02
   0.4006057845275596E-02
   0.1200315443794135E-02
  -0.1431860703777290E-03
   0.2043423848065897E-02
   0.4894928274665680E-02
   0.3856752685163306E-02
   0.1115557297522132E-02
   0.1185413168789763E-02
   0.1469053602855780E-02
  -0.1695051163408033E-04
   0.8935979868287533E-04
   0.4386213751697871E-02
   0.2715014336884476E-02
   0.2321633026752984E-02
   0.5009850875414976E-02
   0.1069772036206661E-02
   0.2711463462769343E-02
   0.2013457971784088E-02
   0.2863189311448546E-04
   0.8374603560822801E-01
   0.2793920526435252E-02
  -0.8348744745756413E-03
  -0.1493926322879247E-03
   0.1409540021272147E+00
   0.1239329770972329E+00
  -0.1219079474499405E-02
  -0.4381873040195041E-02
  -0.3040724294259158E-03
  -0.6512276551382395E-02
  -0.1949542007277929E-02
   0.1557630186770230E+00
   0.7489970910343885E-01
   0.2550186027911785E-01
   0.1656444455732651E+00