# vtk DataFile Version 2.0
FUN3D:global_image_vtk
ASCII
DATASET UNSTRUCTURED_GRID
POINTS 213 double
    0.0000000000000000E+00    0.2500000000000000E+01    0.0000000000000000E+00
    0.1250000000000000E+01    0.2500000000000000E+01    0.0000000000000000E+00
    0.2500000000000000E+01    0.2500000000000000E+01    0.0000000000000000E+00
    0.3750000000000000E+01    0.2500000000000000E+01    0.0000000000000000E+00
    0.5000000000000000E+01    0.2500000000000000E+01    0.0000000000000000E+00
    0.5000000000000000E+01    0.1250000000000000E+01    0.0000000000000000E+00
    0.5000000000000000E+01    0.0000000000000000E+00    0.0000000000000000E+00
    0.5000000000000000E+01   -0.1250000000000000E+01    0.0000000000000000E+00
    0.5000000000000000E+01   -0.2500000000000000E+01    0.0000000000000000E+00
    0.3750000000000000E+01   -0.2500000000000000E+01    0.0000000000000000E+00
    0.2500000000000000E+01   -0.2500000000000000E+01    0.0000000000000000E+00
    0.1250000000000000E+01   -0.2500000000000000E+01    0.0000000000000000E+00
    0.0000000000000000E+00   -0.2500000000000000E+01    0.0000000000000000E+00
    0.0000000000000000E+00   -0.1250000000000000E+01    0.0000000000000000E+00
    0.0000000000000000E+00    0.0000000000000000E+00    0.0000000000000000E+00
    0.0000000000000000E+00    0.1250000000000000E+01    0.0000000000000000E+00
    0.9058375365086910E+00    0.1578994732800803E+01    0.0000000000000000E+00
    0.3982050490726493E+01   -0.1583989954232354E+01    0.0000000000000000E+00
    0.4033849428301197E+01    0.1453322699199022E+01    0.0000000000000000E+00
    0.1040505887381675E+01   -0.1479596339503735E+01    0.0000000000000000E+00
    0.1099454400140349E+01   -0.3227322616384110E+00    0.0000000000000000E+00
    0.7354504170366591E+00    0.6593508822075582E+00    0.0000000000000000E+00
    0.1622302608453282E+01    0.8256214013940779E+00    0.0000000000000000E+00
    0.2145871574390382E+01   -0.1650070333782557E+01    0.0000000000000000E+00
    0.4086422318222992E+01   -0.4612828702537229E+00    0.0000000000000000E+00
    0.2979540174134984E+01   -0.8579242121530853E+00    0.0000000000000000E+00
    0.3045064261640043E+01   -0.1836846154397680E+01    0.0000000000000000E+00
    0.3428197553792836E+01    0.3508002863614053E+00    0.0000000000000000E+00
    0.4309693860063405E+01    0.5185680230613409E+00    0.0000000000000000E+00
    0.1827272193562204E+01    0.1738996113203182E+01    0.0000000000000000E+00
    0.2808563282768077E+01    0.1325493893339706E+01    0.0000000000000000E+00
    0.1895995683864404E+01   -0.8731419609589618E+00    0.0000000000000000E+00
    0.2273179336307740E+01    0.4906150219227333E-01    0.0000000000000000E+00
    0.5000000000000000E+01    0.2500000000000000E+01    0.1250000000000000E+01
    0.5000000000000000E+01    0.2500000000000000E+01    0.2500000000000000E+01
    0.5000000000000000E+01    0.2500000000000000E+01    0.3750000000000000E+01
    0.5000000000000000E+01    0.2500000000000000E+01    0.5000000000000000E+01
    0.3750000000000000E+01    0.2500000000000000E+01    0.5000000000000000E+01
    0.2500000000000000E+01    0.2500000000000000E+01    0.5000000000000000E+01
    0.1250000000000000E+01    0.2500000000000000E+01    0.5000000000000000E+01
    0.0000000000000000E+00    0.2500000000000000E+01    0.5000000000000000E+01
    0.0000000000000000E+00    0.2500000000000000E+01    0.3750000000000000E+01
    0.0000000000000000E+00    0.2500000000000000E+01    0.2500000000000000E+01
    0.0000000000000000E+00    0.2500000000000000E+01    0.1250000000000000E+01
    0.9631080833812172E+00    0.2500000000000000E+01    0.9613285771248219E+00
    0.3981732467264904E+01    0.2500000000000000E+01    0.4069753913607991E+01
    0.4035525118777670E+01    0.2500000000000000E+01    0.1012015867579395E+01
    0.9641717640894248E+00    0.2500000000000000E+01    0.3972455192261839E+01
    0.1547743040396780E+01    0.2500000000000000E+01    0.2928177746738678E+01
    0.6985170616192014E+00    0.2500000000000000E+01    0.3068281976055466E+01
    0.8931277594515110E+00    0.2500000000000000E+01    0.2052465503257726E+01
    0.2183293750162785E+01    0.2500000000000000E+01    0.3959073795658649E+01
    0.3855333506014705E+01    0.2500000000000000E+01    0.2931218481500625E+01
    0.3152495579421047E+01    0.2500000000000000E+01    0.3635850502723324E+01
    0.3103247580566054E+01    0.2500000000000000E+01    0.4331682712472464E+01
    0.3266837581688852E+01    0.2500000000000000E+01    0.1886092433583972E+01
    0.4231539241296245E+01    0.2500000000000000E+01    0.1915865356532799E+01
    0.1909741006522088E+01    0.2500000000000000E+01    0.7170024419130505E+00
    0.2880784107213163E+01    0.2500000000000000E+01    0.9046598906449592E+00
    0.2014316024535771E+01    0.2500000000000000E+01    0.1762464314805728E+01
    0.2670003247036656E+01    0.2500000000000000E+01    0.2850479545835163E+01
    0.5000000000000000E+01    0.1250000000000000E+01    0.5000000000000000E+01
    0.5000000000000000E+01    0.0000000000000000E+00    0.5000000000000000E+01
    0.5000000000000000E+01   -0.1250000000000000E+01    0.5000000000000000E+01
    0.5000000000000000E+01   -0.2500000000000000E+01    0.5000000000000000E+01
    0.5000000000000000E+01   -0.2500000000000000E+01    0.3750000000000000E+01
    0.5000000000000000E+01   -0.2500000000000000E+01    0.2500000000000000E+01
    0.5000000000000000E+01   -0.2500000000000000E+01    0.1250000000000000E+01
    0.5000000000000000E+01    0.1578994732800803E+01    0.9058375365086910E+00
    0.5000000000000000E+01   -0.1583989954232354E+01    0.3982050490726493E+01
    0.5000000000000000E+01    0.1453322699199022E+01    0.4033849428301197E+01
    0.5000000000000000E+01   -0.1479596339503735E+01    0.1040505887381675E+01
    0.5000000000000000E+01   -0.3227322616384110E+00    0.1099454400140349E+01
    0.5000000000000000E+01    0.6593508822075582E+00    0.7354504170366591E+00
    0.5000000000000000E+01    0.8256214013940779E+00    0.1622302608453282E+01
    0.5000000000000000E+01   -0.1650070333782557E+01    0.2145871574390382E+01
    0.5000000000000000E+01   -0.4612828702537229E+00    0.4086422318222992E+01
    0.5000000000000000E+01   -0.8579242121530853E+00    0.2979540174134984E+01
    0.5000000000000000E+01   -0.1836846154397680E+01    0.3045064261640043E+01
    0.5000000000000000E+01    0.3508002863614053E+00    0.3428197553792836E+01
    0.5000000000000000E+01    0.5185680230613409E+00    0.4309693860063405E+01
    0.5000000000000000E+01    0.1738996113203182E+01    0.1827272193562204E+01
    0.5000000000000000E+01    0.1325493893339706E+01    0.2808563282768077E+01
    0.5000000000000000E+01   -0.8731419609589618E+00    0.1895995683864404E+01
    0.5000000000000000E+01    0.4906150219227333E-01    0.2273179336307740E+01
    0.0000000000000000E+00    0.1250000000000000E+01    0.5000000000000000E+01
    0.0000000000000000E+00    0.0000000000000000E+00    0.5000000000000000E+01
    0.0000000000000000E+00   -0.1250000000000000E+01    0.5000000000000000E+01
    0.0000000000000000E+00   -0.2500000000000000E+01    0.5000000000000000E+01
    0.1250000000000000E+01   -0.2500000000000000E+01    0.5000000000000000E+01
    0.2500000000000000E+01   -0.2500000000000000E+01    0.5000000000000000E+01
    0.3750000000000000E+01   -0.2500000000000000E+01    0.5000000000000000E+01
    0.4042003247744892E+01    0.1558308132739014E+01    0.5000000000000000E+01
    0.9304122287900499E+00   -0.1548001304379777E+01    0.5000000000000000E+01
    0.1037243024609388E+01    0.1462892710085612E+01    0.5000000000000000E+01
    0.3946240828834967E+01   -0.1445243809615570E+01    0.5000000000000000E+01
    0.4092527262848217E+01   -0.3455338993778935E+00    0.5000000000000000E+01
    0.4293103109154542E+01    0.6277660831404320E+00    0.5000000000000000E+01
    0.3241512314643519E+01    0.7429886854239611E+00    0.5000000000000000E+01
    0.2844289952419609E+01   -0.1588117879734118E+01    0.5000000000000000E+01
    0.7159905765450471E+00   -0.6002320124191652E+00    0.5000000000000000E+01
    0.1754341919796891E+01   -0.7398147869923652E+00    0.5000000000000000E+01
    0.1870296826774691E+01   -0.1788622905643739E+01    0.5000000000000000E+01
    0.9220614901912976E+00    0.3083720183248586E+00    0.5000000000000000E+01
    0.3101523624086016E+01    0.1777901774806180E+01    0.5000000000000000E+01
    0.2192512063922564E+01    0.1576861561598471E+01    0.5000000000000000E+01
    0.2024793420196460E+01    0.4773861992750707E+00    0.5000000000000000E+01
    0.2990627757741975E+01   -0.4878110785814084E+00    0.5000000000000000E+01
    0.0000000000000000E+00   -0.2500000000000000E+01    0.1250000000000000E+01
    0.0000000000000000E+00   -0.2500000000000000E+01    0.2500000000000000E+01
    0.0000000000000000E+00   -0.2500000000000000E+01    0.3750000000000000E+01
    0.0000000000000000E+00    0.1558308132739014E+01    0.4042003247744892E+01
    0.0000000000000000E+00   -0.1548001304379777E+01    0.9304122287900499E+00
    0.0000000000000000E+00    0.1462892710085612E+01    0.1037243024609388E+01
    0.0000000000000000E+00   -0.1445243809615570E+01    0.3946240828834967E+01
    0.0000000000000000E+00   -0.3455338993778935E+00    0.4092527262848217E+01
    0.0000000000000000E+00    0.6277660831404320E+00    0.4293103109154542E+01
    0.0000000000000000E+00    0.7429886854239611E+00    0.3241512314643519E+01
    0.0000000000000000E+00   -0.1588117879734118E+01    0.2844289952419609E+01
    0.0000000000000000E+00   -0.6002320124191652E+00    0.7159905765450471E+00
    0.0000000000000000E+00   -0.7398147869923652E+00    0.1754341919796891E+01
    0.0000000000000000E+00   -0.1788622905643739E+01    0.1870296826774691E+01
    0.0000000000000000E+00    0.3083720183248586E+00    0.9220614901912976E+00
    0.0000000000000000E+00    0.1777901774806180E+01    0.3101523624086016E+01
    0.0000000000000000E+00    0.1576861561598471E+01    0.2192512063922564E+01
[...]
POINT_DATA 213
SCALARS rho double 1
LOOKUP_TABLE default
   0.1344271447970334E+01
   0.9569758911843320E+00
   0.9462964176744179E+00
   0.9418612692589909E+00
   0.8437304894047200E+00
   0.7738004286122405E+00
   0.7629818917303649E+00
   0.7664577884543088E+00
   0.8307874041583542E+00
   0.9352972553294389E+00
   0.9342219822270440E+00
   0.9617195273597248E+00
   0.1449457443671172E+01
   0.1494090642114709E+01
   0.1644667275573512E+01
   0.1425832044392483E+01
   0.1009014433707121E+01
   0.9508810840672802E+00
   0.9436508486236861E+00
   0.9581561037309800E+00
   0.9415852463107814E+00
   0.1036377240045170E+01
   0.9256161099242292E+00
   0.9322349850560260E+00
   0.9537479575742324E+00
   0.9518769547586868E+00
   0.9348583101072735E+00
   0.9564028403330328E+00
   0.9376098386694217E+00
   0.9300661525368522E+00
   0.9445157478947668E+00
   0.8863506507478118E+00
   0.9423579949239526E+00
   0.9635003168068610E+00
   0.1008299039196392E+01
   0.1006735291104133E+01
   0.1001964619763391E+01
   0.1003219582015781E+01
   0.1004132053552061E+01
   0.1005228602961129E+01
   0.1004260408122444E+01
   0.1008308189980278E+01
   0.1023893137917371E+01
   0.1063553955956732E+01
   0.1019182513183945E+01
   0.1001780766093138E+01
   0.9643310058358974E+00
   0.1005283708954727E+01
   0.1000721163360451E+01
   0.1008742083810809E+01
   0.1008078083711398E+01
   0.1002349807212848E+01
   0.9979986848134758E+00
   0.1000583561332322E+01
   0.1001620123582524E+01
   0.9826893065988633E+00
   0.9842439654747871E+00
   0.9833314031239313E+00
   0.9788207431170832E+00
   0.9902638158484542E+00
   0.9934561553383753E+00
   0.1002011754299833E+01
   0.1002134467300432E+01
   0.1002276326474621E+01
   0.1001794758250945E+01
   0.1009778639835662E+01
   0.1006429109192243E+01
   0.9558786962262025E+00
   0.9249398428883108E+00
   0.1007036756098031E+01
   0.1004504925197189E+01
   0.9143642066592678E+00
   0.9089667860596574E+00
   0.8751688882246024E+00
   0.9767271874954742E+00
   0.1000452621079512E+01
   0.1005831087787577E+01
   0.1012882803130130E+01
   0.1011618951433254E+01
   0.1010438648549908E+01
   0.1005468281464227E+01
   0.9907612668792670E+00
   0.1005140325724563E+01
   0.9860567245674835E+00
   0.1005609737883574E+01
   0.1004248005725050E+01
   0.1002888437591872E+01
   0.1003345420268011E+01
   0.1003992731842697E+01
   0.1005101716099826E+01
   0.1003211645132138E+01
   0.1002663159034849E+01
   0.1002586233187721E+01
   0.1004060871034234E+01
   0.1004320345753840E+01
   0.1001641919640595E+01
   0.1002273116658360E+01
   0.1002543476850937E+01
   0.1003469520743436E+01
   0.1003372639923565E+01
   0.1003232230106177E+01
   0.1004423863095817E+01
   0.1004313070686233E+01
   0.1003659849267555E+01
   0.1003723103763039E+01
   0.1004329726332189E+01
   0.1004465021857041E+01
   0.1003623374999973E+01
   0.1064422801515812E+01
   0.1028473621126097E+01
   0.1009586657285771E+01
   0.1006638837451933E+01
   0.1163935521039763E+01
   0.1086087969567185E+01
   0.1007893419137432E+01
   0.1007245533199000E+01
   0.1006798074071755E+01
   0.1013018286972744E+01
   0.1019384609374996E+01
   0.1235203669355642E+01
   0.1032529466721305E+01
   0.1046681191258066E+01
   0.1200953642130704E+01
   0.1014718916024403E+01
   0.1032291153199430E+01
   0.1028095236697940E+01
   0.1014628639775292E+01
   0.1029216892464628E+01
   0.1001994816791628E+01
   0.9606929194844980E+00
   0.1006852582736285E+01
   0.1001327193354553E+01
   0.1010821905282296E+01
   0.1012246098953400E+01
   0.1000946006830636E+01
   0.9979121234959930E+00
   0.9980632370342500E+00
   0.1001184143127608E+01
   0.9841362012322447E+00
   0.9814879617298141E+00
   0.9648483321101939E+00
   0.9680877125307169E+00
   0.9914124471072284E+00
   0.9910858388846007E+00
   0.9925545096018459E+00
   0.1001727533866004E+01
   0.9993409402072133E+00
   0.9941410835645521E+00
   0.1007038753634387E+01
   0.1022539494136883E+01
   0.1001088098490091E+01
   0.1008798496234390E+01
   0.1004773846128906E+01
   0.1009050237460573E+01
   0.9966470333042449E+00
   0.1004988557481757E+01
   0.1003325535141821E+01
   0.9949431085419901E+00
   0.9832680785947874E+00
   0.9943957458871086E+00
   0.9973420658524283E+00
   0.9932190085195560E+00
   0.1001306487262088E+01
   0.1003001636995402E+01
   0.1002183579646600E+01
   0.9947078545798567E+00
   0.9937965521830087E+00
   0.1004867865514194E+01
   0.1020077607440383E+01
   0.1005364552377782E+01
   0.9816998153250995E+00
   0.1004973031163484E+01
   0.1012382323303259E+01
   0.9871424296278505E+00
   0.9551513534062476E+00
   0.9865075699805079E+00
   0.9864532951184660E+00
   0.9918946938520909E+00
   0.9933508199354067E+00
   0.9954406185229369E+00
   0.1037336789650145E+01
   0.1033536797871982E+01
   0.1001443321195982E+01
   0.1001930499925866E+01
   0.9912478515764869E+00
   0.9910920509615989E+00
   0.9648489986349323E+00
   0.9933282604310127E+00
   0.1006058638765853E+01
   0.1001954027393928E+01
   0.9908735804478781E+00
   0.9740945200382207E+00
   0.9418802137949513E+00
   0.9819379690886688E+00
   0.9794803559832184E+00
   0.9704172057214794E+00
   0.9720478943076630E+00
   0.9557351705113697E+00
   0.9496731209378853E+00
   0.9528673562737430E+00
   0.1002659533872295E+01
   0.1002471631848930E+01
   0.1000509329296447E+01
   0.1001677321978370E+01
   0.9607931423794766E+00
   0.9491625499759950E+00
   0.9584503053746580E+00
   0.1001121207787933E+01
   0.1000496140418942E+01
   0.1001156644438097E+01
   0.9807376183544633E+00
   0.9806000806789665E+00
   0.9628476104711036E+00
SCALARS u double 1
LOOKUP_TABLE default
   0.0000000000000000E+00
   0.0000000000000000E+00
   0.0000000000000000E+00
   0.0000000000000000E+00
   0.0000000000000000E+00
   0.0000000000000000E+00
   0.0000000000000000E+00
   0.0000000000000000E+00
   0.0000000000000000E+00
   0.0000000000000000E+00
   0.0000000000000000E+00
   0.0000000000000000E+00
   0.0000000000000000E+00
   0.0000000000000000E+00
   0.0000000000000000E+00
   0.0000000000000000E+00
   0.0000000000000000E+00
   0.0000000000000000E+00
   0.0000000000000000E+00
   0.0000000000000000E+00
   0.0000000000000000E+00
   0.0000000000000000E+00
   0.0000000000000000E+00
   0.0000000000000000E+00
   0.0000000000000000E+00
   0.0000000000000000E+00
   0.0000000000000000E+00
   0.0000000000000000E+00
   0.0000000000000000E+00
   0.0000000000000000E+00
   0.0000000000000000E+00
   0.0000000000000000E+00
   0.0000000000000000E+00
   0.4950176736441997E+00
   0.5338221309882243E+00
   0.5183269234184560E+00
   0.4930649896079141E+00
   0.4847578754695295E+00
   0.4867666430653057E+00
   0.4890763590040374E+00
   0.4957848876162811E+00
   0.4898301885933784E+00
   0.4717388494049434E+00
   0.4454814155467337E+00
   0.4833907046972722E+00
   0.5098397417191118E+00
   0.4390712696332593E+00
   0.4949403963759406E+00
   0.5225330361419682E+00
   0.4962454546045047E+00
   0.5226154962850342E+00
   0.5038881740122030E+00
   0.5646883613033202E+00
   0.5247509148424593E+00
   0.4991466102034898E+00
   0.5730561899096623E+00
   0.5696051091011163E+00
   0.3737941448639996E+00
   0.3998658128993061E+00
   0.5599326586712129E+00
   0.5564587627959979E+00
   0.4942627364288946E+00
   0.4948659492663481E+00
   0.4925735880080257E+00
   0.4914269540444845E+00
   0.5162356849746829E+00
   0.5361798305048102E+00
   0.4947413354804255E+00
   0.4524112185302275E+00
   0.5128777321482847E+00
   0.5117942015375458E+00
   0.4783517513910051E+00
   0.4931696657294776E+00
   0.4603173610904933E+00
   0.5244892728997932E+00
   0.5297434248164189E+00
   0.5129579288057543E+00
   0.5328358318284296E+00
   0.5308941037787500E+00
   0.5309856159154150E+00
   0.5063656722359089E+00
   0.5282461968847653E+00
   0.5410312732211012E+00
   0.5361261481296875E+00
   0.5374105276020189E+00
   0.4965364818159531E+00
   0.4975340903317282E+00
   0.4963842644306018E+00
   0.4955220267593366E+00
   0.4904581830486898E+00
   0.4903044387145555E+00
   0.4862182756838293E+00
   0.4854049623072277E+00
   0.4932164390305022E+00
   0.4909833319056490E+00
   0.4832194705847935E+00
   0.4872622822027370E+00
   0.4880124975093689E+00
   0.4872445961858498E+00
   0.4882696667983681E+00
   0.4952597558820841E+00
   0.4900967169926257E+00
   0.4904000092548179E+00
   0.4944232931746398E+00
   0.4868002493914504E+00
   0.4892385998372776E+00
   0.4881393382843892E+00
   0.4878457845860071E+00
   0.4446866571374208E+00
   0.4700028782842122E+00
   0.4891999056916089E+00
   0.4885247843096335E+00
   0.4506533055504369E+00
   0.4687378568734668E+00
   0.4877010455095895E+00
   0.4868353682700345E+00
   0.4908994713603728E+00
   0.4793551577125353E+00
   0.4658071750130189E+00
   0.3792725228468968E+00
   0.4901596529090004E+00
   0.4486686692388258E+00
   0.4436137390078797E+00
   0.4845147241367219E+00
   0.4621822645026829E+00
   0.4665749535494870E+00
   0.4748140300642080E+00
   0.4894494211754499E+00
   0.5085556989575081E+00
   0.4315073875003638E+00
   0.4927349361218653E+00
   0.5318289235571050E+00
   0.4913399197388196E+00
   0.5207019991784130E+00
   0.5060964604738276E+00
   0.5688797396524427E+00
   0.5273992825518785E+00
   0.5015044849700340E+00
   0.5821790085259793E+00
   0.5689618251933439E+00
   0.3406394441124608E+00
   0.3789869410649447E+00
   0.5751958203513470E+00
   0.5666485494338751E+00
   0.5704108782895463E+00
   0.5291056374539346E+00
   0.5451902710428713E+00
   0.5718804314640749E+00
   0.5389079125700384E+00
   0.5475507503619564E+00
   0.5821713867078900E+00
   0.4925601783932491E+00
   0.5042157543009302E+00
   0.4961735435568523E+00
   0.5565207962216181E+00
   0.4758845209080551E+00
   0.4950268385758474E+00
   0.5498525440836889E+00
   0.5891202294830528E+00
   0.5841957610468731E+00
   0.5469097656946869E+00
   0.5805417619510773E+00
   0.5106251431721297E+00
   0.5030200509558507E+00
   0.5033624666373673E+00
   0.5676446094471262E+00
   0.5563943078679373E+00
   0.4947255971853197E+00
   0.5505243828205280E+00
   0.5510857279999541E+00
   0.5657350949068745E+00
   0.4920070017517722E+00
   0.4927299096497720E+00
   0.3865140564334612E+00
   0.3687754531678826E+00
   0.5574921716513682E+00
   0.5763755544238801E+00
   0.4194304388699458E+00
   0.5824843238598053E+00
   0.4265209607616371E+00
   0.5392799844284926E+00
   0.5012032759745301E+00
   0.5119513185809199E+00
   0.5049119459071918E+00
   0.5751974969343393E+00
   0.5876371359854096E+00
   0.5379907805986784E+00
   0.5677472538830625E+00
   0.5351248668140177E+00
   0.5338056371537870E+00
   0.5580313796612228E+00
   0.5512707858333185E+00
   0.4261852742020170E+00
   0.5273356175419630E+00
   0.5795712528109697E+00
   0.3318687133821334E+00
   0.4760283323863778E+00
   0.5446196252801219E+00
   0.4798331899320999E+00
   0.3005293508842955E+00
   0.5031051139549337E+00
   0.5017115975851241E+00
   0.5129033206839027E+00
   0.5414840094274713E+00
   0.3437603843732787E+00
   0.3397710716511908E+00
   0.3189928570404479E+00
   0.5065936055963521E+00
   0.5123483789163658E+00
   0.5330313513162163E+00
   0.5879309999105607E+00
   0.4644180532755723E+00
   0.3531270507416058E+00
SCALARS v double 1
LOOKUP_TABLE default
   0.0000000000000000E+00
   0.0000000000000000E+00
   0.0000000000000000E+00
   0.0000000000000000E+00
   0.0000000000000000E+00
   0.0000000000000000E+00
   0.0000000000000000E+00
   0.0000000000000000E+00
   0.0000000000000000E+00
   0.0000000000000000E+00
   0.0000000000000000E+00
   0.0000000000000000E+00
   0.0000000000000000E+00
   0.0000000000000000E+00
   0.0000000000000000E+00
   0.0000000000000000E+00
   0.0000000000000000E+00
   0.0000000000000000E+00
   0.0000000000000000E+00
   0.0000000000000000E+00
   0.0000000000000000E+00
   0.0000000000000000E+00
   0.0000000000000000E+00
   0.0000000000000000E+00
   0.0000000000000000E+00
   0.0000000000000000E+00
   0.0000000000000000E+00
   0.0000000000000000E+00
   0.0000000000000000E+00
   0.0000000000000000E+00
   0.0000000000000000E+00
   0.0000000000000000E+00
   0.0000000000000000E+00
   0.0000000000000000E+00
   0.0000000000000000E+00
   0.0000000000000000E+00
   0.0000000000000000E+00
   0.0000000000000000E+00
   0.0000000000000000E+00
   0.0000000000000000E+00
   0.0000000000000000E+00
   0.0000000000000000E+00
   0.0000000000000000E+00
   0.0000000000000000E+00
   0.0000000000000000E+00
   0.0000000000000000E+00
   0.0000000000000000E+00
   0.0000000000000000E+00
   0.0000000000000000E+00
   0.0000000000000000E+00
   0.0000000000000000E+00
   0.0000000000000000E+00
   0.0000000000000000E+00
   0.0000000000000000E+00
   0.0000000000000000E+00
   0.0000000000000000E+00
   0.0000000000000000E+00
   0.0000000000000000E+00
   0.0000000000000000E+00
   0.0000000000000000E+00
   0.0000000000000000E+00
   0.7970255966341358E-03
  -0.1329291696262532E-02
  -0.1332590513787791E-02
   0.0000000000000000E+00
   0.0000000000000000E+00
   0.0000000000000000E+00
   0.0000000000000000E+00
  -0.1922562906857895E-01
   0.4770615746087800E-03
   0.2183359804425744E-02
   0.1427333045150563E-01
  -0.6488282086244484E-02
  -0.7821624419041252E-02
  -0.1327725153066789E-01
   0.4914481577031649E-02
   0.6907108874118775E-03
   0.3434417412680556E-02
   0.1920846956522079E-02
   0.3147958977130720E-02
   0.1704777616181294E-02
  -0.7316189173221040E-02
  -0.7701945321071248E-04
   0.4468737768411937E-02
  -0.4387159326811571E-03
  -0.6383747559828113E-04
  -0.1963395370474729E-03
   0.8071267580967360E-03
   0.0000000000000000E+00
   0.0000000000000000E+00
   0.0000000000000000E+00
   0.0000000000000000E+00
   0.4257020582620908E-03
   0.1616304741576514E-02
  -0.1297550831399740E-02
  -0.1022773104781058E-02
  -0.2134338615612689E-02
  -0.1064010148001400E-02
  -0.8200046764430965E-03
  -0.7617015990392842E-03
   0.5202265531606629E-04
  -0.6244084764296753E-03
   0.7916472544107529E-03
  -0.1745238468878551E-02
   0.2747134472683120E-03
  -0.8939732290925200E-04
  -0.9424308121614276E-03
  -0.1100225684977749E-02
   0.0000000000000000E+00
   0.0000000000000000E+00
   0.0000000000000000E+00
  -0.1061759182430977E-02
  -0.7641129232663256E-02
   0.1860854760236939E-01
  -0.2834553185986643E-04
  -0.1383129193589675E-02
  -0.2035123054090196E-02
  -0.5666383131038655E-02
  -0.1585210308323279E-02
  -0.5947016696187237E-02
  -0.4160602041159788E-02
   0.1565614835915489E-02
   0.3329524837891722E-01
   0.3055142717160456E-04
  -0.2766884872263544E-02
   0.3566484762689001E-02
   0.3596189449466528E-03
   0.0000000000000000E+00
   0.0000000000000000E+00
   0.0000000000000000E+00
   0.0000000000000000E+00
   0.0000000000000000E+00
   0.0000000000000000E+00
   0.0000000000000000E+00
   0.0000000000000000E+00
   0.0000000000000000E+00
   0.0000000000000000E+00
   0.0000000000000000E+00
   0.0000000000000000E+00
   0.0000000000000000E+00
   0.0000000000000000E+00
   0.0000000000000000E+00
   0.0000000000000000E+00
   0.0000000000000000E+00
   0.5047032524352151E-02
   0.3230791853850205E-02
   0.8149134232249529E-02
   0.6168366985886146E-02
   0.1122928638945672E-01
   0.1429277500899315E-01
  -0.2038827180402774E-03
   0.5118221771450640E-02
   0.2914950469077388E-02
   0.3373611787704226E-02
   0.3728336432691043E-02
  -0.1465719873343415E-01
  -0.6159700880242902E-03
   0.6651630204866602E-02
   0.1542014532794318E-02
   0.1969646612818379E-02
   0.4266273030761940E-02
  -0.2790960718714635E-02
   0.1226886396014814E-02
   0.2819172284919240E-02
   0.1497448858880489E-02
   0.2575338484215863E-02
   0.2030646023273930E-02
   0.2118046030041179E-02
   0.8700410388455903E-02
  -0.3733397058539425E-02
   0.6241189087387953E-02
   0.2516481685755089E-04
  -0.3854045600858329E-03
  -0.1674679013679527E-01
  -0.4881976952422006E-02
  -0.4720000845777131E-02
   0.3445223032157102E-02
  -0.6135724048888147E-02
   0.9934518960273284E-04
  -0.3291372917337264E-01
  -0.3046196927486997E-02
   0.4722743103759860E-02
   0.9228358707439721E-03
   0.2112175000139552E-02
   0.4518755258123935E-02
   0.2720464958036239E-02
   0.3212576468711457E-02
   0.5200803940933978E-02
   0.1941838577982104E-02
   0.7315887628212695E-03
  -0.2555257025301419E-04
  -0.5374633018317802E-02
  -0.6959592203529793E-02
  -0.9443812306293113E-03
   0.1105268390501064E-02
  -0.2080554179927218E-02
  -0.3200036053090446E-02
  -0.2527833121048136E-02
  -0.4115193558425328E-02
  -0.7593954918331034E-02
  -0.1985686489968742E-02
   0.6240397621137287E-03
  -0.2239090277741893E-03
   0.1216949018400325E-02
  -0.3483958556446537E-02
   0.5229139786564994E-02
  -0.8487626114473056E-02
   0.2315107764353162E-04
  -0.3395197156243311E-03
   0.2542663281726983E-02
   0.1663457562345820E-02
   0.2021438670459484E-02
  -0.5620784169890074E-02
SCALARS w double 1
LOOKUP_TABLE default
   0.0000000000000000E+00
   0.0000000000000000E+00
   0.0000000000000000E+00
   0.0000000000000000E+00
   0.0000000000000000E+00
   0.0000000000000000E+00
   0.0000000000000000E+00
   0.0000000000000000E+00
   0.0000000000000000E+00
   0.0000000000000000E+00
   0.0000000000000000E+00
   0.0000000000000000E+00
   0.0000000000000000E+00
   0.0000000000000000E+00
   0.0000000000000000E+00
   0.0000000000000000E+00
   0.0000000000000000E+00
   0.0000000000000000E+00
   0.0000000000000000E+00
   0.0000000000000000E+00
   0.0000000000000000E+00
   0.0000000000000000E+00
   0.0000000000000000E+00
   0.0000000000000000E+00
   0.0000000000000000E+00
   0.0000000000000000E+00
   0.0000000000000000E+00
   0.0000000000000000E+00
   0.0000000000000000E+00
   0.0000000000000000E+00
   0.0000000000000000E+00
   0.0000000000000000E+00
   0.0000000000000000E+00
  -0.1007612265950965E+00
  -0.4249296952202802E-01
   0.7371980213749488E-03
   0.5725797898041673E-02
   0.5699056991736829E-03
   0.1609784170564233E-02
   0.3375072789338367E-02
   0.2371773561448271E-02
   0.4590624174103065E-03
   0.3518225855668433E-02
   0.4521817574521166E-01
   0.6522937805299064E-01
   0.8689303129505503E-03
  -0.2261151925232044E-01
   0.4316553668324370E-02
   0.1358734830877320E-01
   0.1039452548742216E-01
   0.4900548403491045E-01
   0.2437443447210974E-02
  -0.6509940766325767E-02
  -0.7012231274293367E-03
   0.3411022691110387E-03
   0.3904107403840612E-02
  -0.3893254189763075E-01
   0.1798168097383505E-01
   0.1119638150499698E-01
   0.3403773242019073E-01
   0.8438810094638319E-02
   0.4937310908731275E-02
   0.4970345573101474E-02
   0.4871518552069495E-02
   0.6027193299442488E-02
   0.2599192937708148E-02
  -0.4144429593016778E-01
  -0.9954261880266646E-01
  -0.1121678224748746E+00
   0.5070875777521727E-02
   0.4230769126153793E-02
  -0.1004732308166994E+00
  -0.9895252517203279E-01
  -0.9875450983660226E-01
  -0.9462509585342449E-01
  -0.6807133851200160E-01
   0.5154921704936852E-02
  -0.1935330819521480E-01
  -0.1575800300926874E-01
  -0.6002863308238366E-02
   0.6819056045651157E-02
  -0.8010050625691556E-01
  -0.2781092474974884E-01
  -0.8096457387422286E-01
  -0.5873277580958926E-01
   0.3083625448242935E-02
   0.2685146423702578E-02
   0.2640431384239429E-02
   0.3450192011748704E-02
   0.4007083596117499E-02
   0.1201213620352457E-02
  -0.1438842922496047E-03
   0.2039876009317645E-02
   0.4895693348457450E-02
   0.3857385824017715E-02
   0.1114203161856514E-02
   0.1182681580072636E-02
   0.1465296531281375E-02
  -0.1653567190447800E-04
   0.8996627214469431E-04
   0.4386667694287230E-02
   0.2715724593077535E-02
   0.2322755239137731E-02
   0.5010601052755583E-02
   0.1071690003862984E-02
   0.2712217989184064E-02
   0.2013964060609008E-02
   0.2879100878078614E-04
   0.8374614236105950E-01
   0.2793870623167190E-02
  -0.8346628032353844E-03
  -0.1492944758502420E-03
   0.1409540840444529E+00
   0.1239332954693407E+00
  -0.1219093204136373E-02
  -0.4381936089451969E-02
  -0.3043057488863613E-03
  -0.6512246793304388E-02
  -0.1949570368218007E-02
   0.1557630974782963E+00
   0.7489979190657357E-01
   0.2550174900264648E-01
   0.1656445120846641E+00