# vtk DataFile Version 2.0
FUN3D:global_image_vtk
ASCII
DATASET UNSTRUCTURED_GRID
POINTS 213 double
    0.0000000000000000E+00    0.2500000000000000E+01    0.0000000000000000E+00
    0.1250000000000000E+01    0.2500000000000000E+01    0.0000000000000000E+00
    0.2500000000000000E+01    0.2500000000000000E+01    0.0000000000000000E+00
    0.3750000000000000E+01    0.2500000000000000E+01    0.0000000000000000E+00
    0.5000000000000000E+01    0.2500000000000000E+01    0.0000000000000000E+00
    0.5000000000000000E+01    0.1250000000000000E+01    0.0000000000000000E+00
    0.5000000000000000E+01    0.0000000000000000E+00    0.0000000000000000E+00
    0.5000000000000000E+01   -0.1250000000000000E+01    0.0000000000000000E+00
    0.5000000000000000E+01   -0.2500000000000000E+01    0.0000000000000000E+00
    0.3750000000000000E+01   -0.2500000000000000E+01    0.0000000000000000E+00
    0.2500000000000000E+01   -0.2500000000000000E+01    0.0000000000000000E+00
    0.1250000000000000E+01   -0.2500000000000000E+01    0.0000000000000000E+00
    0.0000000000000000E+00   -0.2500000000000000E+01    0.0000000000000000E+00
    0.0000000000000000E+00   -0.1250000000000000E+01    0.0000000000000000E+00
    0.0000000000000000E+00    0.0000000000000000E+00    0.0000000000000000E+00
    0.0000000000000000E+00    0.1250000000000000E+01    0.0000000000000000E+00
    0.9058375365086910E+00    0.1578994732800803E+01    0.0000000000000000E+00
    0.3982050490726493E+01   -0.1583989954232354E+01    0.0000000000000000E+00
    0.4033849428301197E+01    0.1453322699199022E+01    0.0000000000000000E+00
    0.1040505887381675E+01   -0.1479596339503735E+01    0.0000000000000000E+00
    0.1099454400140349E+01   -0.3227322616384110E+00    0.0000000000000000E+00
    0.7354504170366591E+00    0.6593508822075582E+00    0.0000000000000000E+00
    0.1622302608453282E+01    0.8256214013940779E+00    0.0000000000000000E+00
    0.2145871574390382E+01   -0.1650070333782557E+01    0.0000000000000000E+00
    0.4086422318222992E+01   -0.4612828702537229E+00    0.0000000000000000E+00
    0.2979540174134984E+01   -0.8579242121530853E+00    0.0000000000000000E+00
    0.3045064261640043E+01   -0.1836846154397680E+01    0.0000000000000000E+00
    0.3428197553792836E+01    0.3508002863614053E+00    0.0000000000000000E+00
    0.4309693860063405E+01    0.5185680230613409E+00    0.0000000000000000E+00
    0.1827272193562204E+01    0.1738996113203182E+01    0.0000000000000000E+00
    0.2808563282768077E+01    0.1325493893339706E+01    0.0000000000000000E+00
    0.1895995683864404E+01   -0.8731419609589618E+00    0.0000000000000000E+00
    0.2273179336307740E+01    0.4906150219227333E-01    0.0000000000000000E+00
    0.5000000000000000E+01    0.2500000000000000E+01    0.1250000000000000E+01
    0.5000000000000000E+01    0.2500000000000000E+01    0.2500000000000000E+01
    0.5000000000000000E+01    0.2500000000000000E+01    0.3750000000000000E+01
    0.5000000000000000E+01    0.2500000000000000E+01    0.5000000000000000E+01
    0.3750000000000000E+01    0.2500000000000000E+01    0.5000000000000000E+01
    0.2500000000000000E+01    0.2500000000000000E+01    0.5000000000000000E+01
    0.1250000000000000E+01    0.2500000000000000E+01    0.5000000000000000E+01
    0.0000000000000000E+00    0.2500000000000000E+01    0.5000000000000000E+01
    0.0000000000000000E+00    0.2500000000000000E+01    0.3750000000000000E+01
    0.0000000000000000E+00    0.2500000000000000E+01    0.2500000000000000E+01
    0.0000000000000000E+00    0.2500000000000000E+01    0.1250000000000000E+01
    0.9631080833812172E+00    0.2500000000000000E+01    0.9613285771248219E+00
    0.3981732467264904E+01    0.2500000000000000E+01    0.4069753913607991E+01
    0.4035525118777670E+01    0.2500000000000000E+01    0.1012015867579395E+01
    0.9641717640894248E+00    0.2500000000000000E+01    0.3972455192261839E+01
    0.1547743040396780E+01    0.2500000000000000E+01    0.2928177746738678E+01
    0.6985170616192014E+00    0.2500000000000000E+01    0.3068281976055466E+01
    0.8931277594515110E+00    0.2500000000000000E+01    0.2052465503257726E+01
    0.2183293750162785E+01    0.2500000000000000E+01    0.3959073795658649E+01
    0.3855333506014705E+01    0.2500000000000000E+01    0.2931218481500625E+01
    0.3152495579421047E+01    0.2500000000000000E+01    0.3635850502723324E+01
    0.3103247580566054E+01    0.2500000000000000E+01    0.4331682712472464E+01
    0.3266837581688852E+01    0.2500000000000000E+01    0.1886092433583972E+01
    0.4231539241296245E+01    0.2500000000000000E+01    0.1915865356532799E+01
    0.1909741006522088E+01    0.2500000000000000E+01    0.7170024419130505E+00
    0.2880784107213163E+01    0.2500000000000000E+01    0.9046598906449592E+00
    0.2014316024535771E+01    0.2500000000000000E+01    0.1762464314805728E+01
    0.2670003247036656E+01    0.2500000000000000E+01    0.2850479545835163E+01
    0.5000000000000000E+01    0.1250000000000000E+01    0.5000000000000000E+01
    0.5000000000000000E+01    0.0000000000000000E+00    0.5000000000000000E+01
    0.5000000000000000E+01   -0.1250000000000000E+01    0.5000000000000000E+01
    0.5000000000000000E+01   -0.2500000000000000E+01    0.5000000000000000E+01
    0.5000000000000000E+01   -0.2500000000000000E+01    0.3750000000000000E+01
    0.5000000000000000E+01   -0.2500000000000000E+01    0.2500000000000000E+01
    0.5000000000000000E+01   -0.2500000000000000E+01    0.1250000000000000E+01
    0.5000000000000000E+01    0.1578994732800803E+01    0.9058375365086910E+00
    0.5000000000000000E+01   -0.1583989954232354E+01    0.3982050490726493E+01
    0.5000000000000000E+01    0.1453322699199022E+01    0.4033849428301197E+01
    0.5000000000000000E+01   -0.1479596339503735E+01    0.1040505887381675E+01
    0.5000000000000000E+01   -0.3227322616384110E+00    0.1099454400140349E+01
    0.5000000000000000E+01    0.6593508822075582E+00    0.7354504170366591E+00
    0.5000000000000000E+01    0.8256214013940779E+00    0.1622302608453282E+01
    0.5000000000000000E+01   -0.1650070333782557E+01    0.2145871574390382E+01
    0.5000000000000000E+01   -0.4612828702537229E+00    0.4086422318222992E+01
    0.5000000000000000E+01   -0.8579242121530853E+00    0.2979540174134984E+01
    0.5000000000000000E+01   -0.1836846154397680E+01    0.3045064261640043E+01
    0.5000000000000000E+01    0.3508002863614053E+00    0.3428197553792836E+01
    0.5000000000000000E+01    0.5185680230613409E+00    0.4309693860063405E+01
    0.5000000000000000E+01    0.1738996113203182E+01    0.1827272193562204E+01
    0.5000000000000000E+01    0.1325493893339706E+01    0.2808563282768077E+01
    0.5000000000000000E+01   -0.8731419609589618E+00    0.1895995683864404E+01
    0.5000000000000000E+01    0.4906150219227333E-01    0.2273179336307740E+01
    0.0000000000000000E+00    0.1250000000000000E+01    0.5000000000000000E+01
    0.0000000000000000E+00    0.0000000000000000E+00    0.5000000000000000E+01
    0.0000000000000000E+00   -0.1250000000000000E+01    0.5000000000000000E+01
    0.0000000000000000E+00   -0.2500000000000000E+01    0.5000000000000000E+01
    0.1250000000000000E+01   -0.2500000000000000E+01    0.5000000000000000E+01
    0.2500000000000000E+01   -0.2500000000000000E+01    0.5000000000000000E+01
    0.3750000000000000E+01   -0.2500000000000000E+01    0.5000000000000000E+01
    0.4042003247744892E+01    0.1558308132739014E+01    0.5000000000000000E+01
    0.9304122287900499E+00   -0.1548001304379777E+01    0.5000000000000000E+01
    0.1037243024609388E+01    0.1462892710085612E+01    0.5000000000000000E+01
    0.3946240828834967E+01   -0.1445243809615570E+01    0.5000000000000000E+01
    0.4092527262848217E+01   -0.3455338993778935E+00    0.5000000000000000E+01
    0.4293103109154542E+01    0.6277660831404320E+00    0.5000000000000000E+01
    0.3241512314643519E+01    0.7429886854239611E+00    0.5000000000000000E+01
    0.2844289952419609E+01   -0.1588117879734118E+01    0.5000000000000000E+01
    0.7159905765450471E+00   -0.6002320124191652E+00    0.5000000000000000E+01
    0.1754341919796891E+01   -0.7398147869923652E+00    0.5000000000000000E+01
    0.1870296826774691E+01   -0.1788622905643739E+01    0.5000000000000000E+01
    0.9220614901912976E+00    0.3083720183248586E+00    0.5000000000000000E+01
    0.3101523624086016E+01    0.1777901774806180E+01    0.5000000000000000E+01
    0.2192512063922564E+01    0.1576861561598471E+01    0.5000000000000000E+01
    0.2024793420196460E+01    0.4773861992750707E+00    0.5000000000000000E+01
    0.2990627757741975E+01   -0.4878110785814084E+00    0.5000000000000000E+01
    0.0000000000000000E+00   -0.2500000000000000E+01    0.1250000000000000E+01
    0.0000000000000000E+00   -0.2500000000000000E+01    0.2500000000000000E+01
    0.0000000000000000E+00   -0.2500000000000000E+01    0.3750000000000000E+01
    0.0000000000000000E+00    0.1558308132739014E+01    0.4042003247744892E+01
    0.0000000000000000E+00   -0.1548001304379777E+01    0.9304122287900499E+00
    0.0000000000000000E+00    0.1462892710085612E+01    0.1037243024609388E+01
    0.0000000000000000E+00   -0.1445243809615570E+01    0.3946240828834967E+01
    0.0000000000000000E+00   -0.3455338993778935E+00    0.4092527262848217E+01
    0.0000000000000000E+00    0.6277660831404320E+00    0.4293103109154542E+01
    0.0000000000000000E+00    0.7429886854239611E+00    0.3241512314643519E+01
    0.0000000000000000E+00   -0.1588117879734118E+01    0.2844289952419609E+01
    0.0000000000000000E+00   -0.6002320124191652E+00    0.7159905765450471E+00
    0.0000000000000000E+00   -0.7398147869923652E+00    0.1754341919796891E+01
    0.0000000000000000E+00   -0.1788622905643739E+01    0.1870296826774691E+01
    0.0000000000000000E+00    0.3083720183248586E+00    0.9220614901912976E+00
    0.0000000000000000E+00    0.1777901774806180E+01    0.3101523624086016E+01
    0.0000000000000000E+00    0.1576861561598471E+01    0.2192512063922564E+01
[...]
POINT_DATA 213
SCALARS rho double 1
LOOKUP_TABLE default
   0.1344271447736721E+01
   0.9569758910472902E+00
   0.9462964175423066E+00
   0.9418612685736015E+00
   0.8437304873630262E+00
   0.7738004284531246E+00
   0.7629818915466076E+00
   0.7664577883978626E+00
   0.8307874039348098E+00
   0.9352972551616757E+00
   0.9342219821864938E+00
   0.9617195271929099E+00
   0.1449457443388878E+01
   0.1494090642042850E+01
   0.1644667275420957E+01
   0.1425832044252365E+01
   0.1009014433566749E+01
   0.9508810839711239E+00
   0.9436508478969310E+00
   0.9581561035239131E+00
   0.9415852462060851E+00
   0.1036377239929948E+01
   0.9256161097293760E+00
   0.9322349849652083E+00
   0.9537479574967869E+00
   0.9518769546350467E+00
   0.9348583100639913E+00
   0.9564028400703908E+00
   0.9376098388261123E+00
   0.9300661523446365E+00
   0.9445157475914695E+00
   0.8863506506563084E+00
   0.9423579947832667E+00
   0.9635003075444086E+00
   0.1008299039541146E+01
   0.1006735291842166E+01
   0.1001964617567618E+01
   0.1003219581465992E+01
   0.1004132053895339E+01
   0.1005228602878720E+01
   0.1004260408208819E+01
   0.1008308189899640E+01
   0.1023893137805279E+01
   0.1063553955927746E+01
   0.1019182513000147E+01
   0.1001780766382208E+01
   0.9643309930541578E+00
   0.1005283708912275E+01
   0.1000721163214503E+01
   0.1008742083713885E+01
   0.1008078083568073E+01
   0.1002349807040381E+01
   0.9979986848000587E+00
   0.1000583560883929E+01
   0.1001620123587167E+01
   0.9826893072398935E+00
   0.9842439641036705E+00
   0.9833314032664408E+00
   0.9788207406090287E+00
   0.9902638160323938E+00
   0.9934561552576374E+00
   0.1002011751625804E+01
   0.1002134465635737E+01
   0.1002276326495037E+01
   0.1001794758328573E+01
   0.1009778638902054E+01
   0.1006429109054391E+01
   0.9558786954916569E+00
   0.9249398402830449E+00
   0.1007036755531903E+01
   0.1004504925158782E+01
   0.9143642067550107E+00
   0.9089667856667395E+00
   0.8751688893672793E+00
   0.9767271883905231E+00
   0.1000452621137349E+01
   0.1005831087461897E+01
   0.1012882803351996E+01
   0.1011618951352176E+01
   0.1010438648654251E+01
   0.1005468280897700E+01
   0.9907612678990496E+00
   0.1005140325734190E+01
   0.9860567246002162E+00
   0.1005609737753452E+01
   0.1004248005671554E+01
   0.1002888437659749E+01
   0.1003345420413505E+01
   0.1003992731837072E+01
   0.1005101716113091E+01
   0.1003211645102150E+01
   0.1002663159933978E+01
   0.1002586231386020E+01
   0.1004060870900826E+01
   0.1004320345993272E+01
   0.1001641920341378E+01
   0.1002273115950140E+01
   0.1002543475560644E+01
   0.1003469520774551E+01
   0.1003372640225127E+01
   0.1003232230004713E+01
   0.1004423863405865E+01
   0.1004313070792436E+01
   0.1003659849363545E+01
   0.1003723103892112E+01
   0.1004329726383097E+01
   0.1004465021823819E+01
   0.1003623375293460E+01
   0.1064422801104286E+01
   0.1028473621146253E+01
   0.1009586657248421E+01
   0.1006638837416515E+01
   0.1163935521213845E+01
   0.1086087969729665E+01
   0.1007893419203690E+01
   0.1007245533248143E+01
   0.1006798074092293E+01
   0.1013018286830613E+01
   0.1019384609366206E+01
   0.1235203669271703E+01
   0.1032529466542039E+01
   0.1046681191273589E+01
   0.1200953641980872E+01
   0.1014718915936431E+01
   0.1032291153071311E+01
   0.1028095236510023E+01
   0.1014628639689531E+01
   0.1029216892369609E+01
   0.1001994816342251E+01
   0.9606929187738686E+00
   0.1006852582734172E+01
   0.1001327193292824E+01
   0.1010821905287102E+01
   0.1012246098864655E+01
   0.1000946006876250E+01
   0.9979121234103261E+00
   0.9980632372385473E+00
   0.1001184143333936E+01
   0.9841362010724160E+00
   0.9814879613654683E+00
   0.9648483316860998E+00
   0.9680877121743376E+00
   0.9914124469958150E+00
   0.9910858388094882E+00
   0.9925545095568089E+00
   0.1001727533819734E+01
   0.9993409401623509E+00
   0.9941410834835176E+00
   0.1007038753579266E+01
   0.1022539494052243E+01
   0.1001088098309768E+01
   0.1008798496183908E+01
   0.1004773846022226E+01
   0.1009050237366378E+01
   0.9966470331535450E+00
   0.1004988557305115E+01
   0.1003325535118421E+01
   0.9949431084905457E+00
   0.9832680781329357E+00
   0.9943957454810999E+00
   0.9973420655936328E+00
   0.9932190085757697E+00
   0.1001306487085006E+01
   0.1003001636891216E+01
   0.1002183579583237E+01
   0.9947078545324090E+00
   0.9937965521056126E+00
   0.1004867865456464E+01
   0.1020077607361475E+01
   0.1005364552302105E+01
   0.9816998152312173E+00
   0.1004973031178906E+01
   0.1012382323320138E+01
   0.9871424292581238E+00
   0.9551513532820305E+00
   0.9865075699799274E+00
   0.9864532949138085E+00
   0.9918946939869537E+00
   0.9933508197455062E+00
   0.9954406183844509E+00
   0.1037336789614055E+01
   0.1033536797830930E+01
   0.1001443320762838E+01
   0.1001930499708815E+01
   0.9912478516535972E+00
   0.9910920509363730E+00
   0.9648489987164024E+00
   0.9933282604832827E+00
   0.1006058638659459E+01
   0.1001954027109401E+01
   0.9908735804175246E+00
   0.9740945211140757E+00
   0.9418802133456736E+00
   0.9819379689231021E+00
   0.9794803560473225E+00
   0.9704172057785692E+00
   0.9720478942565388E+00
   0.9557351700686120E+00
   0.9496731208309822E+00
   0.9528673562375525E+00
   0.1002659533959340E+01
   0.1002471631877250E+01
   0.1000509329234699E+01
   0.1001677321729266E+01
   0.9607931426880745E+00
   0.9491625497962640E+00
   0.9584503054942853E+00
   0.1001121207700186E+01
   0.1000496140521588E+01
   0.1001156644142279E+01
   0.9807376182893661E+00
   0.9806000806391513E+00
   0.9628476101732755E+00
SCALARS u double 1
LOOKUP_TABLE default
   0.0000000000000000E+00
   0.0000000000000000E+00
   0.0000000000000000E+00
   0.0000000000000000E+00
   0.0000000000000000E+00
   0.0000000000000000E+00
   0.0000000000000000E+00
   0.0000000000000000E+00
   0.0000000000000000E+00
   0.0000000000000000E+00
   0.0000000000000000E+00
   0.0000000000000000E+00
   0.0000000000000000E+00
   0.0000000000000000E+00
   0.0000000000000000E+00
   0.0000000000000000E+00
   0.0000000000000000E+00
   0.0000000000000000E+00
   0.0000000000000000E+00
   0.0000000000000000E+00
   0.0000000000000000E+00
   0.0000000000000000E+00
   0.0000000000000000E+00
   0.0000000000000000E+00
   0.0000000000000000E+00
   0.0000000000000000E+00
   0.0000000000000000E+00
   0.0000000000000000E+00
   0.0000000000000000E+00
   0.0000000000000000E+00
   0.0000000000000000E+00
   0.0000000000000000E+00
   0.0000000000000000E+00
   0.4950176839506575E+00
   0.5338221299218858E+00
   0.5183269246716806E+00
   0.4930649880186937E+00
   0.4847578720328209E+00
   0.4867666424983421E+00
   0.4890763584533122E+00
   0.4957848881065564E+00
   0.4898301884884944E+00
   0.4717388495371636E+00
   0.4454814155486083E+00
   0.4833907047777976E+00
   0.5098397462794511E+00
   0.4390712704697878E+00
   0.4949403965685342E+00
   0.5225330363040612E+00
   0.4962454546690871E+00
   0.5226154964350813E+00
   0.5038881743882218E+00
   0.5646883608815542E+00
   0.5247509157137142E+00
   0.4991466120292356E+00
   0.5730561901852926E+00
   0.5696051097545558E+00
   0.3737941449140412E+00
   0.3998658125680903E+00
   0.5599326587114142E+00
   0.5564587630804322E+00
   0.4942627332913215E+00
   0.4948659466074607E+00
   0.4925735874175312E+00
   0.4914269544079781E+00
   0.5162356850252061E+00
   0.5361798304676779E+00
   0.4947413361857630E+00
   0.4524112210390051E+00
   0.5128777325165266E+00
   0.5117942040318365E+00
   0.4783517512780276E+00
   0.4931696659509170E+00
   0.4603173600322840E+00
   0.5244892721635726E+00
   0.5297434247681388E+00
   0.5129579300470194E+00
   0.5328358318136899E+00
   0.5308941036028637E+00
   0.5309856169378602E+00
   0.5063656735176288E+00
   0.5282461954974631E+00
   0.5410312729340367E+00
   0.5361261481554581E+00
   0.5374105275026229E+00
   0.4965364819250471E+00
   0.4975340904509834E+00
   0.4963842645058659E+00
   0.4955220268146466E+00
   0.4904581832077581E+00
   0.4903044386157025E+00
   0.4862182764978403E+00
   0.4854049561871875E+00
   0.4932164388843625E+00
   0.4909833313185975E+00
   0.4832194697191783E+00
   0.4872622777731836E+00
   0.4880124910078565E+00
   0.4872445932356377E+00
   0.4882696670329142E+00
   0.4952597557251170E+00
   0.4900967168794104E+00
   0.4904000091668771E+00
   0.4944232926333020E+00
   0.4868002481768399E+00
   0.4892385984839487E+00
   0.4881393370626773E+00
   0.4878457829705713E+00
   0.4446866580253934E+00
   0.4700028782298938E+00
   0.4891999057421430E+00
   0.4885247844505393E+00
   0.4506533050949409E+00
   0.4687378567195413E+00
   0.4877010457700791E+00
   0.4868353684182075E+00
   0.4908994716754809E+00
   0.4793551577971380E+00
   0.4658071748481993E+00
   0.3792725229459774E+00
   0.4901596531434523E+00
   0.4486686692399079E+00
   0.4436137392393483E+00
   0.4845147242299490E+00
   0.4621822646973487E+00
   0.4665749536214943E+00
   0.4748140300759969E+00
   0.4894494213007476E+00
   0.5085556973319180E+00
   0.4315073874041080E+00
   0.4927349361863706E+00
   0.5318289233961894E+00
   0.4913399196744421E+00
   0.5207019993359762E+00
   0.5060964599858808E+00
   0.5688797394991254E+00
   0.5273992817799193E+00
   0.5015044841793339E+00
   0.5821790087089105E+00
   0.5689618253102997E+00
   0.3406394441907731E+00
   0.3789869412871910E+00
   0.5751958206368791E+00
   0.5666485492993751E+00
   0.5704108783175010E+00
   0.5291056376423733E+00
   0.5451902711328508E+00
   0.5718804315176462E+00
   0.5389079126483654E+00
   0.5475507505127739E+00
   0.5821713868538086E+00
   0.4925601785105833E+00
   0.5042157546869345E+00
   0.4961735436833618E+00
   0.5565207962903289E+00
   0.4758845210041419E+00
   0.4950268384220861E+00
   0.5498525443597877E+00
   0.5891202296761268E+00
   0.5841957609310873E+00
   0.5469097664602650E+00
   0.5805417617642067E+00
   0.5106251438889952E+00
   0.5030200513669518E+00
   0.5033624680397961E+00
   0.5676446096058851E+00
   0.5563943082844656E+00
   0.4947255973990683E+00
   0.5505243828824643E+00
   0.5510857280992231E+00
   0.5657350949763365E+00
   0.4920070018405879E+00
   0.4927299097239026E+00
   0.3865140568668659E+00
   0.3687754532668316E+00
   0.5574921717328040E+00
   0.5763755545541851E+00
   0.4194304389977979E+00
   0.5824843240559104E+00
   0.4265209609147447E+00
   0.5392799844265848E+00
   0.5012032759565361E+00
   0.5119513208571880E+00
   0.5049119464205215E+00
   0.5751974973475086E+00
   0.5876371360232050E+00
   0.5379907807140747E+00
   0.5677472540013196E+00
   0.5351248666062421E+00
   0.5338056379324370E+00
   0.5580313798191560E+00
   0.5512707862210320E+00
   0.4261852756676904E+00
   0.5273356177788314E+00
   0.5795712529623048E+00
   0.3318687133101689E+00
   0.4760283324435728E+00
   0.5446196254199711E+00
   0.4798331900879689E+00
   0.3005293508184602E+00
   0.5031051138591004E+00
   0.5017115978259495E+00
   0.5129033211220410E+00
   0.5414840108215568E+00
   0.3437603854715537E+00
   0.3397710716075192E+00
   0.3189928570696863E+00
   0.5065936052358175E+00
   0.5123483779928040E+00
   0.5330313519309990E+00
   0.5879310000197434E+00
   0.4644180532993232E+00
   0.3531270508913636E+00
SCALARS v double 1
LOOKUP_TABLE default
   0.0000000000000000E+00
   0.0000000000000000E+00
   0.0000000000000000E+00
   0.0000000000000000E+00
   0.0000000000000000E+00
   0.0000000000000000E+00
   0.0000000000000000E+00
   0.0000000000000000E+00
   0.0000000000000000E+00
   0.0000000000000000E+00
   0.0000000000000000E+00
   0.0000000000000000E+00
   0.0000000000000000E+00
   0.0000000000000000E+00
   0.0000000000000000E+00
   0.0000000000000000E+00
   0.0000000000000000E+00
   0.0000000000000000E+00
   0.0000000000000000E+00
   0.0000000000000000E+00
   0.0000000000000000E+00
   0.0000000000000000E+00
   0.0000000000000000E+00
   0.0000000000000000E+00
   0.0000000000000000E+00
   0.0000000000000000E+00
   0.0000000000000000E+00
   0.0000000000000000E+00
   0.0000000000000000E+00
   0.0000000000000000E+00
   0.0000000000000000E+00
   0.0000000000000000E+00
   0.0000000000000000E+00
   0.0000000000000000E+00
   0.0000000000000000E+00
   0.0000000000000000E+00
   0.0000000000000000E+00
   0.0000000000000000E+00
   0.0000000000000000E+00
   0.0000000000000000E+00
   0.0000000000000000E+00
   0.0000000000000000E+00
   0.0000000000000000E+00
   0.0000000000000000E+00
   0.0000000000000000E+00
   0.0000000000000000E+00
   0.0000000000000000E+00
   0.0000000000000000E+00
   0.0000000000000000E+00
   0.0000000000000000E+00
   0.0000000000000000E+00
   0.0000000000000000E+00
   0.0000000000000000E+00
   0.0000000000000000E+00
   0.0000000000000000E+00
   0.0000000000000000E+00
   0.0000000000000000E+00
   0.0000000000000000E+00
   0.0000000000000000E+00
   0.0000000000000000E+00
   0.0000000000000000E+00
   0.7970254477446510E-03
  -0.1329294698764914E-02
  -0.1332592762150053E-02
   0.0000000000000000E+00
   0.0000000000000000E+00
   0.0000000000000000E+00
   0.0000000000000000E+00
  -0.1922562558862569E-01
   0.4770618116112043E-03
   0.2183360177859194E-02
   0.1427333026441653E-01
  -0.6488282161631591E-02
  -0.7821622777727471E-02
  -0.1327725051331689E-01
   0.4914481780270269E-02
   0.6907121987261639E-03
   0.3434418432629168E-02
   0.1920847378679876E-02
   0.3147960246977704E-02
   0.1704778375828078E-02
  -0.7316187319443440E-02
  -0.7701900488824308E-04
   0.4468738002726572E-02
  -0.4387156233457683E-03
  -0.6383742363964080E-04
  -0.1963394584145747E-03
   0.8071267987414387E-03
   0.0000000000000000E+00
   0.0000000000000000E+00
   0.0000000000000000E+00
   0.0000000000000000E+00
   0.4257020169046230E-03
   0.1616304630856457E-02
  -0.1297550943042841E-02
  -0.1022774984949889E-02
  -0.2134342419423211E-02
  -0.1064012669011482E-02
  -0.8200064319437218E-03
  -0.7617033244609833E-03
   0.5202258831090845E-04
  -0.6244091935004721E-03
   0.7916469168202351E-03
  -0.1745238507146838E-02
   0.2747128632333625E-03
  -0.8939747388191011E-04
  -0.9424310121152351E-03
  -0.1100227545244490E-02
   0.0000000000000000E+00
   0.0000000000000000E+00
   0.0000000000000000E+00
  -0.1061759102147209E-02
  -0.7641129348383935E-02
   0.1860854751737675E-01
  -0.2834553561378517E-04
  -0.1383129142413759E-02
  -0.2035122961713983E-02
  -0.5666383177235750E-02
  -0.1585210192731293E-02
  -0.5947016649645560E-02
  -0.4160601997636708E-02
   0.1565614845818165E-02
   0.3329524840206529E-01
   0.3055140706186655E-04
  -0.2766884885300193E-02
   0.3566484706014443E-02
   0.3596189468487330E-03
   0.0000000000000000E+00
   0.0000000000000000E+00
   0.0000000000000000E+00
   0.0000000000000000E+00
   0.0000000000000000E+00
   0.0000000000000000E+00
   0.0000000000000000E+00
   0.0000000000000000E+00
   0.0000000000000000E+00
   0.0000000000000000E+00
   0.0000000000000000E+00
   0.0000000000000000E+00
   0.0000000000000000E+00
   0.0000000000000000E+00
   0.0000000000000000E+00
   0.0000000000000000E+00
   0.0000000000000000E+00
   0.5047032572493617E-02
   0.3230791932388482E-02
   0.8149134277109799E-02
   0.6168366978380939E-02
   0.1122928638280791E-01
   0.1429277501707079E-01
  -0.2038826637704599E-03
   0.5118221822334725E-02
   0.2914950543504629E-02
   0.3373611829467590E-02
   0.3728336428774059E-02
  -0.1465719871018652E-01
  -0.6159699899586424E-03
   0.6651630348727567E-02
   0.1542014267666866E-02
   0.1969646528880186E-02
   0.4266273538418229E-02
  -0.2790960947441734E-02
   0.1226887070523871E-02
   0.2819172488062042E-02
   0.1497449160131427E-02
   0.2575339051513838E-02
   0.2030646438905737E-02
   0.2118046067113868E-02
   0.8700410412424130E-02
  -0.3733397031574728E-02
   0.6241189082062510E-02
   0.2516489000391496E-04
  -0.3854044971221729E-03
  -0.1674679008297213E-01
  -0.4881976865802342E-02
  -0.4720000798412401E-02
   0.3445223057157696E-02
  -0.6135724105487213E-02
   0.9934521215633897E-04
  -0.3291372911896548E-01
  -0.3046196899961248E-02
   0.4722743107230580E-02
   0.9228367993213526E-03
   0.2112175233112827E-02
   0.4518755684419866E-02
   0.2720465274015955E-02
   0.3212576515575784E-02
   0.5200804220883207E-02
   0.1941838963667812E-02
   0.7315897461503037E-03
  -0.2555240573317941E-04
  -0.5374632800930763E-02
  -0.6959590974214732E-02
  -0.9443816343145213E-03
   0.1105268421836266E-02
  -0.2080554061387780E-02
  -0.3200035923370747E-02
  -0.2527833368635688E-02
  -0.4115193625993606E-02
  -0.7593954919008530E-02
  -0.1985686409700004E-02
   0.6240402830590395E-03
  -0.2239081755021261E-03
   0.1216949786169717E-02
  -0.3483958271518814E-02
   0.5229139973179446E-02
  -0.8487626022183793E-02
   0.2315169760509400E-04
  -0.3395192897018430E-03
   0.2542663553916173E-02
   0.1663457668277790E-02
   0.2021438708861818E-02
  -0.5620783953502870E-02
SCALARS w double 1
LOOKUP_TABLE default
   0.0000000000000000E+00
   0.0000000000000000E+00
   0.0000000000000000E+00
   0.0000000000000000E+00
   0.0000000000000000E+00
   0.0000000000000000E+00
   0.0000000000000000E+00
   0.0000000000000000E+00
   0.0000000000000000E+00
   0.0000000000000000E+00
   0.0000000000000000E+00
   0.0000000000000000E+00
   0.0000000000000000E+00
   0.0000000000000000E+00
   0.0000000000000000E+00
   0.0000000000000000E+00
   0.0000000000000000E+00
   0.0000000000000000E+00
   0.0000000000000000E+00
   0.0000000000000000E+00
   0.0000000000000000E+00
   0.0000000000000000E+00
   0.0000000000000000E+00
   0.0000000000000000E+00
   0.0000000000000000E+00
   0.0000000000000000E+00
   0.0000000000000000E+00
   0.0000000000000000E+00
   0.0000000000000000E+00
   0.0000000000000000E+00
   0.0000000000000000E+00
   0.0000000000000000E+00
   0.0000000000000000E+00
  -0.1007612293416401E+00
  -0.4249297148802313E-01
   0.7371986064145160E-03
   0.5725799918193348E-02
   0.5699057399166339E-03
   0.1609783103139503E-02
   0.3375073014492230E-02
   0.2371773639289481E-02
   0.4590624747844145E-03
   0.3518225889243221E-02
   0.4521817574775892E-01
   0.6522937802920953E-01
   0.8689296906394106E-03
  -0.2261151842516187E-01
   0.4316553518532525E-02
   0.1358734834563225E-01
   0.1039452549897446E-01
   0.4900548405187652E-01
   0.2437443504098098E-02
  -0.6509941134503385E-02
  -0.7012227588480108E-03
   0.3411016344285610E-03
   0.3904107329724170E-02
  -0.3893254321561938E-01
   0.1798168100082827E-01
   0.1119638189253733E-01
   0.3403773251435319E-01
   0.8438810195195497E-02
   0.4937312256759600E-02
   0.4970345568140033E-02
   0.4871517404040174E-02
   0.6027191703022698E-02
   0.2599191735462028E-02
  -0.4144429610807992E-01
  -0.9954261890850727E-01
  -0.1121678224590722E+00
   0.5070875020589666E-02
   0.4230770697532265E-02
  -0.1004732307826228E+00
  -0.9895252534368142E-01
  -0.9875450984469351E-01
  -0.9462509643814007E-01
  -0.6807133849392881E-01
   0.5154922185839446E-02
  -0.1935330754811039E-01
  -0.1575800299793450E-01
  -0.6002862416956162E-02
   0.6819057387008030E-02
  -0.8010050837301877E-01
  -0.2781092467695776E-01
  -0.8096457379314474E-01
  -0.5873277574969500E-01
   0.3083625679795257E-02
   0.2685146462034613E-02
   0.2640431173328942E-02
   0.3450191912826460E-02
   0.4007083777974957E-02
   0.1201214311673731E-02
  -0.1438846511986545E-03
   0.2039877269511150E-02
   0.4895693604862761E-02
   0.3857385588283362E-02
   0.1114201935520262E-02
   0.1182682024526765E-02
   0.1465296231655797E-02
  -0.1653639664488736E-04
   0.8996623908761266E-04
   0.4386667861309253E-02
   0.2715724234263222E-02
   0.2322755292221214E-02
   0.5010601032741418E-02
   0.1071689332502154E-02
   0.2712217715113545E-02
   0.2013964084592544E-02
   0.2879084752622157E-04
   0.8374614276708345E-01
   0.2793870712783612E-02
  -0.8346628107980219E-03
  -0.1492945494736601E-03
   0.1409540840344943E+00
   0.1239332954745467E+00
  -0.1219093297298961E-02
  -0.4381936077853451E-02
  -0.3043057836103818E-03
  -0.6512246804522360E-02
  -0.1949570315565691E-02
   0.1557630974708631E+00
   0.7489979192620741E-01
   0.2550174902489444E-01
   0.1656445120608532E+00