# vtk DataFile Version 2.0
FUN3D:global_image_vtk
ASCII
DATASET UNSTRUCTURED_GRID
POINTS 213 double
    0.0000000000000000E+00    0.2500000000000000E+01    0.0000000000000000E+00
    0.1250000000000000E+01    0.2500000000000000E+01    0.0000000000000000E+00
    0.2500000000000000E+01    0.2500000000000000E+01    0.0000000000000000E+00
    0.3750000000000000E+01    0.2500000000000000E+01    0.0000000000000000E+00
    0.5000000000000000E+01    0.2500000000000000E+01    0.0000000000000000E+00
    0.5000000000000000E+01    0.1250000000000000E+01    0.0000000000000000E+00
    0.5000000000000000E+01    0.0000000000000000E+00    0.0000000000000000E+00
    0.5000000000000000E+01   -0.1250000000000000E+01    0.0000000000000000E+00
    0.5000000000000000E+01   -0.2500000000000000E+01    0.0000000000000000E+00
    0.3750000000000000E+01   -0.2500000000000000E+01    0.0000000000000000E+00
    0.2500000000000000E+01   -0.2500000000000000E+01    0.0000000000000000E+00
    0.1250000000000000E+01   -0.2500000000000000E+01    0.0000000000000000E+00
    0.0000000000000000E+00   -0.2500000000000000E+01    0.0000000000000000E+00
    0.0000000000000000E+00   -0.1250000000000000E+01    0.0000000000000000E+00
    0.0000000000000000E+00    0.0000000000000000E+00    0.0000000000000000E+00
    0.0000000000000000E+00    0.1250000000000000E+01    0.0000000000000000E+00
    0.9058375365086910E+00    0.1578994732800803E+01    0.0000000000000000E+00
    0.3982050490726493E+01   -0.1583989954232354E+01    0.0000000000000000E+00
    0.4033849428301197E+01    0.1453322699199022E+01    0.0000000000000000E+00
    0.1040505887381675E+01   -0.1479596339503735E+01    0.0000000000000000E+00
    0.1099454400140349E+01   -0.3227322616384110E+00    0.0000000000000000E+00
    0.7354504170366591E+00    0.6593508822075582E+00    0.0000000000000000E+00
    0.1622302608453282E+01    0.8256214013940779E+00    0.0000000000000000E+00
    0.2145871574390382E+01   -0.1650070333782557E+01    0.0000000000000000E+00
    0.4086422318222992E+01   -0.4612828702537229E+00    0.0000000000000000E+00
    0.2979540174134984E+01   -0.8579242121530853E+00    0.0000000000000000E+00
    0.3045064261640043E+01   -0.1836846154397680E+01    0.0000000000000000E+00
    0.3428197553792836E+01    0.3508002863614053E+00    0.0000000000000000E+00
    0.4309693860063405E+01    0.5185680230613409E+00    0.0000000000000000E+00
    0.1827272193562204E+01    0.1738996113203182E+01    0.0000000000000000E+00
    0.2808563282768077E+01    0.1325493893339706E+01    0.0000000000000000E+00
    0.1895995683864404E+01   -0.8731419609589618E+00    0.0000000000000000E+00
    0.2273179336307740E+01    0.4906150219227333E-01    0.0000000000000000E+00
    0.5000000000000000E+01    0.2500000000000000E+01    0.1250000000000000E+01
    0.5000000000000000E+01    0.2500000000000000E+01    0.2500000000000000E+01
    0.5000000000000000E+01    0.2500000000000000E+01    0.3750000000000000E+01
    0.5000000000000000E+01    0.2500000000000000E+01    0.5000000000000000E+01
    0.3750000000000000E+01    0.2500000000000000E+01    0.5000000000000000E+01
    0.2500000000000000E+01    0.2500000000000000E+01    0.5000000000000000E+01
    0.1250000000000000E+01    0.2500000000000000E+01    0.5000000000000000E+01
    0.0000000000000000E+00    0.2500000000000000E+01    0.5000000000000000E+01
    0.0000000000000000E+00    0.2500000000000000E+01    0.3750000000000000E+01
    0.0000000000000000E+00    0.2500000000000000E+01    0.2500000000000000E+01
    0.0000000000000000E+00    0.2500000000000000E+01    0.1250000000000000E+01
    0.9631080833812172E+00    0.2500000000000000E+01    0.9613285771248219E+00
    0.3981732467264904E+01    0.2500000000000000E+01    0.4069753913607991E+01
    0.4035525118777670E+01    0.2500000000000000E+01    0.1012015867579395E+01
    0.9641717640894248E+00    0.2500000000000000E+01    0.3972455192261839E+01
    0.1547743040396780E+01    0.2500000000000000E+01    0.2928177746738678E+01
    0.6985170616192014E+00    0.2500000000000000E+01    0.3068281976055466E+01
    0.8931277594515110E+00    0.2500000000000000E+01    0.2052465503257726E+01
    0.2183293750162785E+01    0.2500000000000000E+01    0.3959073795658649E+01
    0.3855333506014705E+01    0.2500000000000000E+01    0.2931218481500625E+01
    0.3152495579421047E+01    0.2500000000000000E+01    0.3635850502723324E+01
    0.3103247580566054E+01    0.2500000000000000E+01    0.4331682712472464E+01
    0.3266837581688852E+01    0.2500000000000000E+01    0.1886092433583972E+01
    0.4231539241296245E+01    0.2500000000000000E+01    0.1915865356532799E+01
    0.1909741006522088E+01    0.2500000000000000E+01    0.7170024419130505E+00
    0.2880784107213163E+01    0.2500000000000000E+01    0.9046598906449592E+00
    0.2014316024535771E+01    0.2500000000000000E+01    0.1762464314805728E+01
    0.2670003247036656E+01    0.2500000000000000E+01    0.2850479545835163E+01
    0.5000000000000000E+01    0.1250000000000000E+01    0.5000000000000000E+01
    0.5000000000000000E+01    0.0000000000000000E+00    0.5000000000000000E+01
    0.5000000000000000E+01   -0.1250000000000000E+01    0.5000000000000000E+01
    0.5000000000000000E+01   -0.2500000000000000E+01    0.5000000000000000E+01
    0.5000000000000000E+01   -0.2500000000000000E+01    0.3750000000000000E+01
    0.5000000000000000E+01   -0.2500000000000000E+01    0.2500000000000000E+01
    0.5000000000000000E+01   -0.2500000000000000E+01    0.1250000000000000E+01
    0.5000000000000000E+01    0.1578994732800803E+01    0.9058375365086910E+00
    0.5000000000000000E+01   -0.1583989954232354E+01    0.3982050490726493E+01
    0.5000000000000000E+01    0.1453322699199022E+01    0.4033849428301197E+01
    0.5000000000000000E+01   -0.1479596339503735E+01    0.1040505887381675E+01
    0.5000000000000000E+01   -0.3227322616384110E+00    0.1099454400140349E+01
    0.5000000000000000E+01    0.6593508822075582E+00    0.7354504170366591E+00
    0.5000000000000000E+01    0.8256214013940779E+00    0.1622302608453282E+01
    0.5000000000000000E+01   -0.1650070333782557E+01    0.2145871574390382E+01
    0.5000000000000000E+01   -0.4612828702537229E+00    0.4086422318222992E+01
    0.5000000000000000E+01   -0.8579242121530853E+00    0.2979540174134984E+01
    0.5000000000000000E+01   -0.1836846154397680E+01    0.3045064261640043E+01
    0.5000000000000000E+01    0.3508002863614053E+00    0.3428197553792836E+01
    0.5000000000000000E+01    0.5185680230613409E+00    0.4309693860063405E+01
    0.5000000000000000E+01    0.1738996113203182E+01    0.1827272193562204E+01
    0.5000000000000000E+01    0.1325493893339706E+01    0.2808563282768077E+01
    0.5000000000000000E+01   -0.8731419609589618E+00    0.1895995683864404E+01
    0.5000000000000000E+01    0.4906150219227333E-01    0.2273179336307740E+01
    0.0000000000000000E+00    0.1250000000000000E+01    0.5000000000000000E+01
    0.0000000000000000E+00    0.0000000000000000E+00    0.5000000000000000E+01
    0.0000000000000000E+00   -0.1250000000000000E+01    0.5000000000000000E+01
    0.0000000000000000E+00   -0.2500000000000000E+01    0.5000000000000000E+01
    0.1250000000000000E+01   -0.2500000000000000E+01    0.5000000000000000E+01
    0.2500000000000000E+01   -0.2500000000000000E+01    0.5000000000000000E+01
    0.3750000000000000E+01   -0.2500000000000000E+01    0.5000000000000000E+01
    0.4042003247744892E+01    0.1558308132739014E+01    0.5000000000000000E+01
    0.9304122287900499E+00   -0.1548001304379777E+01    0.5000000000000000E+01
    0.1037243024609388E+01    0.1462892710085612E+01    0.5000000000000000E+01
    0.3946240828834967E+01   -0.1445243809615570E+01    0.5000000000000000E+01
    0.4092527262848217E+01   -0.3455338993778935E+00    0.5000000000000000E+01
    0.4293103109154542E+01    0.6277660831404320E+00    0.5000000000000000E+01
    0.3241512314643519E+01    0.7429886854239611E+00    0.5000000000000000E+01
    0.2844289952419609E+01   -0.1588117879734118E+01    0.5000000000000000E+01
    0.7159905765450471E+00   -0.6002320124191652E+00    0.5000000000000000E+01
    0.1754341919796891E+01   -0.7398147869923652E+00    0.5000000000000000E+01
    0.1870296826774691E+01   -0.1788622905643739E+01    0.5000000000000000E+01
    0.9220614901912976E+00    0.3083720183248586E+00    0.5000000000000000E+01
    0.3101523624086016E+01    0.1777901774806180E+01    0.5000000000000000E+01
    0.2192512063922564E+01    0.1576861561598471E+01    0.5000000000000000E+01
    0.2024793420196460E+01    0.4773861992750707E+00    0.5000000000000000E+01
    0.2990627757741975E+01   -0.4878110785814084E+00    0.5000000000000000E+01
    0.0000000000000000E+00   -0.2500000000000000E+01    0.1250000000000000E+01
    0.0000000000000000E+00   -0.2500000000000000E+01    0.2500000000000000E+01
    0.0000000000000000E+00   -0.2500000000000000E+01    0.3750000000000000E+01
    0.0000000000000000E+00    0.1558308132739014E+01    0.4042003247744892E+01
    0.0000000000000000E+00   -0.1548001304379777E+01    0.9304122287900499E+00
    0.0000000000000000E+00    0.1462892710085612E+01    0.1037243024609388E+01
    0.0000000000000000E+00   -0.1445243809615570E+01    0.3946240828834967E+01
    0.0000000000000000E+00   -0.3455338993778935E+00    0.4092527262848217E+01
    0.0000000000000000E+00    0.6277660831404320E+00    0.4293103109154542E+01
    0.0000000000000000E+00    0.7429886854239611E+00    0.3241512314643519E+01
    0.0000000000000000E+00   -0.1588117879734118E+01    0.2844289952419609E+01
    0.0000000000000000E+00   -0.6002320124191652E+00    0.7159905765450471E+00
    0.0000000000000000E+00   -0.7398147869923652E+00    0.1754341919796891E+01
    0.0000000000000000E+00   -0.1788622905643739E+01    0.1870296826774691E+01
    0.0000000000000000E+00    0.3083720183248586E+00    0.9220614901912976E+00
    0.0000000000000000E+00    0.1777901774806180E+01    0.3101523624086016E+01
    0.0000000000000000E+00    0.1576861561598471E+01    0.2192512063922564E+01
[...]
POINT_DATA 213
SCALARS rho double 1
LOOKUP_TABLE default
   0.1344271451681962E+01
   0.9569758886029150E+00
   0.9462964121637100E+00
   0.9418612781091822E+00
   0.8437305304524100E+00
   0.7738004334439355E+00
   0.7629818864388899E+00
   0.7664577720921734E+00
   0.8307874090912563E+00
   0.9352972601155748E+00
   0.9342219798318795E+00
   0.9617195252133903E+00
   0.1449457446306458E+01
   0.1494090639061219E+01
   0.1644667273707420E+01
   0.1425832044640568E+01
   0.1009014431494666E+01
   0.9508810833790851E+00
   0.9436508642306112E+00
   0.9581561044292528E+00
   0.9415852448761348E+00
   0.1036377238845494E+01
   0.9256161086403065E+00
   0.9322349838424301E+00
   0.9537479557628410E+00
   0.9518769600450606E+00
   0.9348583112749895E+00
   0.9564028477833153E+00
   0.9376098386484620E+00
   0.9300661498673054E+00
   0.9445157484307244E+00
   0.8863506499574615E+00
   0.9423579979385702E+00
   0.9635005465719488E+00
   0.1008299016921284E+01
   0.1006735286445759E+01
   0.1001964668904476E+01
   0.1003219585062209E+01
   0.1004132031548070E+01
   0.1005228594966830E+01
   0.1004260407263772E+01
   0.1008308186530986E+01
   0.1023893137204755E+01
   0.1063553952689847E+01
   0.1019182516128488E+01
   0.1001780783808425E+01
   0.9643313006488117E+00
   0.1005283707147288E+01
   0.1000721160708058E+01
   0.1008742081986210E+01
   0.1008078082730570E+01
   0.1002349804168710E+01
   0.9979986750380163E+00
   0.1000583560324313E+01
   0.1001620111303855E+01
   0.9826892888043967E+00
   0.9842440072199679E+00
   0.9833313966808167E+00
   0.9788208199484707E+00
   0.9902638053683873E+00
   0.9934561521184464E+00
   0.1002011769415169E+01
   0.1002134460980042E+01
   0.1002276292772184E+01
   0.1001794750838870E+01
   0.1009778688309724E+01
   0.1006429089348895E+01
   0.9558787160639365E+00
   0.9249399094170557E+00
   0.1007036788059419E+01
   0.1004504965678260E+01
   0.9143642147737117E+00
   0.9089668065024950E+00
   0.8751688718002404E+00
   0.9767271635719048E+00
   0.1000452605071924E+01
   0.1005831127440313E+01
   0.1012882793317678E+01
   0.1011618941807802E+01
   0.1010438666699490E+01
   0.1005468345063133E+01
   0.9907612586464755E+00
   0.1005140303731054E+01
   0.9860567192518972E+00
   0.1005609722243162E+01
   0.1004248005397783E+01
   0.1002888442389553E+01
   0.1003345421830465E+01
   0.1003992738598880E+01
   0.1005101711806162E+01
   0.1003211644831075E+01
   0.1002663118936410E+01
   0.1002586215661860E+01
   0.1004060873261815E+01
   0.1004320335619376E+01
   0.1001641876389629E+01
   0.1002273078155138E+01
   0.1002543429337815E+01
   0.1003469485555964E+01
   0.1003372622125863E+01
   0.1003232226639003E+01
   0.1004423845992522E+01
   0.1004313062510063E+01
   0.1003659841526949E+01
   0.1003723114453367E+01
   0.1004329706131647E+01
   0.1004465014776602E+01
   0.1003623371548989E+01
   0.1064422811231382E+01
   0.1028473617754445E+01
   0.1009586655918473E+01
   0.1006638837229976E+01
   0.1163935516217042E+01
   0.1086087966058480E+01
   0.1007893416561448E+01
   0.1007245533671792E+01
   0.1006798075661651E+01
   0.1013018285637637E+01
   0.1019384604188961E+01
   0.1235203668801879E+01
   0.1032529467000484E+01
   0.1046681187193027E+01
   0.1200953644220865E+01
   0.1014718913759004E+01
   0.1032291150011840E+01
   0.1028095233327185E+01
   0.1014628636342503E+01
   0.1029216890126163E+01
   0.1001994848158400E+01
   0.9606929480274713E+00
   0.1006852578019441E+01
   0.1001327192928997E+01
   0.1010821899787460E+01
   0.1012246097441361E+01
   0.1000945999890845E+01
   0.9979121148131009E+00
   0.9980632190692290E+00
   0.1001184128369220E+01
   0.9841362055188756E+00
   0.9814879661830104E+00
   0.9648483390491841E+00
   0.9680877143508908E+00
   0.9914124470992559E+00
   0.9910858410173389E+00
   0.9925545070683595E+00
   0.1001727530957736E+01
   0.9993409360929814E+00
   0.9941410820391473E+00
   0.1007038749834336E+01
   0.1022539492854831E+01
   0.1001088101091343E+01
   0.1008798493240965E+01
   0.1004773844614558E+01
   0.1009050235145281E+01
   0.9966470334058520E+00
   0.1004988559347733E+01
   0.1003325530452938E+01
   0.9949431070756325E+00
   0.9832680872037696E+00
   0.9943957535241262E+00
   0.9973420622362421E+00
   0.9932190014736206E+00
   0.1001306475180815E+01
   0.1003001631769417E+01
   0.1002183570296443E+01
   0.9947078549655612E+00
   0.9937965460006046E+00
   0.1004867864178296E+01
   0.1020077605110277E+01
   0.1005364552174234E+01
   0.9816998156647417E+00
   0.1004973026231782E+01
   0.1012382317807218E+01
   0.9871424339406081E+00
   0.9551513534828240E+00
   0.9865075675548935E+00
   0.9864532956683456E+00
   0.9918946882983507E+00
   0.9933508216079207E+00
   0.9954406190218170E+00
   0.1037336788049657E+01
   0.1033536795582016E+01
   0.1001443350757554E+01
   0.1001930498006830E+01
   0.9912478441571594E+00
   0.9910920431377565E+00
   0.9648489941811070E+00
   0.9933282465259229E+00
   0.1006058642043709E+01
   0.1001954036637437E+01
   0.9908735743201892E+00
   0.9740945053605189E+00
   0.9418802250165800E+00
   0.9819379629989542E+00
   0.9794803512572626E+00
   0.9704172071011896E+00
   0.9720478935881032E+00
   0.9557351789852134E+00
   0.9496731309008881E+00
   0.9528673639138480E+00
   0.1002659530480269E+01
   0.1002471619900266E+01
   0.1000509328425445E+01
   0.1001677327690257E+01
   0.9607931287758006E+00
   0.9491625689171391E+00
   0.9584503122831977E+00
   0.1001121206899715E+01
   0.1000496132540963E+01
   0.1001156632618240E+01
   0.9807376175832714E+00
   0.9806000769347137E+00
   0.9628476242292238E+00
SCALARS u double 1
LOOKUP_TABLE default
   0.0000000000000000E+00
   0.0000000000000000E+00
   0.0000000000000000E+00
   0.0000000000000000E+00
   0.0000000000000000E+00
   0.0000000000000000E+00
   0.0000000000000000E+00
   0.0000000000000000E+00
   0.0000000000000000E+00
   0.0000000000000000E+00
   0.0000000000000000E+00
   0.0000000000000000E+00
   0.0000000000000000E+00
   0.0000000000000000E+00
   0.0000000000000000E+00
   0.0000000000000000E+00
   0.0000000000000000E+00
   0.0000000000000000E+00
   0.0000000000000000E+00
   0.0000000000000000E+00
   0.0000000000000000E+00
   0.0000000000000000E+00
   0.0000000000000000E+00
   0.0000000000000000E+00
   0.0000000000000000E+00
   0.0000000000000000E+00
   0.0000000000000000E+00
   0.0000000000000000E+00
   0.0000000000000000E+00
   0.0000000000000000E+00
   0.0000000000000000E+00
   0.0000000000000000E+00
   0.0000000000000000E+00
   0.4950174089522459E+00
   0.5338221514546393E+00
   0.5183268688758573E+00
   0.4930651173894358E+00
   0.4847581343069731E+00
   0.4867666871890136E+00
   0.4890763653064440E+00
   0.4957848760963496E+00
   0.4898302000865884E+00
   0.4717388489135358E+00
   0.4454814200291136E+00
   0.4833907029416704E+00
   0.5098396910367302E+00
   0.4390712196315648E+00
   0.4949403930679285E+00
   0.5225330435616878E+00
   0.4962454606214100E+00
   0.5226154991615982E+00
   0.5038881558275845E+00
   0.5646883477351448E+00
   0.5247508938464049E+00
   0.4991465783613773E+00
   0.5730561943347278E+00
   0.5696050847563097E+00
   0.3737941393548928E+00
   0.3998657965413286E+00
   0.5599326668920485E+00
   0.5564587688621028E+00
   0.4942629093623750E+00
   0.4948660559717322E+00
   0.4925736153673627E+00
   0.4914269656902989E+00
   0.5162356913445749E+00
   0.5361798408081487E+00
   0.4947413081994061E+00
   0.4524111497868401E+00
   0.5128777225351644E+00
   0.5117941108739514E+00
   0.4783517298774462E+00
   0.4931696405287097E+00
   0.4603173723692756E+00
   0.5244892892413645E+00
   0.5297434264930727E+00
   0.5129578806758160E+00
   0.5328358270181849E+00
   0.5308941196140580E+00
   0.5309855649736865E+00
   0.5063656233389499E+00
   0.5282462053039083E+00
   0.5410312779234550E+00
   0.5361261361564328E+00
   0.5374105321403559E+00
   0.4965364832829942E+00
   0.4975340864811834E+00
   0.4963842603629721E+00
   0.4955220297225608E+00
   0.4904581549388611E+00
   0.4903044299875400E+00
   0.4862182744579995E+00
   0.4854052740141829E+00
   0.4932164446478881E+00
   0.4909833507872163E+00
   0.4832195013927744E+00
   0.4872624310409319E+00
   0.4880127476940891E+00
   0.4872447328110147E+00
   0.4882696640150382E+00
   0.4952597658398475E+00
   0.4900967254271810E+00
   0.4903999939169870E+00
   0.4944233097957300E+00
   0.4868003734350035E+00
   0.4892386456427012E+00
   0.4881393745842219E+00
   0.4878458491500977E+00
   0.4446866337104672E+00
   0.4700028829573003E+00
   0.4891999081969001E+00
   0.4885247734554176E+00
   0.4506533225693527E+00
   0.4687378544471751E+00
   0.4877010372048093E+00
   0.4868353645585605E+00
   0.4908994602678086E+00
   0.4793551612256757E+00
   0.4658071867471142E+00
   0.3792725243573198E+00
   0.4901596485057014E+00
   0.4486686731661913E+00
   0.4436137401471505E+00
   0.4845147262767250E+00
   0.4621822674168058E+00
   0.4665749614256086E+00
   0.4748140371741490E+00
   0.4894494217386355E+00
   0.5085558191588985E+00
   0.4315073946362312E+00
   0.4927349401706679E+00
   0.5318289350844906E+00
   0.4913399287979463E+00
   0.5207019968864186E+00
   0.5060964758769183E+00
   0.5688797341686043E+00
   0.5273993143331495E+00
   0.5015045263955605E+00
   0.5821790081716561E+00
   0.5689618096645350E+00
   0.3406394462372556E+00
   0.3789869387274563E+00
   0.5751958223532310E+00
   0.5666485567414336E+00
   0.5704108805326338E+00
   0.5291056391608508E+00
   0.5451902760356144E+00
   0.5718804338892386E+00
   0.5389079157307486E+00
   0.5475507498689350E+00
   0.5821713868493313E+00
   0.4925601797010400E+00
   0.5042157453827794E+00
   0.4961735455613268E+00
   0.5565208006960359E+00
   0.4758845193965420E+00
   0.4950268543456226E+00
   0.5498525401488243E+00
   0.5891202264318701E+00
   0.5841957649167930E+00
   0.5469097474124467E+00
   0.5805417605850587E+00
   0.5106251391109973E+00
   0.5030200419951135E+00
   0.5033624843664917E+00
   0.5676445875445874E+00
   0.5563943065735077E+00
   0.4947255948746440E+00
   0.5505243857311766E+00
   0.5510857278429772E+00
   0.5657350957669851E+00
   0.4920070067174718E+00
   0.4927299124668164E+00
   0.3865140494963047E+00
   0.3687754552997526E+00
   0.5574921723916541E+00
   0.5763755603230555E+00
   0.4194304356375306E+00
   0.5824843247749772E+00
   0.4265209597204322E+00
   0.5392799878729064E+00
   0.5012032826609283E+00
   0.5119513280900890E+00
   0.5049119193688701E+00
   0.5751974748437089E+00
   0.5876371236068204E+00
   0.5379907687598596E+00
   0.5677472449650447E+00
   0.5351248843879903E+00
   0.5338056323029898E+00
   0.5580313663540851E+00
   0.5512707837429315E+00
   0.4261852362285199E+00
   0.5273356186999424E+00
   0.5795712436710154E+00
   0.3318687218402090E+00
   0.4760283350495244E+00
   0.5446196184481886E+00
   0.4798331732862188E+00
   0.3005293499093828E+00
   0.5031051258686885E+00
   0.5017116062106964E+00
   0.5129033583531901E+00
   0.5414839692809601E+00
   0.3437603658233607E+00
   0.3397710786668759E+00
   0.3189928579480924E+00
   0.5065936453714592E+00
   0.5123484361611409E+00
   0.5330313005117355E+00
   0.5879309992867749E+00
   0.4644180591170842E+00
   0.3531270534378514E+00
SCALARS v double 1
LOOKUP_TABLE default
   0.0000000000000000E+00
   0.0000000000000000E+00
   0.0000000000000000E+00
   0.0000000000000000E+00
   0.0000000000000000E+00
   0.0000000000000000E+00
   0.0000000000000000E+00
   0.0000000000000000E+00
   0.0000000000000000E+00
   0.0000000000000000E+00
   0.0000000000000000E+00
   0.0000000000000000E+00
   0.0000000000000000E+00
   0.0000000000000000E+00
   0.0000000000000000E+00
   0.0000000000000000E+00
   0.0000000000000000E+00
   0.0000000000000000E+00
   0.0000000000000000E+00
   0.0000000000000000E+00
   0.0000000000000000E+00
   0.0000000000000000E+00
   0.0000000000000000E+00
   0.0000000000000000E+00
   0.0000000000000000E+00
   0.0000000000000000E+00
   0.0000000000000000E+00
   0.0000000000000000E+00
   0.0000000000000000E+00
   0.0000000000000000E+00
   0.0000000000000000E+00
   0.0000000000000000E+00
   0.0000000000000000E+00
   0.0000000000000000E+00
   0.0000000000000000E+00
   0.0000000000000000E+00
   0.0000000000000000E+00
   0.0000000000000000E+00
   0.0000000000000000E+00
   0.0000000000000000E+00
   0.0000000000000000E+00
   0.0000000000000000E+00
   0.0000000000000000E+00
   0.0000000000000000E+00
   0.0000000000000000E+00
   0.0000000000000000E+00
   0.0000000000000000E+00
   0.0000000000000000E+00
   0.0000000000000000E+00
   0.0000000000000000E+00
   0.0000000000000000E+00
   0.0000000000000000E+00
   0.0000000000000000E+00
   0.0000000000000000E+00
   0.0000000000000000E+00
   0.0000000000000000E+00
   0.0000000000000000E+00
   0.0000000000000000E+00
   0.0000000000000000E+00
   0.0000000000000000E+00
   0.0000000000000000E+00
   0.7969876432863214E-03
  -0.1329212601123190E-02
  -0.1332494607418855E-02
   0.0000000000000000E+00
   0.0000000000000000E+00
   0.0000000000000000E+00
   0.0000000000000000E+00
  -0.1922571254034057E-01
   0.4770758426991975E-03
   0.2183360895491059E-02
   0.1427332952254233E-01
  -0.6488288116126925E-02
  -0.7821664730684809E-02
  -0.1327728291742804E-01
   0.4914471855965190E-02
   0.6907024423068658E-03
   0.3434391241485590E-02
   0.1920841658544815E-02
   0.3147944785576814E-02
   0.1704773418803385E-02
  -0.7316233423397494E-02
  -0.7701852996791577E-04
   0.4468726279889150E-02
  -0.4387272710343673E-03
  -0.6383959447513157E-04
  -0.1963415163809748E-03
   0.8071271196045586E-03
   0.0000000000000000E+00
   0.0000000000000000E+00
   0.0000000000000000E+00
   0.0000000000000000E+00
   0.4256504705508622E-03
   0.1616314247692733E-02
  -0.1297543499507333E-02
  -0.1022708590109233E-02
  -0.2134204966476057E-02
  -0.1063958983512097E-02
  -0.8199355754444998E-03
  -0.7616537618928502E-03
   0.5202283161598188E-04
  -0.6243832731506369E-03
   0.7916641423327963E-03
  -0.1745242285840268E-02
   0.2747218799364015E-03
  -0.8938440828982014E-04
  -0.9424091588532916E-03
  -0.1100151210805085E-02
   0.0000000000000000E+00
   0.0000000000000000E+00
   0.0000000000000000E+00
  -0.1061765168599018E-02
  -0.7641128009146810E-02
   0.1860855271006936E-01
  -0.2834509448485245E-04
  -0.1383132433391338E-02
  -0.2035128504447061E-02
  -0.5666379899351885E-02
  -0.1585213162690605E-02
  -0.5947018106898683E-02
  -0.4160603642039544E-02
   0.1565615642796619E-02
   0.3329524684249981E-01
   0.3055348010278277E-04
  -0.2766882951105645E-02
   0.3566485932292745E-02
   0.3596197221170096E-03
   0.0000000000000000E+00
   0.0000000000000000E+00
   0.0000000000000000E+00
   0.0000000000000000E+00
   0.0000000000000000E+00
   0.0000000000000000E+00
   0.0000000000000000E+00
   0.0000000000000000E+00
   0.0000000000000000E+00
   0.0000000000000000E+00
   0.0000000000000000E+00
   0.0000000000000000E+00
   0.0000000000000000E+00
   0.0000000000000000E+00
   0.0000000000000000E+00
   0.0000000000000000E+00
   0.0000000000000000E+00
   0.5047028212241181E-02
   0.3230790655970703E-02
   0.8149129434493118E-02
   0.6168366441417100E-02
   0.1122928714427072E-01
   0.1429277573289608E-01
  -0.2038826103974443E-03
   0.5118218913925921E-02
   0.2914945037537421E-02
   0.3373608494729003E-02
   0.3728336133813303E-02
  -0.1465719875381102E-01
  -0.6159685944394870E-03
   0.6651623924187572E-02
   0.1542020413234148E-02
   0.1969642168937676E-02
   0.4266263444159434E-02
  -0.2790959115376176E-02
   0.1226877121094482E-02
   0.2819168529271871E-02
   0.1497440077864100E-02
   0.2575325290459349E-02
   0.2030636195550952E-02
   0.2118039733223203E-02
   0.8700409713368145E-02
  -0.3733396312056058E-02
   0.6241190673694305E-02
   0.2516121393806765E-04
  -0.3854054873591651E-03
  -0.1674678968804690E-01
  -0.4881977534748407E-02
  -0.4720001392417788E-02
   0.3445219782988514E-02
  -0.6135724748488355E-02
   0.9934282361718927E-04
  -0.3291372970221778E-01
  -0.3046197845831917E-02
   0.4722742363143594E-02
   0.9228317623431657E-03
   0.2112172844302377E-02
   0.4518740603770940E-02
   0.2720453385280474E-02
   0.3212575304759368E-02
   0.5200792093493117E-02
   0.1941835645637945E-02
   0.7315696348277112E-03
  -0.2555945898672260E-04
  -0.5374645600779523E-02
  -0.6959621022669478E-02
  -0.9443746593312368E-03
   0.1105267521483715E-02
  -0.2080551210400083E-02
  -0.3200035261167320E-02
  -0.2527827026271857E-02
  -0.4115192084516150E-02
  -0.7593949201061043E-02
  -0.1985687152770865E-02
   0.6240226251589491E-03
  -0.2239116027770331E-03
   0.1216944778492972E-02
  -0.3483967168153376E-02
   0.5229133506320212E-02
  -0.8487626272152755E-02
   0.2313314523997681E-04
  -0.3395409433954172E-03
   0.2542660934474287E-02
   0.1663456161978625E-02
   0.2021437499399553E-02
  -0.5620782820631332E-02
SCALARS w double 1
LOOKUP_TABLE default
   0.0000000000000000E+00
   0.0000000000000000E+00
   0.0000000000000000E+00
   0.0000000000000000E+00
   0.0000000000000000E+00
   0.0000000000000000E+00
   0.0000000000000000E+00
   0.0000000000000000E+00
   0.0000000000000000E+00
   0.0000000000000000E+00
   0.0000000000000000E+00
   0.0000000000000000E+00
   0.0000000000000000E+00
   0.0000000000000000E+00
   0.0000000000000000E+00
   0.0000000000000000E+00
   0.0000000000000000E+00
   0.0000000000000000E+00
   0.0000000000000000E+00
   0.0000000000000000E+00
   0.0000000000000000E+00
   0.0000000000000000E+00
   0.0000000000000000E+00
   0.0000000000000000E+00
   0.0000000000000000E+00
   0.0000000000000000E+00
   0.0000000000000000E+00
   0.0000000000000000E+00
   0.0000000000000000E+00
   0.0000000000000000E+00
   0.0000000000000000E+00
   0.0000000000000000E+00
   0.0000000000000000E+00
  -0.1007611665130872E+00
  -0.4249292637636873E-01
   0.7371879164758186E-03
   0.5725812904109315E-02
   0.5698443489717681E-03
   0.1609788757857729E-02
   0.3375070976168018E-02
   0.2371768955441565E-02
   0.4590588686372717E-03
   0.3518226622519605E-02
   0.4521817980577220E-01
   0.6522938093361619E-01
   0.8689528383898316E-03
  -0.2261153908674639E-01
   0.4316551856471965E-02
   0.1358734020479239E-01
   0.1039452324836797E-01
   0.4900548637399024E-01
   0.2437441782867829E-02
  -0.6509925152838607E-02
  -0.7012093694047772E-03
   0.3411348273909988E-03
   0.3904109636109226E-02
  -0.3893251003072720E-01
   0.1798168124362436E-01
   0.1119637844702411E-01
   0.3403773487453716E-01
   0.8438807062144491E-02
   0.4937410414918168E-02
   0.4970463491939798E-02
   0.4871609724758897E-02
   0.6027254115454320E-02
   0.2599222979817707E-02
  -0.4144429694632593E-01
  -0.9954260375215897E-01
  -0.1121678261812094E+00
   0.5070924422737861E-02
   0.4230775320364523E-02
  -0.1004732187862498E+00
  -0.9895250409304684E-01
  -0.9875450351218659E-01
  -0.9462506541475726E-01
  -0.6807132517111469E-01
   0.5154957756406357E-02
  -0.1935331036610050E-01
  -0.1575800703365699E-01
  -0.6002876604590273E-02
   0.6819103531712720E-02
  -0.8010045024070248E-01
  -0.2781092945250333E-01
  -0.8096455339584595E-01
  -0.5873276327100720E-01
   0.3083622588332980E-02
   0.2685139206677073E-02
   0.2640431336237947E-02
   0.3450185555705800E-02
   0.4007074315700230E-02
   0.1201171236581298E-02
  -0.1438964571393783E-03
   0.2039892408111412E-02
   0.4895681840146097E-02
   0.3857384795745189E-02
   0.1114233250642258E-02
   0.1182713532244225E-02
   0.1465396423303959E-02
  -0.1653032108117767E-04
   0.8994004224958322E-04
   0.4386667848856092E-02
   0.2715726509838228E-02
   0.2322744873388839E-02
   0.5010599016863189E-02
   0.1071626592917765E-02
   0.2712225301248066E-02
   0.2013954318282455E-02
   0.2874453392567187E-04
   0.8374613462629840E-01
   0.2793869672576566E-02
  -0.8346650729151888E-03
  -0.1492920133049859E-03
   0.1409540830387593E+00
   0.1239332936407252E+00
  -0.1219092880644963E-02
  -0.4381936991913055E-02
  -0.3042988231255628E-03
  -0.6512248423063961E-02
  -0.1949571893324445E-02
   0.1557630968375808E+00
   0.7489978952173851E-01
   0.2550175047580082E-01
   0.1656445117403276E+00