# vtk DataFile Version 2.0
FUN3D:global_image_vtk
ASCII
DATASET UNSTRUCTURED_GRID
POINTS 213 double
    0.0000000000000000E+00    0.2500000000000000E+01    0.0000000000000000E+00
    0.1250000000000000E+01    0.2500000000000000E+01    0.0000000000000000E+00
    0.2500000000000000E+01    0.2500000000000000E+01    0.0000000000000000E+00
    0.3750000000000000E+01    0.2500000000000000E+01    0.0000000000000000E+00
    0.5000000000000000E+01    0.2500000000000000E+01    0.0000000000000000E+00
    0.5000000000000000E+01    0.1250000000000000E+01    0.0000000000000000E+00
    0.5000000000000000E+01    0.0000000000000000E+00    0.0000000000000000E+00
    0.5000000000000000E+01   -0.1250000000000000E+01    0.0000000000000000E+00
    0.5000000000000000E+01   -0.2500000000000000E+01    0.0000000000000000E+00
    0.3750000000000000E+01   -0.2500000000000000E+01    0.0000000000000000E+00
    0.2500000000000000E+01   -0.2500000000000000E+01    0.0000000000000000E+00
    0.1250000000000000E+01   -0.2500000000000000E+01    0.0000000000000000E+00
    0.0000000000000000E+00   -0.2500000000000000E+01    0.0000000000000000E+00
    0.0000000000000000E+00   -0.1250000000000000E+01    0.0000000000000000E+00
    0.0000000000000000E+00    0.0000000000000000E+00    0.0000000000000000E+00
    0.0000000000000000E+00    0.1250000000000000E+01    0.0000000000000000E+00
    0.9058375365086910E+00    0.1578994732800803E+01    0.0000000000000000E+00
    0.3982050490726493E+01   -0.1583989954232354E+01    0.0000000000000000E+00
    0.4033849428301197E+01    0.1453322699199022E+01    0.0000000000000000E+00
    0.1040505887381675E+01   -0.1479596339503735E+01    0.0000000000000000E+00
    0.1099454400140349E+01   -0.3227322616384110E+00    0.0000000000000000E+00
    0.7354504170366591E+00    0.6593508822075582E+00    0.0000000000000000E+00
    0.1622302608453282E+01    0.8256214013940779E+00    0.0000000000000000E+00
    0.2145871574390382E+01   -0.1650070333782557E+01    0.0000000000000000E+00
    0.4086422318222992E+01   -0.4612828702537229E+00    0.0000000000000000E+00
    0.2979540174134984E+01   -0.8579242121530853E+00    0.0000000000000000E+00
    0.3045064261640043E+01   -0.1836846154397680E+01    0.0000000000000000E+00
    0.3428197553792836E+01    0.3508002863614053E+00    0.0000000000000000E+00
    0.4309693860063405E+01    0.5185680230613409E+00    0.0000000000000000E+00
    0.1827272193562204E+01    0.1738996113203182E+01    0.0000000000000000E+00
    0.2808563282768077E+01    0.1325493893339706E+01    0.0000000000000000E+00
    0.1895995683864404E+01   -0.8731419609589618E+00    0.0000000000000000E+00
    0.2273179336307740E+01    0.4906150219227333E-01    0.0000000000000000E+00
    0.5000000000000000E+01    0.2500000000000000E+01    0.1250000000000000E+01
    0.5000000000000000E+01    0.2500000000000000E+01    0.2500000000000000E+01
    0.5000000000000000E+01    0.2500000000000000E+01    0.3750000000000000E+01
    0.5000000000000000E+01    0.2500000000000000E+01    0.5000000000000000E+01
    0.3750000000000000E+01    0.2500000000000000E+01    0.5000000000000000E+01
    0.2500000000000000E+01    0.2500000000000000E+01    0.5000000000000000E+01
    0.1250000000000000E+01    0.2500000000000000E+01    0.5000000000000000E+01
    0.0000000000000000E+00    0.2500000000000000E+01    0.5000000000000000E+01
    0.0000000000000000E+00    0.2500000000000000E+01    0.3750000000000000E+01
    0.0000000000000000E+00    0.2500000000000000E+01    0.2500000000000000E+01
    0.0000000000000000E+00    0.2500000000000000E+01    0.1250000000000000E+01
    0.9631080833812172E+00    0.2500000000000000E+01    0.9613285771248219E+00
    0.3981732467264904E+01    0.2500000000000000E+01    0.4069753913607991E+01
    0.4035525118777670E+01    0.2500000000000000E+01    0.1012015867579395E+01
    0.9641717640894248E+00    0.2500000000000000E+01    0.3972455192261839E+01
    0.1547743040396780E+01    0.2500000000000000E+01    0.2928177746738678E+01
    0.6985170616192014E+00    0.2500000000000000E+01    0.3068281976055466E+01
    0.8931277594515110E+00    0.2500000000000000E+01    0.2052465503257726E+01
    0.2183293750162785E+01    0.2500000000000000E+01    0.3959073795658649E+01
    0.3855333506014705E+01    0.2500000000000000E+01    0.2931218481500625E+01
    0.3152495579421047E+01    0.2500000000000000E+01    0.3635850502723324E+01
    0.3103247580566054E+01    0.2500000000000000E+01    0.4331682712472464E+01
    0.3266837581688852E+01    0.2500000000000000E+01    0.1886092433583972E+01
    0.4231539241296245E+01    0.2500000000000000E+01    0.1915865356532799E+01
    0.1909741006522088E+01    0.2500000000000000E+01    0.7170024419130505E+00
    0.2880784107213163E+01    0.2500000000000000E+01    0.9046598906449592E+00
    0.2014316024535771E+01    0.2500000000000000E+01    0.1762464314805728E+01
    0.2670003247036656E+01    0.2500000000000000E+01    0.2850479545835163E+01
    0.5000000000000000E+01    0.1250000000000000E+01    0.5000000000000000E+01
    0.5000000000000000E+01    0.0000000000000000E+00    0.5000000000000000E+01
    0.5000000000000000E+01   -0.1250000000000000E+01    0.5000000000000000E+01
    0.5000000000000000E+01   -0.2500000000000000E+01    0.5000000000000000E+01
    0.5000000000000000E+01   -0.2500000000000000E+01    0.3750000000000000E+01
    0.5000000000000000E+01   -0.2500000000000000E+01    0.2500000000000000E+01
    0.5000000000000000E+01   -0.2500000000000000E+01    0.1250000000000000E+01
    0.5000000000000000E+01    0.1578994732800803E+01    0.9058375365086910E+00
    0.5000000000000000E+01   -0.1583989954232354E+01    0.3982050490726493E+01
    0.5000000000000000E+01    0.1453322699199022E+01    0.4033849428301197E+01
    0.5000000000000000E+01   -0.1479596339503735E+01    0.1040505887381675E+01
    0.5000000000000000E+01   -0.3227322616384110E+00    0.1099454400140349E+01
    0.5000000000000000E+01    0.6593508822075582E+00    0.7354504170366591E+00
    0.5000000000000000E+01    0.8256214013940779E+00    0.1622302608453282E+01
    0.5000000000000000E+01   -0.1650070333782557E+01    0.2145871574390382E+01
    0.5000000000000000E+01   -0.4612828702537229E+00    0.4086422318222992E+01
    0.5000000000000000E+01   -0.8579242121530853E+00    0.2979540174134984E+01
    0.5000000000000000E+01   -0.1836846154397680E+01    0.3045064261640043E+01
    0.5000000000000000E+01    0.3508002863614053E+00    0.3428197553792836E+01
    0.5000000000000000E+01    0.5185680230613409E+00    0.4309693860063405E+01
    0.5000000000000000E+01    0.1738996113203182E+01    0.1827272193562204E+01
    0.5000000000000000E+01    0.1325493893339706E+01    0.2808563282768077E+01
    0.5000000000000000E+01   -0.8731419609589618E+00    0.1895995683864404E+01
    0.5000000000000000E+01    0.4906150219227333E-01    0.2273179336307740E+01
    0.0000000000000000E+00    0.1250000000000000E+01    0.5000000000000000E+01
    0.0000000000000000E+00    0.0000000000000000E+00    0.5000000000000000E+01
    0.0000000000000000E+00   -0.1250000000000000E+01    0.5000000000000000E+01
    0.0000000000000000E+00   -0.2500000000000000E+01    0.5000000000000000E+01
    0.1250000000000000E+01   -0.2500000000000000E+01    0.5000000000000000E+01
    0.2500000000000000E+01   -0.2500000000000000E+01    0.5000000000000000E+01
    0.3750000000000000E+01   -0.2500000000000000E+01    0.5000000000000000E+01
    0.4042003247744892E+01    0.1558308132739014E+01    0.5000000000000000E+01
    0.9304122287900499E+00   -0.1548001304379777E+01    0.5000000000000000E+01
    0.1037243024609388E+01    0.1462892710085612E+01    0.5000000000000000E+01
    0.3946240828834967E+01   -0.1445243809615570E+01    0.5000000000000000E+01
    0.4092527262848217E+01   -0.3455338993778935E+00    0.5000000000000000E+01
    0.4293103109154542E+01    0.6277660831404320E+00    0.5000000000000000E+01
    0.3241512314643519E+01    0.7429886854239611E+00    0.5000000000000000E+01
    0.2844289952419609E+01   -0.1588117879734118E+01    0.5000000000000000E+01
    0.7159905765450471E+00   -0.6002320124191652E+00    0.5000000000000000E+01
    0.1754341919796891E+01   -0.7398147869923652E+00    0.5000000000000000E+01
    0.1870296826774691E+01   -0.1788622905643739E+01    0.5000000000000000E+01
    0.9220614901912976E+00    0.3083720183248586E+00    0.5000000000000000E+01
    0.3101523624086016E+01    0.1777901774806180E+01    0.5000000000000000E+01
    0.2192512063922564E+01    0.1576861561598471E+01    0.5000000000000000E+01
    0.2024793420196460E+01    0.4773861992750707E+00    0.5000000000000000E+01
    0.2990627757741975E+01   -0.4878110785814084E+00    0.5000000000000000E+01
    0.0000000000000000E+00   -0.2500000000000000E+01    0.1250000000000000E+01
    0.0000000000000000E+00   -0.2500000000000000E+01    0.2500000000000000E+01
    0.0000000000000000E+00   -0.2500000000000000E+01    0.3750000000000000E+01
    0.0000000000000000E+00    0.1558308132739014E+01    0.4042003247744892E+01
    0.0000000000000000E+00   -0.1548001304379777E+01    0.9304122287900499E+00
    0.0000000000000000E+00    0.1462892710085612E+01    0.1037243024609388E+01
    0.0000000000000000E+00   -0.1445243809615570E+01    0.3946240828834967E+01
    0.0000000000000000E+00   -0.3455338993778935E+00    0.4092527262848217E+01
    0.0000000000000000E+00    0.6277660831404320E+00    0.4293103109154542E+01
    0.0000000000000000E+00    0.7429886854239611E+00    0.3241512314643519E+01
    0.0000000000000000E+00   -0.1588117879734118E+01    0.2844289952419609E+01
    0.0000000000000000E+00   -0.6002320124191652E+00    0.7159905765450471E+00
    0.0000000000000000E+00   -0.7398147869923652E+00    0.1754341919796891E+01
    0.0000000000000000E+00   -0.1788622905643739E+01    0.1870296826774691E+01
    0.0000000000000000E+00    0.3083720183248586E+00    0.9220614901912976E+00
    0.0000000000000000E+00    0.1777901774806180E+01    0.3101523624086016E+01
    0.0000000000000000E+00    0.1576861561598471E+01    0.2192512063922564E+01
[...]
POINT_DATA 213
SCALARS rho double 1
LOOKUP_TABLE default
   0.1344271447736726E+01
   0.9569758910472921E+00
   0.9462964175422868E+00
   0.9418612685735251E+00
   0.8437304873629320E+00
   0.7738004284531228E+00
   0.7629818915466068E+00
   0.7664577883978558E+00
   0.8307874039348080E+00
   0.9352972551616726E+00
   0.9342219821864907E+00
   0.9617195271929012E+00
   0.1449457443388867E+01
   0.1494090642042848E+01
   0.1644667275420951E+01
   0.1425832044252368E+01
   0.1009014433566749E+01
   0.9508810839711229E+00
   0.9436508478968795E+00
   0.9581561035239035E+00
   0.9415852462060843E+00
   0.1036377239929949E+01
   0.9256161097293720E+00
   0.9322349849652055E+00
   0.9537479574967885E+00
   0.9518769546350450E+00
   0.9348583100639880E+00
   0.9564028400703856E+00
   0.9376098388261218E+00
   0.9300661523446323E+00
   0.9445157475914415E+00
   0.8863506506563058E+00
   0.9423579947832663E+00
   0.9635003075442355E+00
   0.1008299039541145E+01
   0.1006735291842173E+01
   0.1001964617567628E+01
   0.1003219581465983E+01
   0.1004132053895327E+01
   0.1005228602878716E+01
   0.1004260408208822E+01
   0.1008308189899640E+01
   0.1023893137805277E+01
   0.1063553955927743E+01
   0.1019182513000150E+01
   0.1001780766382220E+01
   0.9643309930538942E+00
   0.1005283708912272E+01
   0.1000721163214498E+01
   0.1008742083713885E+01
   0.1008078083568073E+01
   0.1002349807040373E+01
   0.9979986848000481E+00
   0.1000583560883926E+01
   0.1001620123587158E+01
   0.9826893072399062E+00
   0.9842439641036549E+00
   0.9833314032664410E+00
   0.9788207406091085E+00
   0.9902638160323844E+00
   0.9934561552576300E+00
   0.1002011751625785E+01
   0.1002134465635702E+01
   0.1002276326495031E+01
   0.1001794758328576E+01
   0.1009778638902056E+01
   0.1006429109054377E+01
   0.9558786954916209E+00
   0.9249398402830229E+00
   0.1007036755531910E+01
   0.1004504925158805E+01
   0.9143642067550355E+00
   0.9089667856667419E+00
   0.8751688893673165E+00
   0.9767271883905354E+00
   0.1000452621137344E+01
   0.1005831087461918E+01
   0.1012882803351998E+01
   0.1011618951352171E+01
   0.1010438648654263E+01
   0.1005468280897732E+01
   0.9907612678991056E+00
   0.1005140325734171E+01
   0.9860567246002214E+00
   0.1005609737753424E+01
   0.1004248005671557E+01
   0.1002888437659747E+01
   0.1003345420413503E+01
   0.1003992731837074E+01
   0.1005101716113086E+01
   0.1003211645102146E+01
   0.1002663159933971E+01
   0.1002586231385997E+01
   0.1004060870900824E+01
   0.1004320345993267E+01
   0.1001641920341366E+01
   0.1002273115950104E+01
   0.1002543475560575E+01
   0.1003469520774521E+01
   0.1003372640225117E+01
   0.1003232230004709E+01
   0.1004423863405855E+01
   0.1004313070792433E+01
   0.1003659849363544E+01
   0.1003723103892114E+01
   0.1004329726383091E+01
   0.1004465021823815E+01
   0.1003623375293453E+01
   0.1064422801104259E+01
   0.1028473621146254E+01
   0.1009586657248418E+01
   0.1006638837416511E+01
   0.1163935521213862E+01
   0.1086087969729665E+01
   0.1007893419203686E+01
   0.1007245533248141E+01
   0.1006798074092292E+01
   0.1013018286830610E+01
   0.1019384609366206E+01
   0.1235203669271699E+01
   0.1032529466542031E+01
   0.1046681191273589E+01
   0.1200953641980866E+01
   0.1014718915936428E+01
   0.1032291153071307E+01
   0.1028095236510021E+01
   0.1014628639689530E+01
   0.1029216892369605E+01
   0.1001994816342256E+01
   0.9606929187738391E+00
   0.1006852582734168E+01
   0.1001327193292818E+01
   0.1010821905287100E+01
   0.1012246098864649E+01
   0.1000946006876247E+01
   0.9979121234103189E+00
   0.9980632372385436E+00
   0.1001184143333934E+01
   0.9841362010724073E+00
   0.9814879613654509E+00
   0.9648483316860880E+00
   0.9680877121743207E+00
   0.9914124469958121E+00
   0.9910858388094852E+00
   0.9925545095568061E+00
   0.1001727533819731E+01
   0.9993409401623468E+00
   0.9941410834835129E+00
   0.1007038753579264E+01
   0.1022539494052241E+01
   0.1001088098309768E+01
   0.1008798496183905E+01
   0.1004773846022222E+01
   0.1009050237366375E+01
   0.9966470331535443E+00
   0.1004988557305118E+01
   0.1003325535118416E+01
   0.9949431084905428E+00
   0.9832680781329133E+00
   0.9943957454810719E+00
   0.9973420655936288E+00
   0.9932190085757554E+00
   0.1001306487084998E+01
   0.1003001636891209E+01
   0.1002183579583230E+01
   0.9947078545324070E+00
   0.9937965521056088E+00
   0.1004867865456462E+01
   0.1020077607361472E+01
   0.1005364552302102E+01
   0.9816998152312177E+00
   0.1004973031178903E+01
   0.1012382323320135E+01
   0.9871424292581215E+00
   0.9551513532820292E+00
   0.9865075699799235E+00
   0.9864532949138026E+00
   0.9918946939869512E+00
   0.9933508197455024E+00
   0.9954406183844512E+00
   0.1037336789614056E+01
   0.1033536797830931E+01
   0.1001443320762854E+01
   0.1001930499708810E+01
   0.9912478516535943E+00
   0.9910920509363685E+00
   0.9648489987164038E+00
   0.9933282604832786E+00
   0.1006058638659460E+01
   0.1001954027109403E+01
   0.9908735804175209E+00
   0.9740945211141390E+00
   0.9418802133456736E+00
   0.9819379689230591E+00
   0.9794803560473220E+00
   0.9704172057785728E+00
   0.9720478942565344E+00
   0.9557351700685954E+00
   0.9496731208309946E+00
   0.9528673562375692E+00
   0.1002659533959341E+01
   0.1002471631877246E+01
   0.1000509329234699E+01
   0.1001677321729260E+01
   0.9607931426880623E+00
   0.9491625497962727E+00
   0.9584503054943110E+00
   0.1001121207700181E+01
   0.1000496140521585E+01
   0.1001156644142269E+01
   0.9807376182893647E+00
   0.9806000806391545E+00
   0.9628476101732883E+00
SCALARS u double 1
LOOKUP_TABLE default
   0.0000000000000000E+00
   0.0000000000000000E+00
   0.0000000000000000E+00
   0.0000000000000000E+00
   0.0000000000000000E+00
   0.0000000000000000E+00
   0.0000000000000000E+00
   0.0000000000000000E+00
   0.0000000000000000E+00
   0.0000000000000000E+00
   0.0000000000000000E+00
   0.0000000000000000E+00
   0.0000000000000000E+00
   0.0000000000000000E+00
   0.0000000000000000E+00
   0.0000000000000000E+00
   0.0000000000000000E+00
   0.0000000000000000E+00
   0.0000000000000000E+00
   0.0000000000000000E+00
   0.0000000000000000E+00
   0.0000000000000000E+00
   0.0000000000000000E+00
   0.0000000000000000E+00
   0.0000000000000000E+00
   0.0000000000000000E+00
   0.0000000000000000E+00
   0.0000000000000000E+00
   0.0000000000000000E+00
   0.0000000000000000E+00
   0.0000000000000000E+00
   0.0000000000000000E+00
   0.0000000000000000E+00
   0.4950176839507845E+00
   0.5338221299218792E+00
   0.5183269246716732E+00
   0.4930649880187318E+00
   0.4847578720329231E+00
   0.4867666424983615E+00
   0.4890763584533108E+00
   0.4957848881065446E+00
   0.4898301884884926E+00
   0.4717388495371663E+00
   0.4454814155486124E+00
   0.4833907047777955E+00
   0.5098397462794743E+00
   0.4390712704695993E+00
   0.4949403965685370E+00
   0.5225330363040671E+00
   0.4962454546690888E+00
   0.5226154964350828E+00
   0.5038881743882261E+00
   0.5646883608815771E+00
   0.5247509157137243E+00
   0.4991466120292494E+00
   0.5730561901852963E+00
   0.5696051097545456E+00
   0.3737941449140194E+00
   0.3998658125679475E+00
   0.5599326587114173E+00
   0.5564587630804505E+00
   0.4942627332913658E+00
   0.4948659466074927E+00
   0.4925735874175549E+00
   0.4914269544079946E+00
   0.5162356850251988E+00
   0.5361798304676847E+00
   0.4947413361857990E+00
   0.4524112210389902E+00
   0.5128777325165209E+00
   0.5117942040318127E+00
   0.4783517512779931E+00
   0.4931696659509137E+00
   0.4603173600322475E+00
   0.5244892721635669E+00
   0.5297434247681374E+00
   0.5129579300470070E+00
   0.5328358318136813E+00
   0.5308941036028607E+00
   0.5309856169378488E+00
   0.5063656735176097E+00
   0.5282461954973732E+00
   0.5410312729340562E+00
   0.5361261481554467E+00
   0.5374105275026527E+00
   0.4965364819250420E+00
   0.4975340904509838E+00
   0.4963842645058671E+00
   0.4955220268146443E+00
   0.4904581832077625E+00
   0.4903044386157095E+00
   0.4862182764978687E+00
   0.4854049561872830E+00
   0.4932164388843677E+00
   0.4909833313186009E+00
   0.4832194697192217E+00
   0.4872622777732357E+00
   0.4880124910078961E+00
   0.4872445932356875E+00
   0.4882696670329414E+00
   0.4952597557251217E+00
   0.4900967168794280E+00
   0.4904000091668854E+00
   0.4944232926333132E+00
   0.4868002481768930E+00
   0.4892385984839674E+00
   0.4881393370626984E+00
   0.4878457829706106E+00
   0.4446866580254437E+00
   0.4700028782298908E+00
   0.4891999057421473E+00
   0.4885247844505424E+00
   0.4506533050949098E+00
   0.4687378567195329E+00
   0.4877010457700801E+00
   0.4868353684182026E+00
   0.4908994716754788E+00
   0.4793551577971430E+00
   0.4658071748481964E+00
   0.3792725229459828E+00
   0.4901596531434638E+00
   0.4486686692399089E+00
   0.4436137392393609E+00
   0.4845147242299497E+00
   0.4621822646973549E+00
   0.4665749536214962E+00
   0.4748140300760000E+00
   0.4894494213007516E+00
   0.5085556973319219E+00
   0.4315073874041056E+00
   0.4927349361863740E+00
   0.5318289233961945E+00
   0.4913399196744431E+00
   0.5207019993359852E+00
   0.5060964599858849E+00
   0.5688797394991254E+00
   0.5273992817799232E+00
   0.5015044841793421E+00
   0.5821790087089175E+00
   0.5689618253103045E+00
   0.3406394441907682E+00
   0.3789869412871885E+00
   0.5751958206368893E+00
   0.5666485492993825E+00
   0.5704108783175021E+00
   0.5291056376423744E+00
   0.5451902711328546E+00
   0.5718804315176488E+00
   0.5389079126483668E+00
   0.5475507505127780E+00
   0.5821713868538113E+00
   0.4925601785105844E+00
   0.5042157546869384E+00
   0.4961735436833654E+00
   0.5565207962903301E+00
   0.4758845210041395E+00
   0.4950268384220949E+00
   0.5498525443597966E+00
   0.5891202296761476E+00
   0.5841957609311095E+00
   0.5469097664602683E+00
   0.5805417617642337E+00
   0.5106251438890093E+00
   0.5030200513669624E+00
   0.5033624680398247E+00
   0.5676446096058756E+00
   0.5563943082844670E+00
   0.4947255973990707E+00
   0.5505243828824679E+00
   0.5510857280992277E+00
   0.5657350949763370E+00
   0.4920070018405909E+00
   0.4927299097239028E+00
   0.3865140568668867E+00
   0.3687754532668377E+00
   0.5574921717328070E+00
   0.5763755545541964E+00
   0.4194304389977900E+00
   0.5824843240559191E+00
   0.4265209609147497E+00
   0.5392799844265844E+00
   0.5012032759565354E+00
   0.5119513208572182E+00
   0.5049119464205274E+00
   0.5751974973475040E+00
   0.5876371360232011E+00
   0.5379907807140711E+00
   0.5677472540013146E+00
   0.5351248666062391E+00
   0.5338056379324397E+00
   0.5580313798191531E+00
   0.5512707862210234E+00
   0.4261852756676955E+00
   0.5273356177788383E+00
   0.5795712529622988E+00
   0.3318687133101754E+00
   0.4760283324435735E+00
   0.5446196254199884E+00
   0.4798331900879621E+00
   0.3005293508184582E+00
   0.5031051138591026E+00
   0.5017115978259578E+00
   0.5129033211220649E+00
   0.5414840108215599E+00
   0.3437603854715839E+00
   0.3397710716075321E+00
   0.3189928570696842E+00
   0.5065936052358300E+00
   0.5123483779928113E+00
   0.5330313519309930E+00
   0.5879310000197464E+00
   0.4644180532993223E+00
   0.3531270508913807E+00
SCALARS v double 1
LOOKUP_TABLE default
   0.0000000000000000E+00
   0.0000000000000000E+00
   0.0000000000000000E+00
   0.0000000000000000E+00
   0.0000000000000000E+00
   0.0000000000000000E+00
   0.0000000000000000E+00
   0.0000000000000000E+00
   0.0000000000000000E+00
   0.0000000000000000E+00
   0.0000000000000000E+00
   0.0000000000000000E+00
   0.0000000000000000E+00
   0.0000000000000000E+00
   0.0000000000000000E+00
   0.0000000000000000E+00
   0.0000000000000000E+00
   0.0000000000000000E+00
   0.0000000000000000E+00
   0.0000000000000000E+00
   0.0000000000000000E+00
   0.0000000000000000E+00
   0.0000000000000000E+00
   0.0000000000000000E+00
   0.0000000000000000E+00
   0.0000000000000000E+00
   0.0000000000000000E+00
   0.0000000000000000E+00
   0.0000000000000000E+00
   0.0000000000000000E+00
   0.0000000000000000E+00
   0.0000000000000000E+00
   0.0000000000000000E+00
   0.0000000000000000E+00
   0.0000000000000000E+00
   0.0000000000000000E+00
   0.0000000000000000E+00
   0.0000000000000000E+00
   0.0000000000000000E+00
   0.0000000000000000E+00
   0.0000000000000000E+00
   0.0000000000000000E+00
   0.0000000000000000E+00
   0.0000000000000000E+00
   0.0000000000000000E+00
   0.0000000000000000E+00
   0.0000000000000000E+00
   0.0000000000000000E+00
   0.0000000000000000E+00
   0.0000000000000000E+00
   0.0000000000000000E+00
   0.0000000000000000E+00
   0.0000000000000000E+00
   0.0000000000000000E+00
   0.0000000000000000E+00
   0.0000000000000000E+00
   0.0000000000000000E+00
   0.0000000000000000E+00
   0.0000000000000000E+00
   0.0000000000000000E+00
   0.0000000000000000E+00
   0.7970254476716334E-03
  -0.1329294698764387E-02
  -0.1332592762125741E-02
   0.0000000000000000E+00
   0.0000000000000000E+00
   0.0000000000000000E+00
   0.0000000000000000E+00
  -0.1922562558850643E-01
   0.4770618116212957E-03
   0.2183360177858182E-02
   0.1427333026440175E-01
  -0.6488282161623669E-02
  -0.7821622777654384E-02
  -0.1327725051329650E-01
   0.4914481780258759E-02
   0.6907121987476097E-03
   0.3434418432630731E-02
   0.1920847378681551E-02
   0.3147960246982559E-02
   0.1704778375829926E-02
  -0.7316187319405443E-02
  -0.7701900489590352E-04
   0.4468738002722595E-02
  -0.4387156233587487E-03
  -0.6383742363947861E-04
  -0.1963394584153976E-03
   0.8071267987421448E-03
   0.0000000000000000E+00
   0.0000000000000000E+00
   0.0000000000000000E+00
   0.0000000000000000E+00
   0.4257020168381858E-03
   0.1616304630859859E-02
  -0.1297550943042869E-02
  -0.1022774984947128E-02
  -0.2134342419415642E-02
  -0.1064012669052586E-02
  -0.8200064319640900E-03
  -0.7617033244565309E-03
   0.5202258831169347E-04
  -0.6244091934999500E-03
   0.7916469168299168E-03
  -0.1745238507150465E-02
   0.2747128632206019E-03
  -0.8939747388902539E-04
  -0.9424310121236781E-03
  -0.1100227545255586E-02
   0.0000000000000000E+00
   0.0000000000000000E+00
   0.0000000000000000E+00
  -0.1061759102145380E-02
  -0.7641129348390562E-02
   0.1860854751737926E-01
  -0.2834553561557722E-04
  -0.1383129142413261E-02
  -0.2035122961711152E-02
  -0.5666383177235357E-02
  -0.1585210192727388E-02
  -0.5947016649642443E-02
  -0.4160601997632644E-02
   0.1565614845817862E-02
   0.3329524840206498E-01
   0.3055140706115459E-04
  -0.2766884885298989E-02
   0.3566484706014629E-02
   0.3596189468479928E-03
   0.0000000000000000E+00
   0.0000000000000000E+00
   0.0000000000000000E+00
   0.0000000000000000E+00
   0.0000000000000000E+00
   0.0000000000000000E+00
   0.0000000000000000E+00
   0.0000000000000000E+00
   0.0000000000000000E+00
   0.0000000000000000E+00
   0.0000000000000000E+00
   0.0000000000000000E+00
   0.0000000000000000E+00
   0.0000000000000000E+00
   0.0000000000000000E+00
   0.0000000000000000E+00
   0.0000000000000000E+00
   0.5047032572495524E-02
   0.3230791932388424E-02
   0.8149134277109751E-02
   0.6168366978380010E-02
   0.1122928638280805E-01
   0.1429277501707008E-01
  -0.2038826637710528E-03
   0.5118221822333973E-02
   0.2914950543503912E-02
   0.3373611829466875E-02
   0.3728336428771504E-02
  -0.1465719871019194E-01
  -0.6159699899552908E-03
   0.6651630348728437E-02
   0.1542014267651183E-02
   0.1969646528871668E-02
   0.4266273538422769E-02
  -0.2790960947468494E-02
   0.1226887070525671E-02
   0.2819172488059398E-02
   0.1497449160123692E-02
   0.2575339051511779E-02
   0.2030646438909632E-02
   0.2118046067112632E-02
   0.8700410412424349E-02
  -0.3733397031573197E-02
   0.6241189082061208E-02
   0.2516489000386780E-04
  -0.3854044971218415E-03
  -0.1674679008299080E-01
  -0.4881976865805679E-02
  -0.4720000798412879E-02
   0.3445223057149062E-02
  -0.6135724105507246E-02
   0.9934521214569812E-04
  -0.3291372911896755E-01
  -0.3046196899959453E-02
   0.4722743107228965E-02
   0.9228367993262169E-03
   0.2112175233112264E-02
   0.4518755684415308E-02
   0.2720465274016064E-02
   0.3212576515570534E-02
   0.5200804220881009E-02
   0.1941838963675861E-02
   0.7315897461613982E-03
  -0.2555240573369013E-04
  -0.5374632800939944E-02
  -0.6959590974161050E-02
  -0.9443816343501330E-03
   0.1105268421835440E-02
  -0.2080554061391937E-02
  -0.3200035923372100E-02
  -0.2527833368642644E-02
  -0.4115193625994174E-02
  -0.7593954919004624E-02
  -0.1985686409699096E-02
   0.6240402830608521E-03
  -0.2239081754858856E-03
   0.1216949786176133E-02
  -0.3483958271517949E-02
   0.5229139973189101E-02
  -0.8487626022183687E-02
   0.2315169761307687E-04
  -0.3395192896969340E-03
   0.2542663553916863E-02
   0.1663457668277729E-02
   0.2021438708861541E-02
  -0.5620783953497915E-02
SCALARS w double 1
LOOKUP_TABLE default
   0.0000000000000000E+00
   0.0000000000000000E+00
   0.0000000000000000E+00
   0.0000000000000000E+00
   0.0000000000000000E+00
   0.0000000000000000E+00
   0.0000000000000000E+00
   0.0000000000000000E+00
   0.0000000000000000E+00
   0.0000000000000000E+00
   0.0000000000000000E+00
   0.0000000000000000E+00
   0.0000000000000000E+00
   0.0000000000000000E+00
   0.0000000000000000E+00
   0.0000000000000000E+00
   0.0000000000000000E+00
   0.0000000000000000E+00
   0.0000000000000000E+00
   0.0000000000000000E+00
   0.0000000000000000E+00
   0.0000000000000000E+00
   0.0000000000000000E+00
   0.0000000000000000E+00
   0.0000000000000000E+00
   0.0000000000000000E+00
   0.0000000000000000E+00
   0.0000000000000000E+00
   0.0000000000000000E+00
   0.0000000000000000E+00
   0.0000000000000000E+00
   0.0000000000000000E+00
   0.0000000000000000E+00
  -0.1007612293417167E+00
  -0.4249297148805296E-01
   0.7371986064124592E-03
   0.5725799918205911E-02
   0.5699057398789395E-03
   0.1609783103124835E-02
   0.3375073014485259E-02
   0.2371773639287592E-02
   0.4590624747830946E-03
   0.3518225889244659E-02
   0.4521817574776259E-01
   0.6522937802921158E-01
   0.8689296906419171E-03
  -0.2261151842512652E-01
   0.4316553518530487E-02
   0.1358734834563038E-01
   0.1039452549897368E-01
   0.4900548405187665E-01
   0.2437443504096815E-02
  -0.6509941134496818E-02
  -0.7012227588416616E-03
   0.3411016344359750E-03
   0.3904107329749365E-02
  -0.3893254321562620E-01
   0.1798168100082993E-01
   0.1119638189257605E-01
   0.3403773251437907E-01
   0.8438810195201246E-02
   0.4937312256831451E-02
   0.4970345568230413E-02
   0.4871517404059804E-02
   0.6027191703023902E-02
   0.2599191735462235E-02
  -0.4144429610807678E-01
  -0.9954261890849862E-01
  -0.1121678224590975E+00
   0.5070875020600764E-02
   0.4230770697555355E-02
  -0.1004732307826147E+00
  -0.9895252534367649E-01
  -0.9875450984469569E-01
  -0.9462509643815063E-01
  -0.6807133849392026E-01
   0.5154922185866597E-02
  -0.1935330754810399E-01
  -0.1575800299793020E-01
  -0.6002862416950839E-02
   0.6819057387064486E-02
  -0.8010050837305793E-01
  -0.2781092467695962E-01
  -0.8096457379313625E-01
  -0.5873277574969305E-01
   0.3083625679790609E-02
   0.2685146462034314E-02
   0.2640431173328900E-02
   0.3450191912820592E-02
   0.4007083777966234E-02
   0.1201214311657689E-02
  -0.1438846512057339E-03
   0.2039877269522627E-02
   0.4895693604855878E-02
   0.3857385588278940E-02
   0.1114201935519631E-02
   0.1182682024565908E-02
   0.1465296231752849E-02
  -0.1653639663459542E-04
   0.8996623908095451E-04
   0.4386667861307003E-02
   0.2715724234263891E-02
   0.2322755292210904E-02
   0.5010601032734745E-02
   0.1071689332456623E-02
   0.2712217715102330E-02
   0.2013964084583261E-02
   0.2879084751526943E-04
   0.8374614276710780E-01
   0.2793870712784073E-02
  -0.8346628107996031E-03
  -0.1492945494752702E-03
   0.1409540840344932E+00
   0.1239332954745427E+00
  -0.1219093297298104E-02
  -0.4381936077848447E-02
  -0.3043057836087378E-03
  -0.6512246804522437E-02
  -0.1949570315569216E-02
   0.1557630974708622E+00
   0.7489979192620493E-01
   0.2550174902489402E-01
   0.1656445120608523E+00