title="tecplot geometry and solution file"
variables = x y z mach temperature lambda1 lambda2 lambda3 lambda4 lambda5
zone t="boundary 1 bc-1", solutiontime= 0.2000000E+02, strandid=1001, i=32, j=46, f=feblock
  0.000000000000E+00  0.000000000000E+00  0.000000000000E+00  0.000000000000E+00  0.000000000000E+00  0.000000000000E+00  0.000000000000E+00
  0.000000000000E+00  0.000000000000E+00  0.000000000000E+00  0.000000000000E+00  0.000000000000E+00  0.000000000000E+00  0.000000000000E+00
  0.000000000000E+00  0.000000000000E+00  0.000000000000E+00  0.000000000000E+00  0.000000000000E+00  0.000000000000E+00  0.000000000000E+00
  0.000000000000E+00  0.000000000000E+00  0.000000000000E+00  0.000000000000E+00  0.000000000000E+00  0.000000000000E+00  0.000000000000E+00
  0.000000000000E+00  0.000000000000E+00  0.000000000000E+00  0.000000000000E+00
  0.250000000000E+01  0.250000000000E+01  0.125000000000E+01  0.146289271009E+01  0.157686156160E+01  0.308372018325E+00  0.000000000000E+00
 -0.125000000000E+01 -0.600232012419E+00  0.250000000000E+01  0.477386199275E+00  0.742988685424E+00 -0.739814786992E+00  0.177790177481E+01
  0.155830813274E+01  0.250000000000E+01 -0.250000000000E+01 -0.154800130438E+01 -0.487811078581E+00  0.250000000000E+01  0.627766083140E+00
 -0.345533899378E+00 -0.178862290564E+01 -0.158811787973E+01  0.125000000000E+01 -0.250000000000E+01 -0.144524380962E+01  0.000000000000E+00
 -0.125000000000E+01 -0.250000000000E+01 -0.250000000000E+01 -0.250000000000E+01
  0.000000000000E+00  0.125000000000E+01  0.000000000000E+00  0.103724302461E+01  0.219251206392E+01  0.922061490191E+00  0.000000000000E+00
  0.000000000000E+00  0.715990576545E+00  0.250000000000E+01  0.202479342020E+01  0.324151231464E+01  0.175434191980E+01  0.310152362409E+01
  0.404200324774E+01  0.375000000000E+01  0.000000000000E+00  0.930412228790E+00  0.299062775774E+01  0.500000000000E+01  0.429310310915E+01
  0.409252726285E+01  0.187029682677E+01  0.284428995242E+01  0.500000000000E+01  0.125000000000E+01  0.394624082883E+01  0.500000000000E+01
  0.500000000000E+01  0.250000000000E+01  0.375000000000E+01  0.500000000000E+01
  0.500000000000E+00  0.500000000000E+00  0.500000000000E+00  0.500000000000E+00  0.500000000000E+00  0.500000000000E+00  0.500000000000E+00
  0.500000000000E+00  0.500000000000E+00  0.500000000000E+00  0.500000000000E+00  0.500000000000E+00  0.500000000000E+00  0.500000000000E+00
  0.500000000000E+00  0.500000000000E+00  0.500000000000E+00  0.500000000000E+00  0.500000000000E+00  0.500000000000E+00  0.500000000000E+00
  0.500000000000E+00  0.500000000000E+00  0.500000000000E+00  0.500000000000E+00  0.500000000000E+00  0.500000000000E+00  0.500000000000E+00
  0.500000000000E+00  0.500000000000E+00  0.500000000000E+00  0.500000000000E+00
  0.100000000000E+01  0.100000000000E+01  0.100000000000E+01  0.100000000000E+01  0.100000000000E+01  0.100000000000E+01  0.100000000000E+01
  0.100000000000E+01  0.100000000000E+01  0.100000000000E+01  0.100000000000E+01  0.100000000000E+01  0.100000000000E+01  0.100000000000E+01
  0.100000000000E+01  0.100000000000E+01  0.100000000000E+01  0.100000000000E+01  0.100000000000E+01  0.100000000000E+01  0.100000000000E+01
  0.100000000000E+01  0.100000000000E+01  0.100000000000E+01  0.100000000000E+01  0.100000000000E+01  0.100000000000E+01  0.100000000000E+01
  0.100000000000E+01  0.100000000000E+01  0.100000000000E+01  0.100000000000E+01
 -0.119915253134E-01  0.363372902777E-02 -0.180457960050E-01  0.486506272931E-02  0.277606319282E-02  0.755514665491E-02 -0.250283879461E-01
 -0.184194585479E-01  0.496565546404E-02  0.184419538495E-02  0.305318520885E-02 -0.413570592599E-04  0.320358705647E-02  0.317835217291E-03
 -0.375378660585E-03 -0.623466185393E-03 -0.167848017381E-01  0.645561879933E-02  0.234080729133E-03  0.457409799796E-04 -0.348243985012E-03
 -0.353814765294E-03  0.260157367563E-02  0.463935922818E-03  0.198734957201E-04  0.397569686229E-02 -0.217351433532E-03  0.412910457012E-04
 -0.167331057061E-04  0.150801958380E-02 -0.247025004373E-03 -0.130785998271E-03
 -0.233861360865E-02  0.774157734349E-03 -0.351835772800E-02  0.997888056677E-03  0.570553340146E-03  0.156553768329E-02 -0.515074997847E-02
 -0.396704488172E-02  0.116005475050E-02  0.366240226981E-03  0.653096272212E-03 -0.185893628865E-04  0.685232062942E-03  0.501160904608E-04
 -0.822109654781E-04 -0.140287249763E-03 -0.348244053480E-02  0.138924999569E-02  0.466738386131E-04  0.197949027496E-04 -0.733472595575E-04
 -0.775222062399E-04  0.568483140801E-03  0.842444694117E-04  0.110719228046E-04  0.864538886696E-03 -0.510234771788E-04  0.140427408305E-04
  0.464430733047E-05  0.303052382858E-03 -0.621475028738E-04 -0.180270262899E-04
 -0.262709866545E-04 -0.866202127899E-05 -0.973788386401E-04  0.426824238182E-05 -0.302738489590E-05  0.331591215713E-04 -0.142087997138E-03
  0.144177055376E-05  0.274159141768E-04  0.147022038248E-06  0.203109300084E-04  0.782905802697E-05  0.233659853998E-04  0.541467743898E-05
  0.269582235420E-05  0.261778193846E-06 -0.374050477098E-06 -0.163044298978E-05  0.119566339574E-04  0.267408380131E-06  0.196465000846E-05
  0.548668773445E-06 -0.373911526837E-04  0.722947505557E-05  0.251684498480E-05 -0.162924701738E-04  0.234023475299E-05  0.169391343643E-05
  0.112543580474E-05 -0.119546544920E-05 -0.607512859488E-06 -0.390691395583E-06
 -0.295161693117E-03 -0.153538427521E-04 -0.751997285761E-03 -0.204201288582E-04 -0.602073755508E-04 -0.136817331818E-03 -0.955629194631E-03
 -0.819888359380E-03 -0.356632473336E-03 -0.487211247212E-04 -0.218274949348E-04  0.529545910382E-05  0.248599238784E-04 -0.116545796840E-04
  0.482837789428E-05  0.690237856756E-05 -0.625280294098E-03 -0.156654059571E-03 -0.348499748704E-05  0.363367079470E-05  0.760333772113E-05
  0.553263708878E-05 -0.196185441643E-04 -0.637526250483E-05  0.433086254222E-05 -0.556434620317E-04  0.706096571444E-05  0.480689708811E-05
  0.587935528473E-05 -0.180667695254E-04  0.187732094271E-04  0.671872713209E-05
  0.493486702451E-02 -0.151546819212E-02  0.743873094429E-02 -0.200422460784E-02 -0.116864059198E-02 -0.316550629962E-02  0.105364608911E-01
  0.783331054001E-02 -0.215763907884E-02 -0.776268654091E-03 -0.129049976013E-02  0.151095121608E-04 -0.134831429826E-02 -0.131489629426E-03
  0.157068364649E-03  0.261584350406E-03  0.701931249946E-02 -0.274794968914E-02 -0.103950887933E-03 -0.216736992057E-04  0.145157405060E-03
  0.147334910601E-03 -0.109629474573E-02 -0.197359978761E-03 -0.102924894935E-04 -0.164696091402E-02  0.903523420473E-04 -0.189774376000E-04
  0.466669295706E-05 -0.638060943415E-03  0.102251961143E-03  0.523718668786E-04
        12        19        11        11
        11         5        12        12
        10        14         5         5
        19        13        11        11
        19        24        13        13
        30        23        24        24
        19        12        22        22
        28        22        21        21
        11        13         6         6
         7         6         9         9
        15        12        14        14
        18        13        23        23
        15        25        21        21
        27        19        22        22
        18         8         9         9
        27        31        24        24
         4        11         6         6
         5        14        12        12
         4         2         5         5
        21        12        15        15
        14        16        15        15
        24        19        27        27
        22        29        27        27
        23        26        18        18
        17         8        18        18
         5        11         4         4
         6         3         4         4
        26        23        30        30
         5         2        10        10
        16        14        10        10
         3         6         7         7
        21        25        28        28
        29        22        28        28
         6        13         9         9
         2         4         1         1
        31        27        32        32
        25        15        20        20
        24        23        13        13
         8         7         9         9
        13        18         9         9
        31        30        24        24
        12        21        22        22
        29        32        27        27
         3         1         4         4
        26        17        18        18
        16        20        15        15
zone t="boundary 2 bc-2", solutiontime= 0.2000000E+02, strandid=1002, i=33, j=48, f=feblock
  0.500000000000E+01  0.375000000000E+01  0.250000000000E+01  0.288078410721E+01  0.125000000000E+01  0.190974100652E+01  0.326683758169E+01
  0.201431602454E+01  0.000000000000E+00  0.963108083381E+00  0.500000000000E+01  0.403552511878E+01  0.423153924130E+01  0.500000000000E+01
  0.385533350601E+01  0.500000000000E+01  0.398173246726E+01  0.315249557942E+01  0.267000324704E+01  0.154774304040E+01  0.218329375016E+01
  0.893127759452E+00  0.000000000000E+00  0.698517061619E+00  0.964171764089E+00  0.310324758057E+01  0.000000000000E+00  0.000000000000E+00
  0.125000000000E+01  0.500000000000E+01  0.375000000000E+01  0.250000000000E+01  0.000000000000E+00
 -0.250000000000E+01 -0.250000000000E+01 -0.250000000000E+01 -0.250000000000E+01 -0.250000000000E+01 -0.250000000000E+01 -0.250000000000E+01
 -0.250000000000E+01 -0.250000000000E+01 -0.250000000000E+01 -0.250000000000E+01 -0.250000000000E+01 -0.250000000000E+01 -0.250000000000E+01
 -0.250000000000E+01 -0.250000000000E+01 -0.250000000000E+01 -0.250000000000E+01 -0.250000000000E+01 -0.250000000000E+01 -0.250000000000E+01
 -0.250000000000E+01 -0.250000000000E+01 -0.250000000000E+01 -0.250000000000E+01 -0.250000000000E+01 -0.250000000000E+01 -0.250000000000E+01
 -0.250000000000E+01 -0.250000000000E+01 -0.250000000000E+01 -0.250000000000E+01 -0.250000000000E+01
  0.000000000000E+00  0.000000000000E+00  0.000000000000E+00  0.904659890645E+00  0.000000000000E+00  0.717002441913E+00  0.188609243358E+01
  0.176246431481E+01  0.000000000000E+00  0.961328577125E+00  0.125000000000E+01  0.101201586758E+01  0.191586535653E+01  0.250000000000E+01
  0.293121848150E+01  0.375000000000E+01  0.406975391361E+01  0.363585050272E+01  0.285047954584E+01  0.292817774674E+01  0.395907379566E+01
  0.205246550326E+01  0.125000000000E+01  0.306828197606E+01  0.397245519226E+01  0.433168271247E+01  0.250000000000E+01  0.375000000000E+01
  0.500000000000E+01  0.500000000000E+01  0.500000000000E+01  0.500000000000E+01  0.500000000000E+01
  0.500000000000E+00  0.500000000000E+00  0.500000000000E+00  0.500000000000E+00  0.500000000000E+00  0.500000000000E+00  0.500000000000E+00
  0.500000000000E+00  0.500000000000E+00  0.500000000000E+00  0.500000000000E+00  0.500000000000E+00  0.500000000000E+00  0.500000000000E+00
  0.500000000000E+00  0.500000000000E+00  0.500000000000E+00  0.500000000000E+00  0.500000000000E+00  0.500000000000E+00  0.500000000000E+00
  0.500000000000E+00  0.500000000000E+00  0.500000000000E+00  0.500000000000E+00  0.500000000000E+00  0.500000000000E+00  0.500000000000E+00
  0.500000000000E+00  0.500000000000E+00  0.500000000000E+00  0.500000000000E+00  0.500000000000E+00
  0.100000000000E+01  0.100000000000E+01  0.100000000000E+01  0.100000000000E+01  0.100000000000E+01  0.100000000000E+01  0.100000000000E+01
  0.100000000000E+01  0.100000000000E+01  0.100000000000E+01  0.100000000000E+01  0.100000000000E+01  0.100000000000E+01  0.100000000000E+01
  0.100000000000E+01  0.100000000000E+01  0.100000000000E+01  0.100000000000E+01  0.100000000000E+01  0.100000000000E+01  0.100000000000E+01
  0.100000000000E+01  0.100000000000E+01  0.100000000000E+01  0.100000000000E+01  0.100000000000E+01  0.100000000000E+01  0.100000000000E+01
  0.100000000000E+01  0.100000000000E+01  0.100000000000E+01  0.100000000000E+01  0.100000000000E+01
  0.455190238213E-03 -0.861873944292E-02 -0.245719491047E-01  0.547510912983E-02 -0.300188876406E-01  0.620312702929E-02  0.449680198424E-03
  0.321487574217E-02 -0.167848017381E-01  0.337036563194E-02  0.195377122091E-04  0.570383193863E-03 -0.508060038564E-04 -0.246910315454E-04
 -0.390629631847E-04 -0.127619755858E-04 -0.482671162992E-05 -0.524338773558E-04 -0.160283482834E-03  0.393553513183E-05 -0.586799290911E-04
  0.224117530367E-02  0.397569686229E-02  0.238670418949E-03 -0.129630255169E-03 -0.167367301915E-04  0.150801958380E-02 -0.247025004373E-03
 -0.288776901779E-04 -0.129921312323E-04 -0.158440335267E-04 -0.206156721819E-04 -0.130785998271E-03
  0.107634994409E-03 -0.160332136358E-02 -0.513914873117E-02  0.122119104208E-02 -0.637335205807E-02  0.139205632768E-02  0.136782808691E-04
  0.586159958798E-03 -0.348244053480E-02  0.745780050833E-03 -0.131249504384E-04  0.313422759950E-04 -0.479554009951E-04  0.799881266159E-05
 -0.182952803328E-04  0.387159287374E-05 -0.147380609010E-05 -0.977592483177E-05 -0.661548141356E-04 -0.647264728740E-04 -0.895672500280E-05
  0.406296397876E-03  0.864538886696E-03  0.106874977481E-04 -0.322797659852E-04  0.145896085220E-05  0.303052382858E-03 -0.621475028738E-04
  0.603479071139E-05  0.159414708820E-05  0.156911418591E-05  0.422100562908E-05 -0.180270262899E-04
  0.226061332673E-04 -0.515823646525E-04 -0.778330910086E-04  0.212214082329E-04 -0.514987884863E-04  0.193093618989E-04 -0.803328321397E-06
  0.261889562013E-04 -0.374050477098E-06 -0.823421496896E-05 -0.127441277543E-04 -0.519168994129E-04  0.380081479448E-06 -0.791554881101E-06
 -0.153770644391E-05 -0.392920303681E-07 -0.717253487793E-06 -0.663715554735E-06  0.218258214461E-05  0.362667843427E-05 -0.943854505131E-06
 -0.979484912816E-07 -0.162924701738E-04  0.485780154794E-06  0.456206185783E-07 -0.158554250651E-06 -0.119546544920E-05 -0.607512859488E-06
 -0.277344360878E-06 -0.166721696699E-06 -0.101886953916E-06 -0.209380098704E-06 -0.390691395583E-06
 -0.108515462596E-03 -0.712211509359E-03 -0.128044116057E-02 -0.660367478918E-04 -0.117968671263E-02 -0.299696518760E-03  0.954124319700E-04
  0.100129225092E-03 -0.625280294098E-03 -0.182736341004E-03  0.315627372058E-04  0.287946019177E-04 -0.293374877384E-05  0.821576449235E-05
 -0.493188435069E-05  0.423073128054E-05 -0.225370951571E-05 -0.534300712175E-05  0.169596884129E-04  0.291626730926E-04 -0.535967447591E-06
 -0.286109590605E-04 -0.556434620317E-04  0.505173592426E-05  0.642576006541E-05 -0.458948293550E-05 -0.180667695254E-04  0.187732094271E-04
  0.929776839470E-06  0.196673064511E-05  0.103242665104E-05  0.108967210882E-05  0.671872713209E-05
 -0.213113696725E-03  0.366199935859E-02  0.104700661875E-01 -0.235943494670E-02  0.127700227095E-01 -0.267009153892E-02 -0.165474710303E-03
 -0.132728588700E-02  0.701931249946E-02 -0.141687985045E-02 -0.119506353044E-05 -0.196486207996E-03  0.339685570609E-04  0.335329650420E-05
  0.196313319826E-04  0.216439942195E-05  0.191716424787E-05  0.218340337688E-04  0.709003691228E-04  0.897662977054E-05  0.236455857733E-04
 -0.923268693301E-03 -0.164696091402E-02 -0.940442928203E-04  0.544991198675E-04  0.551252269039E-05 -0.638060943415E-03  0.102251961143E-03
  0.896277910601E-05  0.343299938161E-05  0.487932599651E-05  0.611909019884E-05  0.523718668786E-04
        15         7        19        19
         8        20        19        19
        18        19        21        21
         7         4         8         8
         3         6         4         4
        19         7         8         8
        19        18        15        15
        14        13        15        15
         8        22        20        20
        27        24        22        22
        19        20        21        21
        32        26        21        21
        17        18        26        26
        17        16        15        15
        25        29        21        21
        12         7        13        13
        10         8         6         6
        25        20        24        24
         4         6         8         8
        12         2         4         4
        10        23        22        22
        26        31        17        17
        30        16        17        17
         4         7        12        12
        13        11        12        12
        21        20        25        25
        24        28        25        25
        22         8        10        10
         6         5        10        10
        31        26        32        32
         4         2         3         3
         5         6         3         3
        11        13        14        14
        22        23        27        27
        28        24        27        27
        15        13         7         7
         2        12         1         1
        29        25        33        33
        23        10         9         9
        21        26        18        18
        16        14        15        15
        18        17        15        15
        29        32        21        21
        22        24        20        20
        28        33        25        25
        11         1        12        12
        31        30        17        17
         5         9        10        10
zone t="boundary 3 bc-3", solutiontime= 0.2000000E+02, strandid=1003, i=33, j=48, f=feblock
  0.375000000000E+01  0.250000000000E+01  0.500000000000E+01  0.403552511878E+01  0.288078410721E+01  0.125000000000E+01  0.190974100652E+01
  0.500000000000E+01  0.326683758169E+01  0.423153924130E+01  0.201431602454E+01  0.000000000000E+00  0.963108083381E+00  0.500000000000E+01
  0.267000324704E+01  0.385533350601E+01  0.893127759452E+00  0.154774304040E+01  0.000000000000E+00  0.500000000000E+01  0.315249557942E+01
  0.218329375016E+01  0.398173246726E+01  0.000000000000E+00  0.698517061619E+00  0.964171764089E+00  0.125000000000E+01  0.000000000000E+00
  0.500000000000E+01  0.310324758057E+01  0.250000000000E+01  0.375000000000E+01  0.000000000000E+00
  0.250000000000E+01  0.250000000000E+01  0.250000000000E+01  0.250000000000E+01  0.250000000000E+01  0.250000000000E+01  0.250000000000E+01
  0.250000000000E+01  0.250000000000E+01  0.250000000000E+01  0.250000000000E+01  0.250000000000E+01  0.250000000000E+01  0.250000000000E+01
  0.250000000000E+01  0.250000000000E+01  0.250000000000E+01  0.250000000000E+01  0.250000000000E+01  0.250000000000E+01  0.250000000000E+01
  0.250000000000E+01  0.250000000000E+01  0.250000000000E+01  0.250000000000E+01  0.250000000000E+01  0.250000000000E+01  0.250000000000E+01
  0.250000000000E+01  0.250000000000E+01  0.250000000000E+01  0.250000000000E+01  0.250000000000E+01
  0.000000000000E+00  0.000000000000E+00  0.000000000000E+00  0.101201586758E+01  0.904659890645E+00  0.000000000000E+00  0.717002441913E+00
  0.125000000000E+01  0.188609243358E+01  0.191586535653E+01  0.176246431481E+01  0.000000000000E+00  0.961328577125E+00  0.250000000000E+01
  0.285047954584E+01  0.293121848150E+01  0.205246550326E+01  0.292817774674E+01  0.125000000000E+01  0.375000000000E+01  0.363585050272E+01
  0.395907379566E+01  0.406975391361E+01  0.250000000000E+01  0.306828197606E+01  0.397245519226E+01  0.500000000000E+01  0.375000000000E+01
  0.500000000000E+01  0.433168271247E+01  0.500000000000E+01  0.500000000000E+01  0.500000000000E+01
  0.500000000000E+00  0.500000000000E+00  0.500000000000E+00  0.500000000000E+00  0.500000000000E+00  0.500000000000E+00  0.500000000000E+00
  0.500000000000E+00  0.500000000000E+00  0.500000000000E+00  0.500000000000E+00  0.500000000000E+00  0.500000000000E+00  0.500000000000E+00
  0.500000000000E+00  0.500000000000E+00  0.500000000000E+00  0.500000000000E+00  0.500000000000E+00  0.500000000000E+00  0.500000000000E+00
  0.500000000000E+00  0.500000000000E+00  0.500000000000E+00  0.500000000000E+00  0.500000000000E+00  0.500000000000E+00  0.500000000000E+00
  0.500000000000E+00  0.500000000000E+00  0.500000000000E+00  0.500000000000E+00  0.500000000000E+00
  0.100000000000E+01  0.100000000000E+01  0.100000000000E+01  0.100000000000E+01  0.100000000000E+01  0.100000000000E+01  0.100000000000E+01
  0.100000000000E+01  0.100000000000E+01  0.100000000000E+01  0.100000000000E+01  0.100000000000E+01  0.100000000000E+01  0.100000000000E+01
  0.100000000000E+01  0.100000000000E+01  0.100000000000E+01  0.100000000000E+01  0.100000000000E+01  0.100000000000E+01  0.100000000000E+01
  0.100000000000E+01  0.100000000000E+01  0.100000000000E+01  0.100000000000E+01  0.100000000000E+01  0.100000000000E+01  0.100000000000E+01
  0.100000000000E+01  0.100000000000E+01  0.100000000000E+01  0.100000000000E+01  0.100000000000E+01
 -0.165970461375E-01 -0.165715369345E-01 -0.144062830465E-03  0.411672245235E-02  0.797170904005E-02 -0.163766922708E-01  0.340237745974E-02
 -0.310399889598E-03  0.416505643504E-03 -0.803036787970E-04  0.451799844773E-02 -0.119915253134E-01  0.280401189162E-02 -0.291424243415E-04
 -0.377011206649E-03 -0.627256034162E-05  0.233612575955E-02  0.996356610860E-04  0.363372902777E-02 -0.177156930908E-04  0.210416535881E-04
 -0.915501551622E-04 -0.150967636756E-04  0.184419538495E-02  0.636031076305E-04 -0.163507998162E-03 -0.338612327876E-04 -0.623466185393E-03
 -0.159480759210E-04  0.797641727345E-06 -0.421117253763E-05 -0.184434824548E-04  0.457409799796E-04
 -0.366137441389E-02 -0.307837592030E-02 -0.923041833766E-04  0.822193532444E-03  0.172421257567E-02 -0.321947410105E-02  0.796399183337E-03
 -0.686031838507E-04  0.278936092328E-04 -0.247252460155E-04  0.796859710972E-03 -0.233861360865E-02  0.507771609049E-03  0.804261748971E-05
 -0.100843285120E-03 -0.918873066876E-05  0.415614654721E-03 -0.297913942005E-04  0.774157734349E-03  0.268992555073E-05  0.278202617647E-05
 -0.224923740060E-04 -0.330393669214E-05  0.366240226981E-03 -0.348094825973E-04 -0.362122082649E-04  0.135291780854E-05 -0.140287249763E-03
 -0.296570395477E-06 -0.576504575375E-06  0.309158439947E-05 -0.279551318707E-05  0.197949027496E-04
  0.828418880057E-04  0.117076233685E-04 -0.613369471163E-05 -0.264098933877E-04 -0.112168628251E-03 -0.255807792464E-04 -0.166715714077E-04
  0.138758607086E-05 -0.147193422364E-04  0.259199336213E-05 -0.140829804465E-04 -0.262709866545E-04  0.628297782719E-05  0.120929856608E-05
 -0.229410183299E-05  0.803696389844E-06 -0.568759772553E-05 -0.623092430792E-05 -0.866202127899E-05  0.444048590102E-06  0.770787006983E-06
  0.145746837874E-05  0.165275760629E-06  0.147022038248E-06  0.170273563615E-05  0.748262344782E-06  0.131383420661E-06  0.261778193846E-06
  0.306197034300E-07 -0.496538110944E-07  0.125172362891E-06 -0.214625844464E-07  0.267408380131E-06
 -0.126004626094E-02 -0.992876018380E-03 -0.124935283794E-03 -0.117489353426E-03 -0.270891080698E-03 -0.540117151437E-03 -0.266718408076E-03
 -0.619280714187E-07  0.721118099361E-04  0.134416791132E-04  0.102469949905E-03 -0.295161693117E-03 -0.780052014939E-04  0.566211039013E-05
  0.614781243176E-05  0.425446204180E-05 -0.590288806712E-04  0.690783777125E-05 -0.153538427521E-04  0.399199709724E-05  0.800802948030E-06
 -0.451540883714E-05  0.193217744164E-05 -0.487211247212E-04 -0.994426296103E-05 -0.270669679010E-05 -0.106552046006E-09  0.690237856756E-05
  0.207256606367E-05 -0.126408128963E-05  0.167311448731E-06  0.135652099432E-05  0.363367079470E-05
  0.722205751498E-02  0.688354095354E-02  0.922741041063E-04 -0.173917866781E-02 -0.344739824673E-02  0.679506159090E-02 -0.146315720714E-02
  0.135019963346E-03 -0.151186025514E-03  0.379757091621E-04 -0.185816960294E-02  0.493486702451E-02 -0.111839245980E-02  0.502918206682E-05
  0.163256708784E-03  0.492945200694E-05 -0.964564175908E-03 -0.313167377948E-04 -0.151546819212E-02  0.421386003241E-05 -0.809866039108E-05
  0.398764844377E-04  0.593439968159E-05 -0.776268654091E-03 -0.165539221169E-04  0.685400053759E-04  0.121752651454E-04  0.261584350406E-03
  0.524811388043E-05 -0.457675224732E-06  0.355046735035E-06  0.693875553188E-05 -0.216736992057E-04
        15         9        16        16
        15        18        11        11
        22        15        21        21
        11         5         9         9
         5         7         2         2
        11         9        15        15
        16        21        15        15
        16        10        14        14
        18        17        11        11
        17        25        24        24
        22        18        15        15
        22        30        31        31
        30        21        23        23
        16        20        23        23
        22        27        26        26
        10         9         4         4
         7        11        13        13
        25        18        26        26
        11         7         5         5
         5         1         4         4
        17        19        13        13
        23        32        30        30
        23        20        29        29
         4         9         5         5
         4         8        10        10
        26        18        22        22
        26        28        25        25
        13        11        17        17
        13         6         7         7
        31        30        32        32
         2         1         5         5
         2         7         6         6
        14        10         8         8
        24        19        17        17
        24        25        28        28
         9        10        16        16
         3         4         1         1
        33        26        27        27
        12        13        19        19
        21        30        22        22
        16        14        20        20
        16        23        21        21
        22        31        27        27
        18        25        17        17
        26        33        28        28
         4         3         8         8
        23        29        32        32
        13        12         6         6
zone t="boundary 4 bc-4", solutiontime= 0.2000000E+02, strandid=1004, i=32, j=46, f=feblock
  0.125000000000E+01  0.219251206392E+01  0.103724302461E+01  0.500000000000E+01  0.250000000000E+01  0.375000000000E+01  0.404200324774E+01
  0.500000000000E+01  0.000000000000E+00  0.310152362409E+01  0.202479342020E+01  0.324151231464E+01  0.922061490191E+00  0.000000000000E+00
  0.299062775774E+01  0.394624082883E+01  0.500000000000E+01  0.409252726285E+01  0.500000000000E+01  0.429310310915E+01  0.175434191980E+01
  0.284428995242E+01  0.000000000000E+00  0.000000000000E+00  0.715990576545E+00  0.930412228790E+00  0.125000000000E+01  0.187029682677E+01
  0.500000000000E+01  0.375000000000E+01  0.250000000000E+01  0.000000000000E+00
  0.250000000000E+01  0.157686156160E+01  0.146289271009E+01  0.250000000000E+01  0.250000000000E+01  0.250000000000E+01  0.155830813274E+01
  0.125000000000E+01  0.250000000000E+01  0.177790177481E+01  0.477386199275E+00  0.742988685424E+00  0.308372018325E+00  0.125000000000E+01
 -0.487811078581E+00 -0.144524380962E+01 -0.125000000000E+01 -0.345533899378E+00  0.000000000000E+00  0.627766083140E+00 -0.739814786992E+00
 -0.158811787973E+01  0.000000000000E+00 -0.125000000000E+01 -0.600232012419E+00 -0.154800130438E+01 -0.250000000000E+01 -0.178862290564E+01
 -0.250000000000E+01 -0.250000000000E+01 -0.250000000000E+01 -0.250000000000E+01
  0.500000000000E+01  0.500000000000E+01  0.500000000000E+01  0.500000000000E+01  0.500000000000E+01  0.500000000000E+01  0.500000000000E+01
  0.500000000000E+01  0.500000000000E+01  0.500000000000E+01  0.500000000000E+01  0.500000000000E+01  0.500000000000E+01  0.500000000000E+01
  0.500000000000E+01  0.500000000000E+01  0.500000000000E+01  0.500000000000E+01  0.500000000000E+01  0.500000000000E+01  0.500000000000E+01
  0.500000000000E+01  0.500000000000E+01  0.500000000000E+01  0.500000000000E+01  0.500000000000E+01  0.500000000000E+01  0.500000000000E+01
  0.500000000000E+01  0.500000000000E+01  0.500000000000E+01  0.500000000000E+01
  0.500000000000E+00  0.500000000000E+00  0.500000000000E+00  0.500000000000E+00  0.500000000000E+00  0.500000000000E+00  0.500000000000E+00
  0.500000000000E+00  0.500000000000E+00  0.500000000000E+00  0.500000000000E+00  0.500000000000E+00  0.500000000000E+00  0.500000000000E+00
  0.500000000000E+00  0.500000000000E+00  0.500000000000E+00  0.500000000000E+00  0.500000000000E+00  0.500000000000E+00  0.500000000000E+00
  0.500000000000E+00  0.500000000000E+00  0.500000000000E+00  0.500000000000E+00  0.500000000000E+00  0.500000000000E+00  0.500000000000E+00
  0.500000000000E+00  0.500000000000E+00  0.500000000000E+00  0.500000000000E+00
  0.100000000000E+01  0.100000000000E+01  0.100000000000E+01  0.100000000000E+01  0.100000000000E+01  0.100000000000E+01  0.100000000000E+01
  0.100000000000E+01  0.100000000000E+01  0.100000000000E+01  0.100000000000E+01  0.100000000000E+01  0.100000000000E+01  0.100000000000E+01
  0.100000000000E+01  0.100000000000E+01  0.100000000000E+01  0.100000000000E+01  0.100000000000E+01  0.100000000000E+01  0.100000000000E+01
  0.100000000000E+01  0.100000000000E+01  0.100000000000E+01  0.100000000000E+01  0.100000000000E+01  0.100000000000E+01  0.100000000000E+01
  0.100000000000E+01  0.100000000000E+01  0.100000000000E+01  0.100000000000E+01
 -0.338612327876E-04  0.746535774284E-06  0.552579490303E-04 -0.159480759210E-04 -0.421117253763E-05 -0.184434824548E-04 -0.108845541903E-04
 -0.919970909929E-05  0.457409799796E-04 -0.140430741335E-04 -0.285711995101E-04 -0.529865206285E-05  0.116128997576E-03  0.198734957201E-04
 -0.513958226338E-05 -0.154933803439E-04 -0.170216410752E-04 -0.961851178948E-05 -0.963957755044E-05 -0.774150669500E-05 -0.678128050117E-04
 -0.158777124032E-04  0.412910457012E-04 -0.167331057061E-04  0.119043958884E-03 -0.147779736069E-04 -0.288776901779E-04 -0.364377299255E-04
 -0.129921312323E-04 -0.158440335267E-04 -0.206156721819E-04 -0.130785998271E-03