title="tecplot geometry and solution file"
variables = x y z mach temperature lambda1 lambda2 lambda3 lambda4 lambda5
zone t="boundary 1 bc-1", solutiontime= 0.2000000E+02, strandid=1001, i=32, j=46, f=feblock
 -0.547472452772E-02  0.000000000000E+00 -0.567610116354E-02  0.000000000000E+00  0.000000000000E+00  0.000000000000E+00 -0.525162568575E-02
 -0.425778988008E-02  0.000000000000E+00  0.000000000000E+00  0.000000000000E+00  0.000000000000E+00  0.000000000000E+00  0.000000000000E+00
  0.000000000000E+00  0.000000000000E+00 -0.338396965251E-02  0.000000000000E+00  0.000000000000E+00  0.000000000000E+00  0.000000000000E+00
  0.000000000000E+00  0.000000000000E+00  0.000000000000E+00  0.000000000000E+00  0.000000000000E+00  0.000000000000E+00  0.000000000000E+00
  0.000000000000E+00  0.000000000000E+00  0.000000000000E+00  0.000000000000E+00
  0.250494200518E+01  0.250494200518E+01  0.127822174353E+01  0.146289271009E+01  0.157686156160E+01  0.308372018325E+00  0.261950149565E-01
 -0.122573467301E+01 -0.600232012419E+00  0.250494200518E+01  0.477386199275E+00  0.742988685424E+00 -0.739814786992E+00  0.177790177481E+01
  0.155830813274E+01  0.250494200518E+01 -0.249658901620E+01 -0.154800130438E+01 -0.487811078581E+00  0.250494200518E+01  0.627766083140E+00
 -0.345533899378E+00 -0.178862290564E+01 -0.158811787973E+01  0.125000000000E+01 -0.249658901620E+01 -0.144524380962E+01  0.000000000000E+00
 -0.125000000000E+01 -0.249658901620E+01 -0.249658901620E+01 -0.249658901620E+01
  0.803216924785E-04  0.125000000000E+01  0.822205278517E-04  0.103724302461E+01  0.219251206392E+01  0.922061490191E+00  0.103877881505E-03
  0.341876513122E-04  0.715990576545E+00  0.250000000000E+01  0.202479342020E+01  0.324151231464E+01  0.175434191980E+01  0.310152362409E+01
  0.404200324774E+01  0.375000000000E+01  0.811362586350E-04  0.930412228790E+00  0.299062775774E+01  0.500000000000E+01  0.429310310915E+01
  0.409252726285E+01  0.187029682677E+01  0.284428995242E+01  0.500000000000E+01  0.125000000000E+01  0.394624082883E+01  0.500000000000E+01
  0.500000000000E+01  0.250000000000E+01  0.375000000000E+01  0.500000000000E+01
  0.499981206172E+00  0.499991118348E+00  0.499981230533E+00  0.499988898606E+00  0.499994293982E+00  0.499986890137E+00  0.499980034591E+00
  0.499978035812E+00  0.499984817147E+00  0.499995300091E+00  0.499993474129E+00  0.499996491933E+00  0.499991673269E+00  0.499996421204E+00
  0.499997489029E+00  0.499997301467E+00  0.499982049496E+00  0.499985451310E+00  0.499995812565E+00  0.499998204572E+00  0.499997804495E+00
  0.499997536087E+00  0.499993011081E+00  0.499995350029E+00  0.499998439681E+00  0.499989731792E+00  0.499997291580E+00  0.499998469765E+00
  0.499998327883E+00  0.499994947581E+00  0.499997102831E+00  0.499998157431E+00
  0.100000535959E+01  0.100000311693E+01  0.100000597590E+01  0.100000364217E+01  0.100000195380E+01  0.100000402884E+01  0.100000822559E+01
  0.100001092492E+01  0.100000511527E+01  0.100000165055E+01  0.100000226103E+01  0.100000124782E+01  0.100000270965E+01  0.100000128260E+01
  0.100000084133E+01  0.100000095003E+01  0.100000836147E+01  0.100000449886E+01  0.100000143616E+01  0.100000057268E+01  0.100000077696E+01
  0.100000086546E+01  0.100000257771E+01  0.100000151568E+01  0.100000054456E+01  0.100000370047E+01  0.100000091472E+01  0.100000053273E+01
  0.100000055921E+01  0.100000176985E+01  0.100000100452E+01  0.100000058992E+01
  0.231070088276E+02  0.166958493352E+02  0.236750583309E+02  0.176060527502E+02  0.956214456511E+01  0.187763476767E+02  0.243257909891E+02
  0.241794105187E+02  0.200921511283E+02  0.452748602393E+01  0.108865680482E+02  0.492391528132E+01  0.123570874808E+02  0.201113895942E+01
  0.220740522577E+02  0.164891291104E+02  0.231527430727E+02  0.188294253899E+02  0.455829817239E+01  0.119708324431E+03  0.335994487735E+02
  0.185441991043E+02  0.118307031384E+02  0.433511319679E+01  0.123374423605E+03  0.176205727784E+02  0.158897359873E+02  0.136250499786E+03
  0.119979941874E+03  0.473248706210E+01  0.150200002568E+02  0.111806522518E+03
  0.868909182855E+01  0.560366550718E+01  0.895729572374E+01  0.598472091352E+01  0.326290169242E+01  0.648975427360E+01  0.915970466160E+01
  0.918317619084E+01  0.703266516904E+01  0.204871986480E+01  0.365573374740E+01  0.174077986775E+01  0.414457387413E+01  0.130297337728E+01
  0.460639478557E+01  0.374321408913E+01  0.863469676072E+01  0.640010791238E+01  0.175173107680E+01  0.248466518033E+02  0.699077372735E+01
  0.389962318331E+01  0.404795639160E+01  0.167791809675E+01  0.259450201535E+02  0.573786251656E+01  0.339473608255E+01  0.286270677650E+02
  0.251656214775E+02  0.206981828534E+01  0.364833024015E+01  0.234033127226E+02
 -0.106191533190E-01  0.769018851864E-02 -0.140821312566E+00  0.464177865146E-01 -0.106530814745E+00 -0.455669097130E-01 -0.423229563821E-01
  0.789876552017E-01 -0.538282886884E-01 -0.113294764315E-01  0.554834170248E-01 -0.891914469190E-02  0.766227019766E-01 -0.205440609211E-01
  0.137962332447E+00  0.251927657523E-02 -0.733794443303E-02  0.165063153941E-01 -0.486868040422E-01 -0.910631654741E-02  0.156249868736E-01
 -0.503424349552E-01 -0.552387440039E-01  0.936921560241E-01 -0.267220579844E+00 -0.189535682596E-01  0.378841152096E-01  0.789139576943E-01
  0.155200861315E+00 -0.397759985805E-02 -0.223953113425E-01 -0.127013557331E-01
 -0.838555469791E+01 -0.810018167477E+01 -0.847334021125E+01 -0.806615251368E+01 -0.724754698890E+01 -0.821375400303E+01 -0.857091914082E+01
 -0.850200228219E+01 -0.849431424862E+01 -0.693773136504E+01 -0.735690642297E+01 -0.547583698323E+01 -0.766465843887E+01 -0.581991975417E+01
 -0.395232522360E+01 -0.422681711071E+01 -0.843016109858E+01 -0.817414798878E+01 -0.595870068073E+01 -0.178934377373E+01 -0.369514893168E+01
 -0.428886247046E+01 -0.755845299459E+01 -0.595894345980E+01 -0.175546132975E+01 -0.813219617388E+01 -0.416164679302E+01 -0.162424695524E+01
 -0.192397670853E+01 -0.672181081692E+01 -0.434235667030E+01 -0.194761983090E+01
 -0.931692523153E+01 -0.646673722259E+01 -0.955398179707E+01 -0.680931461609E+01 -0.342796791510E+01 -0.728223192001E+01 -0.984878941065E+01
 -0.980345147325E+01 -0.784527974712E+01 -0.135353604449E+01 -0.400729090087E+01 -0.158988801583E+01 -0.460980490135E+01 -0.352307485685E+00
 -0.866758731968E+01 -0.643190803814E+01 -0.932242709470E+01 -0.731068270331E+01 -0.141955675065E+01 -0.498443496575E+02 -0.135053469990E+02
 -0.719536740804E+01 -0.439090757276E+01 -0.126784750197E+01 -0.514326162393E+02 -0.680710684179E+01 -0.606590667821E+01 -0.569290188856E+02
 -0.500374343798E+02 -0.143423212602E+01 -0.582284362805E+01 -0.465264411172E+02
        12        19        11        11
        11         5        12        12
        10        14         5         5
        19        13        11        11
        19        24        13        13
        30        23        24        24
        19        12        22        22
        28        22        21        21
        11        13         6         6
         7         6         9         9
        15        12        14        14
        18        13        23        23
        15        25        21        21
        27        19        22        22
        18         8         9         9
        27        31        24        24
         4        11         6         6
         5        14        12        12
         4         2         5         5
        21        12        15        15
        14        16        15        15
        24        19        27        27
        22        29        27        27
        23        26        18        18
        17         8        18        18
         5        11         4         4
         6         3         4         4
        26        23        30        30
         5         2        10        10
        16        14        10        10
         3         6         7         7
        21        25        28        28
        29        22        28        28
         6        13         9         9
         2         4         1         1
        31        27        32        32
        25        15        20        20
        24        23        13        13
         8         7         9         9
        13        18         9         9
        31        30        24        24
        12        21        22        22
        29        32        27        27
         3         1         4         4
        26        17        18        18
        16        20        15        15
zone t="boundary 2 bc-2", solutiontime= 0.2000000E+02, strandid=1002, i=33, j=48, f=feblock
  0.500195255313E+01  0.375034812201E+01  0.249861146354E+01  0.288036675733E+01  0.124717526151E+01  0.190856699606E+01  0.326577190793E+01
  0.201394857590E+01 -0.338396965251E-02  0.962374261034E+00  0.500000000000E+01  0.403430190133E+01  0.423029563300E+01  0.500000000000E+01
  0.385439188555E+01  0.500000000000E+01  0.398133432910E+01  0.315200081434E+01  0.266958029510E+01  0.154798030854E+01  0.218327860925E+01
  0.893688451288E+00  0.000000000000E+00  0.699009769630E+00  0.964460904435E+00  0.310303671669E+01  0.000000000000E+00  0.000000000000E+00
  0.125000000000E+01  0.500000000000E+01  0.375000000000E+01  0.250000000000E+01  0.000000000000E+00
 -0.249658901620E+01 -0.249658901620E+01 -0.249658901620E+01 -0.249658901620E+01 -0.249658901620E+01 -0.249658901620E+01 -0.249658901620E+01
 -0.249658901620E+01 -0.249658901620E+01 -0.249658901620E+01 -0.249658901620E+01 -0.249658901620E+01 -0.249658901620E+01 -0.249658901620E+01
 -0.249658901620E+01 -0.249658901620E+01 -0.249658901620E+01 -0.249658901620E+01 -0.249658901620E+01 -0.249658901620E+01 -0.249658901620E+01
 -0.249658901620E+01 -0.249658901620E+01 -0.249658901620E+01 -0.249658901620E+01 -0.249658901620E+01 -0.249658901620E+01 -0.249658901620E+01
 -0.249658901620E+01 -0.249658901620E+01 -0.249658901620E+01 -0.249658901620E+01 -0.249658901620E+01
  0.108209237191E-03  0.145875487893E-03  0.100909957516E-03  0.901663357824E+00  0.110895828141E-03  0.714928325670E+00  0.188140643916E+01
  0.175892163457E+01  0.811362586350E-04  0.957504305816E+00  0.125000000000E+01  0.100596693416E+01  0.191313516265E+01  0.250000000000E+01
  0.292898094244E+01  0.375000000000E+01  0.406883368474E+01  0.363389287837E+01  0.284756858001E+01  0.292582306272E+01  0.395754053293E+01
  0.205027256174E+01  0.125000000000E+01  0.306703271839E+01  0.397155765835E+01  0.433068621090E+01  0.250000000000E+01  0.375000000000E+01
  0.500000000000E+01  0.500000000000E+01  0.500000000000E+01  0.500000000000E+01  0.500000000000E+01
  0.500013676998E+00  0.500030724005E+00  0.500027799541E+00  0.500017522361E+00  0.500015385480E+00  0.500014538827E+00  0.500007342474E+00
  0.500003664484E+00  0.499982049496E+00  0.499999307946E+00  0.500004491847E+00  0.500015759779E+00  0.500005777901E+00  0.500001474538E+00
  0.500001734294E+00  0.500000427033E+00  0.499999911699E+00  0.500000045460E+00  0.500001223002E+00  0.499998439589E+00  0.499998537069E+00
  0.499997005536E+00  0.499989731792E+00  0.499996821482E+00  0.499997507780E+00  0.499998949588E+00  0.499994947581E+00  0.499997102831E+00
  0.499997349625E+00  0.500000070105E+00  0.499998661549E+00  0.499997668322E+00  0.499998157431E+00
  0.999999642210E+00  0.999998314080E+00  0.999997764198E+00  0.999999289128E+00  0.999999767276E+00  0.100000001676E+01  0.999999818206E+00
  0.100000065162E+01  0.100000836147E+01  0.100000218891E+01  0.100000090483E+01  0.999999460288E+00  0.100000019693E+01  0.100000061226E+01
  0.100000032385E+01  0.100000038408E+01  0.100000041917E+01  0.100000048659E+01  0.100000053264E+01  0.100000096943E+01  0.100000070526E+01
  0.100000163250E+01  0.100000370047E+01  0.100000126750E+01  0.100000090728E+01  0.100000055815E+01  0.100000176985E+01  0.100000100452E+01
  0.100000073887E+01  0.100000029407E+01  0.100000050089E+01  0.100000068226E+01  0.100000058992E+01
  0.327159459332E+02  0.283210818161E+02  0.263396805493E+02  0.207528399835E+02  0.249870998157E+02  0.211914567529E+02  0.157491609139E+02
  0.148154983474E+02  0.231527430727E+02  0.185059038701E+02  0.206292044297E+02  0.214425524677E+02  0.168495453010E+02  0.144990116863E+02
  0.111394552792E+02  0.100364660802E+02  0.749217359548E+01  0.888552969964E+01  0.106577036235E+02  0.547962120984E+01  0.110822475274E+02
  0.123456166945E+02  0.176205727784E+02  0.500756270057E+01  0.171462913539E+02  0.135725689989E+02  0.473248706210E+01  0.150200002568E+02
  0.990278093944E+02  0.111550424502E+02  0.427371044338E+02  0.843090543052E+02  0.111806522518E+03
 -0.735730702075E+01  0.235187537663E+01  0.665846858857E+01  0.159325020864E+01  0.833974353924E+01  0.461257185665E+01 -0.139347619196E+01
  0.115339522871E+01  0.863469676072E+01  0.509925577649E+01 -0.495087507744E+01 -0.122727072600E+01 -0.274807854602E+01 -0.346229760074E+01
 -0.282807259836E+01 -0.222894782707E+01 -0.303845718641E+01 -0.262482485858E+01 -0.181999919562E+01 -0.109064261131E+01 -0.144987403494E+01
  0.212257251205E+01  0.573786251656E+01  0.634830834336E-01  0.155865737597E+01 -0.169493805285E+01  0.206981828534E+01  0.364833024015E+01
  0.176968021635E+02 -0.586877140965E+00  0.411375115062E+01  0.128783210101E+02  0.234033127226E+02
 -0.459212015053E+00 -0.291926913314E+00 -0.652243991490E-01 -0.343333072806E-01 -0.227179861462E-01 -0.134769689539E-01  0.294664911171E-01
  0.469989771054E-01 -0.733794443303E-02 -0.639110357345E-02 -0.860296801165E-01 -0.322570309935E-01 -0.231541622008E-01 -0.471968159428E-01
 -0.467277467345E-01  0.378811538632E-01 -0.390620157093E-01  0.162896518528E-01  0.412297308219E-01  0.804095674917E-01  0.812687054000E-02
 -0.474240268015E-01 -0.189535682596E-01 -0.259420280428E-01 -0.421662799556E-01  0.835646048656E-02 -0.397759985805E-02 -0.223953113425E-01
 -0.169238479188E-03  0.693991349015E-02  0.828290551394E-02 -0.109671851296E-01 -0.127013557331E-01
 -0.278353650173E+01 -0.629031785487E+01 -0.787821831414E+01 -0.614058783348E+01 -0.788058228475E+01 -0.696280754194E+01 -0.407380567671E+01
 -0.560744721147E+01 -0.843016109858E+01 -0.723193295276E+01 -0.197834681554E+01 -0.463013481046E+01 -0.248939448168E+01 -0.672311860598E+00
 -0.231348008706E+01 -0.608539174859E+00 -0.201005193332E+01 -0.310917512872E+01 -0.395789270481E+01 -0.477881243674E+01 -0.362363203249E+01
 -0.618582469499E+01 -0.813219617388E+01 -0.510487089448E+01 -0.394499057722E+01 -0.303048363968E+01 -0.672181081692E+01 -0.434235667030E+01
 -0.266045092636E+01 -0.118604076014E+01 -0.263710170044E+01 -0.303214264805E+01 -0.194761983090E+01
 -0.652876536986E+01 -0.869553126507E+01 -0.960245402472E+01 -0.636335415825E+01 -0.975122108878E+01 -0.743308321568E+01 -0.396339347576E+01
 -0.446127743630E+01 -0.932242709470E+01 -0.680667391414E+01 -0.420719729019E+01 -0.589451642924E+01 -0.394031050925E+01 -0.297829544388E+01
 -0.213415780022E+01 -0.213964948267E+01 -0.100704382586E+01 -0.157872859215E+01 -0.232727476321E+01 -0.784923288914E+00 -0.280207271160E+01
 -0.409017200437E+01 -0.680710684179E+01 -0.110541745818E+01 -0.597963572939E+01 -0.364308585821E+01 -0.143423212602E+01 -0.582284362805E+01
 -0.402331752432E+02 -0.335448849638E+01 -0.159561150036E+02 -0.334513259043E+02 -0.465264411172E+02
        15         7        19        19
         8        20        19        19
        18        19        21        21
         7         4         8         8
         3         6         4         4
        19         7         8         8
        19        18        15        15
        14        13        15        15
         8        22        20        20
        27        24        22        22
        19        20        21        21
        32        26        21        21
        17        18        26        26
        17        16        15        15
        25        29        21        21
        12         7        13        13
        10         8         6         6
        25        20        24        24
         4         6         8         8
        12         2         4         4
        10        23        22        22
        26        31        17        17
        30        16        17        17
         4         7        12        12
        13        11        12        12
        21        20        25        25
        24        28        25        25
        22         8        10        10
         6         5        10        10
        31        26        32        32
         4         2         3         3
         5         6         3         3
        11        13        14        14
        22        23        27        27
        28        24        27        27
        15        13         7         7
         2        12         1         1
        29        25        33        33
        23        10         9         9
        21        26        18        18
        16        14        15        15
        18        17        15        15
        29        32        21        21
        22        24        20        20
        28        33        25        25
        11         1        12        12
        31        30        17        17
         5         9        10        10
zone t="boundary 3 bc-3", solutiontime= 0.2000000E+02, strandid=1003, i=33, j=48, f=feblock
  0.375059100022E+01  0.249769609016E+01  0.500322139356E+01  0.403612222763E+01  0.287976775181E+01  0.124541907693E+01  0.190552236756E+01
  0.500000000000E+01  0.326671106333E+01  0.423253756071E+01  0.201271138087E+01 -0.547472452772E-02  0.958895628158E+00  0.500000000000E+01
  0.266968148532E+01  0.385584487668E+01  0.890374213116E+00  0.154654014519E+01  0.000000000000E+00  0.500000000000E+01  0.315261137241E+01
  0.218304200095E+01  0.398195307874E+01  0.000000000000E+00  0.697379955531E+00  0.963757281441E+00  0.125000000000E+01  0.000000000000E+00
  0.500000000000E+01  0.310330738720E+01  0.250000000000E+01  0.375000000000E+01  0.000000000000E+00
  0.250494200518E+01  0.250494200518E+01  0.250494200518E+01  0.250494200518E+01  0.250494200518E+01  0.250494200518E+01  0.250494200518E+01
  0.250494200518E+01  0.250494200518E+01  0.250494200518E+01  0.250494200518E+01  0.250494200518E+01  0.250494200518E+01  0.250494200518E+01
  0.250494200518E+01  0.250494200518E+01  0.250494200518E+01  0.250494200518E+01  0.250494200518E+01  0.250494200518E+01  0.250494200518E+01
  0.250494200518E+01  0.250494200518E+01  0.250494200518E+01  0.250494200518E+01  0.250494200518E+01  0.250494200518E+01  0.250494200518E+01
  0.250494200518E+01  0.250494200518E+01  0.250494200518E+01  0.250494200518E+01  0.250494200518E+01
  0.135457002285E-03  0.109983637804E-03  0.964506780631E-04  0.101756739734E+01  0.908094462101E+00  0.103842397884E-03  0.722629008326E+00
  0.125000000000E+01  0.188965653795E+01  0.191862692309E+01  0.176708233165E+01  0.803216924785E-04  0.969652538178E+00  0.250000000000E+01
  0.285339429033E+01  0.293325055335E+01  0.205656222194E+01  0.293157014693E+01  0.125000000000E+01  0.375000000000E+01  0.363766836446E+01
  0.396069443367E+01  0.407056384269E+01  0.250000000000E+01  0.307031994182E+01  0.397359819531E+01  0.500000000000E+01  0.375000000000E+01
  0.500000000000E+01  0.433260780167E+01  0.500000000000E+01  0.500000000000E+01  0.500000000000E+01
  0.500026428483E+00  0.500032419246E+00  0.500006862582E+00  0.500012675829E+00  0.500016790694E+00  0.500005515514E+00  0.500011116478E+00
  0.500003733998E+00  0.500006808641E+00  0.500005363108E+00  0.500002980941E+00  0.499981206172E+00  0.499995995245E+00  0.500001545865E+00
  0.500001067063E+00  0.500001776043E+00  0.499997120852E+00  0.499998507319E+00  0.499991118348E+00  0.500000541056E+00  0.499999909999E+00
  0.499998556582E+00  0.499999838719E+00  0.499995300091E+00  0.499997100276E+00  0.499997636821E+00  0.499997394909E+00  0.499997301467E+00
  0.500000060877E+00  0.499998929370E+00  0.499997760436E+00  0.499998686680E+00  0.499998204572E+00
  0.999997964296E+00  0.999995086830E+00  0.100000150102E+01  0.999999543333E+00  0.999999196217E+00  0.100000275892E+01  0.100000006398E+01
  0.100000070756E+01  0.999999894343E+00  0.100000004711E+01  0.100000060249E+01  0.100000535959E+01  0.100000239388E+01  0.100000049308E+01
  0.100000047118E+01  0.100000028575E+01  0.100000141342E+01  0.100000097400E+01  0.100000311693E+01  0.100000033967E+01  0.100000046231E+01
  0.100000068491E+01  0.100000038434E+01  0.100000165055E+01  0.100000115855E+01  0.100000085007E+01  0.100000071260E+01  0.100000095003E+01
  0.100000027348E+01  0.100000053168E+01  0.100000066520E+01  0.100000047449E+01  0.100000057268E+01
  0.280477597350E+02  0.258084002231E+02  0.330865118486E+02  0.212203160950E+02  0.211226202912E+02  0.254700917403E+02  0.209663147782E+02
  0.209908564247E+02  0.156268216138E+02  0.160193057479E+02  0.150297879825E+02  0.231070088276E+02  0.181952393071E+02  0.138272169766E+02
  0.112377179625E+02  0.123729952513E+02  0.111449183020E+02  0.679534886018E+01  0.166958493352E+02  0.102353771764E+02  0.872031894115E+01
  0.953662287793E+01  0.786943025999E+01  0.452748602393E+01  0.350892749541E+01  0.233104240606E+02  0.866732935081E+02  0.164891291104E+02
  0.934682549528E+01  0.121734931120E+02  0.783018801302E+02  0.412731053714E+02  0.119708324431E+03
  0.318566923382E+01  0.658827719689E+01 -0.766092450769E+01 -0.946701005943E+00  0.210080198261E+01  0.880411025185E+01  0.462883950293E+01
 -0.511461836457E+01 -0.157568059733E+01 -0.288880615129E+01  0.997051237178E+00  0.868909182855E+01  0.506882665683E+01 -0.333807685434E+01
 -0.152992767204E+01 -0.256805685866E+01  0.180730522994E+01 -0.742154893456E+00  0.560366550718E+01 -0.239864866748E+01 -0.256965906212E+01
 -0.178120215826E+01 -0.288455118256E+01  0.204871986480E+01 -0.273495502640E+00  0.290709014360E+01  0.151684797754E+02  0.374321408913E+01
 -0.905579323815E+00 -0.195204992810E+01  0.117828805113E+02  0.393661438963E+01  0.248466518033E+02
  0.141903446476E+00  0.410478209367E-01  0.273322065997E+00 -0.205327751461E+00 -0.220793763805E+00  0.727447624549E-02 -0.163052544667E-02
  0.788077574539E-01  0.451615036944E-01  0.317115225616E-01 -0.338987707305E-01 -0.106191533190E-01  0.242870247531E-01 -0.567483661706E-01
 -0.692904455933E-01  0.113618458429E-01  0.205056207933E-01 -0.665819880214E-01  0.769018851864E-02 -0.434897837373E-01 -0.154773600100E-01
 -0.286642083975E-01  0.799893876667E-03 -0.113294764315E-01  0.275454442647E-01  0.531928362761E-01 -0.340284120459E-01  0.251927657523E-02
 -0.224401322655E-01 -0.193877057738E-02 -0.831160279293E-02 -0.536262597895E-02 -0.910631654741E-02
 -0.665246240204E+01 -0.776397567326E+01 -0.312803619996E+01 -0.511858529408E+01 -0.638544081130E+01 -0.776171072677E+01 -0.710492211671E+01
 -0.196976231053E+01 -0.408483036193E+01 -0.238121328872E+01 -0.558446711538E+01 -0.838555469791E+01 -0.716500809618E+01 -0.726080294002E+00
 -0.393128621070E+01 -0.231557720981E+01 -0.619859171388E+01 -0.485414507005E+01 -0.810018167477E+01 -0.778388798784E+00 -0.300654515391E+01
 -0.370092856549E+01 -0.208559284285E+01 -0.693773136504E+01 -0.505718354343E+01 -0.396476284380E+01 -0.273430599016E+01 -0.422681711071E+01
 -0.108623175387E+01 -0.289867388448E+01 -0.302778597706E+01 -0.261752747019E+01 -0.178934377373E+01
 -0.871035627902E+01 -0.936184154880E+01 -0.636793564202E+01 -0.588729275167E+01 -0.667472396223E+01 -0.100678249034E+02 -0.738069553188E+01
 -0.426514984772E+01 -0.388606492375E+01 -0.362581758131E+01 -0.449863635670E+01 -0.931692523153E+01 -0.672831493157E+01 -0.281367326070E+01
 -0.260560211145E+01 -0.266601606085E+01 -0.356465835204E+01 -0.132642396543E+01 -0.646673722259E+01 -0.211826346930E+01 -0.152946611875E+01
 -0.214387282171E+01 -0.120355471698E+01 -0.135353604449E+01 -0.520966880587E+00 -0.858919016023E+01 -0.350027343486E+02 -0.643190803814E+01
 -0.262167471789E+01 -0.308132916568E+01 -0.309652950432E+02 -0.153649395733E+02 -0.498443496575E+02
        15         9        16        16
        15        18        11        11
        22        15        21        21
        11         5         9         9
         5         7         2         2
        11         9        15        15
        16        21        15        15
        16        10        14        14
        18        17        11        11
        17        25        24        24
        22        18        15        15
        22        30        31        31
        30        21        23        23
        16        20        23        23
        22        27        26        26
        10         9         4         4
         7        11        13        13
        25        18        26        26
        11         7         5         5
         5         1         4         4
        17        19        13        13
        23        32        30        30
        23        20        29        29
         4         9         5         5
         4         8        10        10
        26        18        22        22
        26        28        25        25
        13        11        17        17
        13         6         7         7
        31        30        32        32
         2         1         5         5
         2         7         6         6
        14        10         8         8
        24        19        17        17
        24        25        28        28
         9        10        16        16
         3         4         1         1
        33        26        27        27
        12        13        19        19
        21        30        22        22
        16        14        20        20
        16        23        21        21
        22        31        27        27
        18        25        17        17
        26        33        28        28
         4         3         8         8
        23        29        32        32
        13        12         6         6
zone t="boundary 4 bc-4", solutiontime= 0.2000000E+02, strandid=1004, i=32, j=46, f=feblock
  0.125000000000E+01  0.219251206392E+01  0.103724302461E+01  0.500000000000E+01  0.250000000000E+01  0.375000000000E+01  0.404200324774E+01
  0.500000000000E+01  0.000000000000E+00  0.310152362409E+01  0.202479342020E+01  0.324151231464E+01  0.922061490191E+00  0.000000000000E+00
  0.299062775774E+01  0.394624082883E+01  0.500000000000E+01  0.409252726285E+01  0.500000000000E+01  0.429310310915E+01  0.175434191980E+01
  0.284428995242E+01  0.000000000000E+00  0.000000000000E+00  0.715990576545E+00  0.930412228790E+00  0.125000000000E+01  0.187029682677E+01
  0.500000000000E+01  0.375000000000E+01  0.250000000000E+01  0.000000000000E+00
  0.250494200518E+01  0.157686156160E+01  0.146289271009E+01  0.250494200518E+01  0.250494200518E+01  0.250494200518E+01  0.155830813274E+01
  0.125000000000E+01  0.250494200518E+01  0.177790177481E+01  0.477386199275E+00  0.742988685424E+00  0.308372018325E+00  0.125000000000E+01
 -0.487811078581E+00 -0.144524380962E+01 -0.125000000000E+01 -0.345533899378E+00  0.000000000000E+00  0.627766083140E+00 -0.739814786992E+00
 -0.158811787973E+01  0.000000000000E+00 -0.125000000000E+01 -0.600232012419E+00 -0.154800130438E+01 -0.249658901620E+01 -0.178862290564E+01
 -0.249658901620E+01 -0.249658901620E+01 -0.249658901620E+01 -0.249658901620E+01
  0.500000000000E+01  0.500000000000E+01  0.500000000000E+01  0.500000000000E+01  0.500000000000E+01  0.500000000000E+01  0.500000000000E+01
  0.500000000000E+01  0.500000000000E+01  0.500000000000E+01  0.500000000000E+01  0.500000000000E+01  0.500000000000E+01  0.500000000000E+01
  0.500000000000E+01  0.500000000000E+01  0.500000000000E+01  0.500000000000E+01  0.500000000000E+01  0.500000000000E+01  0.500000000000E+01
  0.500000000000E+01  0.500000000000E+01  0.500000000000E+01  0.500000000000E+01  0.500000000000E+01  0.500000000000E+01  0.500000000000E+01
  0.500000000000E+01  0.500000000000E+01  0.500000000000E+01  0.500000000000E+01
  0.499997394909E+00  0.499997614018E+00  0.499997613608E+00  0.500000060877E+00  0.499997760436E+00  0.499998686680E+00  0.499998898069E+00
  0.500000080922E+00  0.499998204572E+00  0.499998161846E+00  0.499997546137E+00  0.499998205093E+00  0.499997811256E+00  0.499998439681E+00
  0.499998038958E+00  0.499998859625E+00  0.499999940624E+00  0.499998892092E+00  0.500000071183E+00  0.499999108849E+00  0.499997426388E+00
  0.499997927732E+00  0.499998469765E+00  0.499998327883E+00  0.499997933909E+00  0.499997665118E+00  0.499997349625E+00  0.499997387404E+00
  0.500000070105E+00  0.499998661549E+00  0.499997668322E+00  0.499998157431E+00
  0.100000071260E+01  0.100000069159E+01  0.100000065448E+01  0.100000027348E+01  0.100000066520E+01  0.100000047449E+01  0.100000043275E+01
  0.100000026682E+01  0.100000057268E+01  0.100000057562E+01  0.100000070766E+01  0.100000057291E+01  0.100000062178E+01  0.100000054456E+01
  0.100000061871E+01  0.100000044943E+01  0.100000026416E+01  0.100000044976E+01  0.100000026532E+01  0.100000040564E+01  0.100000075001E+01
  0.100000064330E+01  0.100000053273E+01  0.100000055921E+01  0.100000060264E+01  0.100000065382E+01  0.100000073887E+01  0.100000074438E+01
  0.100000029407E+01  0.100000050089E+01  0.100000068226E+01  0.100000058992E+01
  0.866732935081E+02  0.826413530592E+02  0.878838168521E+02  0.934682549528E+01  0.783018801302E+02  0.412731053714E+02  0.287958138757E+02
  0.924371444805E+01  0.119708324431E+03  0.640761069727E+02  0.884257526706E+02  0.605084863824E+02  0.108004899645E+03  0.123374423605E+03
  0.687918134030E+02  0.280821570256E+02  0.107417366056E+02  0.357731675146E+02  0.872211352457E+01  0.357054737004E+02  0.110753897447E+03
  0.650460449646E+02  0.136250499786E+03  0.119979941874E+03  0.127032185015E+03  0.996247978674E+02  0.990278093944E+02  0.102918607339E+03
  0.111550424502E+02  0.427371044338E+02  0.843090543052E+02  0.111806522518E+03