# vtk DataFile Version 2.0
FUN3D:global_image_vtk
ASCII
DATASET UNSTRUCTURED_GRID
POINTS 213 double
    0.0000000000000000E+00    0.2500000000000000E+01    0.0000000000000000E+00
    0.1250000000000000E+01    0.2500000000000000E+01    0.0000000000000000E+00
    0.2500000000000000E+01    0.2500000000000000E+01    0.0000000000000000E+00
    0.3750000000000000E+01    0.2500000000000000E+01    0.0000000000000000E+00
    0.5000000000000000E+01    0.2500000000000000E+01    0.0000000000000000E+00
    0.5000000000000000E+01    0.1250000000000000E+01    0.0000000000000000E+00
    0.5000000000000000E+01    0.0000000000000000E+00    0.0000000000000000E+00
    0.5000000000000000E+01   -0.1250000000000000E+01    0.0000000000000000E+00
    0.5000000000000000E+01   -0.2500000000000000E+01    0.0000000000000000E+00
    0.3750000000000000E+01   -0.2500000000000000E+01    0.0000000000000000E+00
    0.2500000000000000E+01   -0.2500000000000000E+01    0.0000000000000000E+00
    0.1250000000000000E+01   -0.2500000000000000E+01    0.0000000000000000E+00
    0.0000000000000000E+00   -0.2500000000000000E+01    0.0000000000000000E+00
    0.0000000000000000E+00   -0.1250000000000000E+01    0.0000000000000000E+00
    0.0000000000000000E+00    0.0000000000000000E+00    0.0000000000000000E+00
    0.0000000000000000E+00    0.1250000000000000E+01    0.0000000000000000E+00
    0.9058375365086910E+00    0.1578994732800803E+01    0.0000000000000000E+00
    0.3982050490726493E+01   -0.1583989954232354E+01    0.0000000000000000E+00
    0.4033849428301197E+01    0.1453322699199022E+01    0.0000000000000000E+00
    0.1040505887381675E+01   -0.1479596339503735E+01    0.0000000000000000E+00
    0.1099454400140349E+01   -0.3227322616384110E+00    0.0000000000000000E+00
    0.7354504170366591E+00    0.6593508822075582E+00    0.0000000000000000E+00
    0.1622302608453282E+01    0.8256214013940779E+00    0.0000000000000000E+00
    0.2145871574390382E+01   -0.1650070333782557E+01    0.0000000000000000E+00
    0.4086422318222992E+01   -0.4612828702537229E+00    0.0000000000000000E+00
    0.2979540174134984E+01   -0.8579242121530853E+00    0.0000000000000000E+00
    0.3045064261640043E+01   -0.1836846154397680E+01    0.0000000000000000E+00
    0.3428197553792836E+01    0.3508002863614053E+00    0.0000000000000000E+00
    0.4309693860063405E+01    0.5185680230613409E+00    0.0000000000000000E+00
    0.1827272193562204E+01    0.1738996113203182E+01    0.0000000000000000E+00
    0.2808563282768077E+01    0.1325493893339706E+01    0.0000000000000000E+00
    0.1895995683864404E+01   -0.8731419609589618E+00    0.0000000000000000E+00
    0.2273179336307740E+01    0.4906150219227333E-01    0.0000000000000000E+00
    0.5000000000000000E+01    0.2500000000000000E+01    0.1250000000000000E+01
    0.5000000000000000E+01    0.2500000000000000E+01    0.2500000000000000E+01
    0.5000000000000000E+01    0.2500000000000000E+01    0.3750000000000000E+01
    0.5000000000000000E+01    0.2500000000000000E+01    0.5000000000000000E+01
    0.3750000000000000E+01    0.2500000000000000E+01    0.5000000000000000E+01
    0.2500000000000000E+01    0.2500000000000000E+01    0.5000000000000000E+01
    0.1250000000000000E+01    0.2500000000000000E+01    0.5000000000000000E+01
    0.0000000000000000E+00    0.2500000000000000E+01    0.5000000000000000E+01
    0.0000000000000000E+00    0.2500000000000000E+01    0.3750000000000000E+01
    0.0000000000000000E+00    0.2500000000000000E+01    0.2500000000000000E+01
    0.0000000000000000E+00    0.2500000000000000E+01    0.1250000000000000E+01
    0.9631080833812172E+00    0.2500000000000000E+01    0.9613285771248219E+00
    0.3981732467264904E+01    0.2500000000000000E+01    0.4069753913607991E+01
    0.4035525118777670E+01    0.2500000000000000E+01    0.1012015867579395E+01
    0.9641717640894248E+00    0.2500000000000000E+01    0.3972455192261839E+01
    0.1547743040396780E+01    0.2500000000000000E+01    0.2928177746738678E+01
    0.6985170616192014E+00    0.2500000000000000E+01    0.3068281976055466E+01
    0.8931277594515110E+00    0.2500000000000000E+01    0.2052465503257726E+01
    0.2183293750162785E+01    0.2500000000000000E+01    0.3959073795658649E+01
    0.3855333506014705E+01    0.2500000000000000E+01    0.2931218481500625E+01
    0.3152495579421047E+01    0.2500000000000000E+01    0.3635850502723324E+01
    0.3103247580566054E+01    0.2500000000000000E+01    0.4331682712472464E+01
    0.3266837581688852E+01    0.2500000000000000E+01    0.1886092433583972E+01
    0.4231539241296245E+01    0.2500000000000000E+01    0.1915865356532799E+01
    0.1909741006522088E+01    0.2500000000000000E+01    0.7170024419130505E+00
    0.2880784107213163E+01    0.2500000000000000E+01    0.9046598906449592E+00
    0.2014316024535771E+01    0.2500000000000000E+01    0.1762464314805728E+01
    0.2670003247036656E+01    0.2500000000000000E+01    0.2850479545835163E+01
    0.5000000000000000E+01    0.1250000000000000E+01    0.5000000000000000E+01
    0.5000000000000000E+01    0.0000000000000000E+00    0.5000000000000000E+01
    0.5000000000000000E+01   -0.1250000000000000E+01    0.5000000000000000E+01
    0.5000000000000000E+01   -0.2500000000000000E+01    0.5000000000000000E+01
    0.5000000000000000E+01   -0.2500000000000000E+01    0.3750000000000000E+01
    0.5000000000000000E+01   -0.2500000000000000E+01    0.2500000000000000E+01
    0.5000000000000000E+01   -0.2500000000000000E+01    0.1250000000000000E+01
    0.5000000000000000E+01    0.1578994732800803E+01    0.9058375365086910E+00
    0.5000000000000000E+01   -0.1583989954232354E+01    0.3982050490726493E+01
    0.5000000000000000E+01    0.1453322699199022E+01    0.4033849428301197E+01
    0.5000000000000000E+01   -0.1479596339503735E+01    0.1040505887381675E+01
    0.5000000000000000E+01   -0.3227322616384110E+00    0.1099454400140349E+01
    0.5000000000000000E+01    0.6593508822075582E+00    0.7354504170366591E+00
    0.5000000000000000E+01    0.8256214013940779E+00    0.1622302608453282E+01
    0.5000000000000000E+01   -0.1650070333782557E+01    0.2145871574390382E+01
    0.5000000000000000E+01   -0.4612828702537229E+00    0.4086422318222992E+01
    0.5000000000000000E+01   -0.8579242121530853E+00    0.2979540174134984E+01
    0.5000000000000000E+01   -0.1836846154397680E+01    0.3045064261640043E+01
    0.5000000000000000E+01    0.3508002863614053E+00    0.3428197553792836E+01
    0.5000000000000000E+01    0.5185680230613409E+00    0.4309693860063405E+01
    0.5000000000000000E+01    0.1738996113203182E+01    0.1827272193562204E+01
    0.5000000000000000E+01    0.1325493893339706E+01    0.2808563282768077E+01
    0.5000000000000000E+01   -0.8731419609589618E+00    0.1895995683864404E+01
    0.5000000000000000E+01    0.4906150219227333E-01    0.2273179336307740E+01
    0.0000000000000000E+00    0.1250000000000000E+01    0.5000000000000000E+01
    0.0000000000000000E+00    0.0000000000000000E+00    0.5000000000000000E+01
    0.0000000000000000E+00   -0.1250000000000000E+01    0.5000000000000000E+01
    0.0000000000000000E+00   -0.2500000000000000E+01    0.5000000000000000E+01
    0.1250000000000000E+01   -0.2500000000000000E+01    0.5000000000000000E+01
    0.2500000000000000E+01   -0.2500000000000000E+01    0.5000000000000000E+01
    0.3750000000000000E+01   -0.2500000000000000E+01    0.5000000000000000E+01
    0.4042003247744892E+01    0.1558308132739014E+01    0.5000000000000000E+01
    0.9304122287900499E+00   -0.1548001304379777E+01    0.5000000000000000E+01
    0.1037243024609388E+01    0.1462892710085612E+01    0.5000000000000000E+01
    0.3946240828834967E+01   -0.1445243809615570E+01    0.5000000000000000E+01
    0.4092527262848217E+01   -0.3455338993778935E+00    0.5000000000000000E+01
    0.4293103109154542E+01    0.6277660831404320E+00    0.5000000000000000E+01
    0.3241512314643519E+01    0.7429886854239611E+00    0.5000000000000000E+01
    0.2844289952419609E+01   -0.1588117879734118E+01    0.5000000000000000E+01
    0.7159905765450471E+00   -0.6002320124191652E+00    0.5000000000000000E+01
    0.1754341919796891E+01   -0.7398147869923652E+00    0.5000000000000000E+01
    0.1870296826774691E+01   -0.1788622905643739E+01    0.5000000000000000E+01
    0.9220614901912976E+00    0.3083720183248586E+00    0.5000000000000000E+01
    0.3101523624086016E+01    0.1777901774806180E+01    0.5000000000000000E+01
    0.2192512063922564E+01    0.1576861561598471E+01    0.5000000000000000E+01
    0.2024793420196460E+01    0.4773861992750707E+00    0.5000000000000000E+01
    0.2990627757741975E+01   -0.4878110785814084E+00    0.5000000000000000E+01
    0.0000000000000000E+00   -0.2500000000000000E+01    0.1250000000000000E+01
    0.0000000000000000E+00   -0.2500000000000000E+01    0.2500000000000000E+01
    0.0000000000000000E+00   -0.2500000000000000E+01    0.3750000000000000E+01
    0.0000000000000000E+00    0.1558308132739014E+01    0.4042003247744892E+01
    0.0000000000000000E+00   -0.1548001304379777E+01    0.9304122287900499E+00
    0.0000000000000000E+00    0.1462892710085612E+01    0.1037243024609388E+01
    0.0000000000000000E+00   -0.1445243809615570E+01    0.3946240828834967E+01
    0.0000000000000000E+00   -0.3455338993778935E+00    0.4092527262848217E+01
    0.0000000000000000E+00    0.6277660831404320E+00    0.4293103109154542E+01
    0.0000000000000000E+00    0.7429886854239611E+00    0.3241512314643519E+01
    0.0000000000000000E+00   -0.1588117879734118E+01    0.2844289952419609E+01
    0.0000000000000000E+00   -0.6002320124191652E+00    0.7159905765450471E+00
    0.0000000000000000E+00   -0.7398147869923652E+00    0.1754341919796891E+01
    0.0000000000000000E+00   -0.1788622905643739E+01    0.1870296826774691E+01
    0.0000000000000000E+00    0.3083720183248586E+00    0.9220614901912976E+00
    0.0000000000000000E+00    0.1777901774806180E+01    0.3101523624086016E+01
    0.0000000000000000E+00    0.1576861561598471E+01    0.2192512063922564E+01
[...]
POINT_DATA 213
SCALARS p double 1
LOOKUP_TABLE default
   0.7142857142857143E+00
   0.7142857142857142E+00
   0.7142857142857143E+00
   0.7142857142857141E+00
   0.7142857142857143E+00
   0.7142857142857141E+00
   0.7142857142857142E+00
   0.7142857142857142E+00
   0.7142857142857139E+00
   0.7142857142857143E+00
   0.7142857142857142E+00
   0.7142857142857141E+00
   0.7142857142857143E+00
   0.7142857142857141E+00
   0.7142857142857143E+00
   0.7142857142857143E+00
   0.7142857142857143E+00
   0.7142857142857142E+00
   0.7142857142857143E+00
   0.7142857142857141E+00
   0.7142857142857144E+00
   0.7142857142857142E+00
   0.7142857142857143E+00
   0.7142857142857143E+00
   0.7142857142857143E+00
   0.7142857142857145E+00
   0.7142857142857143E+00
   0.7142857142857145E+00
   0.7142857142857145E+00
   0.7142857142857143E+00
   0.7142857142857141E+00
   0.7142857142857143E+00
   0.7142857142857144E+00
   0.7142857142857143E+00
   0.7142857142857141E+00
   0.7142857142857139E+00
   0.7142857142857141E+00
   0.7142857142857139E+00
   0.7142857142857142E+00
   0.7142857142857143E+00
   0.7142857142857143E+00
   0.7142857142857143E+00
   0.7142857142857142E+00
   0.7142857142857143E+00
   0.7142857142857143E+00
   0.7142857142857143E+00
   0.7142857142857143E+00
   0.7142857142857143E+00
   0.7142857142857143E+00
   0.7142857142857143E+00
   0.7142857142857143E+00
   0.7142857142857141E+00
   0.7142857142857142E+00
   0.7142857142857141E+00
   0.7142857142857143E+00
   0.7142857142857143E+00
   0.7142857142857142E+00
   0.7142857142857143E+00
   0.7142857142857143E+00
   0.7142857142857143E+00
   0.7142857142857143E+00
   0.7142857142857142E+00
   0.7142857142857141E+00
   0.7142857142857144E+00
   0.7142857142857145E+00
   0.7142857142857143E+00
   0.7142857142857142E+00
   0.7142857142857141E+00
   0.7142857142857143E+00
   0.7142857142857141E+00
   0.7142857142857143E+00
   0.7142857142857143E+00
   0.7142857142857143E+00
   0.7142857142857141E+00
   0.7142857142857137E+00
   0.7142857142857134E+00
   0.7142857142857139E+00
   0.7142857142857137E+00
   0.7142857142857142E+00
   0.7142857142857139E+00
   0.7142857142857143E+00
   0.7142857142857145E+00
   0.7142857142857146E+00
   0.7142857142857139E+00
   0.7142857142857143E+00
   0.7142857142857143E+00
   0.7142857142857143E+00
   0.7142857142857143E+00
   0.7142857142857143E+00
   0.7142857142857143E+00
   0.7142857142857139E+00
   0.7142857142857139E+00
   0.7142857142857139E+00
   0.7142857142857143E+00
   0.7142857142857141E+00
   0.7142857142857142E+00
   0.7142857142857147E+00
   0.7142857142857139E+00
   0.7142857142857139E+00
   0.7142857142857141E+00
   0.7142857142857146E+00
   0.7142857142857142E+00
   0.7142857142857142E+00
   0.7142857142857143E+00
   0.7142857142857142E+00
   0.7142857142857143E+00
   0.7142857142857141E+00
   0.7142857142857147E+00
   0.7142857142857143E+00
   0.7142857142857146E+00
   0.7142857142857142E+00
   0.7142857142857143E+00
   0.7142857142857143E+00
   0.7142857142857143E+00
   0.7142857142857141E+00
   0.7142857142857141E+00
   0.7142857142857143E+00
   0.7142857142857142E+00
   0.7142857142857142E+00
   0.7142857142857143E+00
   0.7142857142857143E+00
   0.7142857142857143E+00
   0.7142857142857143E+00
   0.7142857142857134E+00
   0.7142857142857143E+00
   0.7142857142857137E+00
   0.7142857142857141E+00
   0.7142857142857143E+00
   0.7142857142857143E+00
   0.7142857142857142E+00
   0.7142857142857143E+00
   0.7142857142857143E+00
   0.7142857142857142E+00
   0.7142857142857141E+00
   0.7142857142857143E+00
   0.7142857142857143E+00
   0.7142857142857143E+00
   0.7142857142857143E+00
   0.7142857142857143E+00
   0.7142857142857142E+00
   0.7142857142857143E+00
   0.7142857142857143E+00
   0.7142857142857143E+00
   0.7142857142857143E+00
   0.7142857142857143E+00
   0.7142857142857141E+00
   0.7142857142857143E+00
   0.7142857142857143E+00
   0.7142857142857143E+00
   0.7142857142857143E+00
   0.7142857142857143E+00
   0.7142857142857143E+00
   0.7142857142857143E+00
   0.7142857142857143E+00
   0.7142857142857143E+00
   0.7142857142857143E+00
   0.7142857142857143E+00
   0.7142857142857143E+00
   0.7142857142857143E+00
   0.7142857142857142E+00
   0.7142857142857143E+00
   0.7142857142857143E+00
   0.7142857142857143E+00
   0.7142857142857142E+00
   0.7142857142857143E+00
   0.7142857142857142E+00
   0.7142857142857143E+00
   0.7142857142857143E+00
   0.7142857142857142E+00
   0.7142857142857143E+00
   0.7142857142857143E+00
   0.7142857142857143E+00
   0.7142857142857143E+00
   0.7142857142857143E+00
   0.7142857142857143E+00
   0.7142857142857143E+00
   0.7142857142857143E+00
   0.7142857142857143E+00
   0.7142857142857143E+00
   0.7142857142857143E+00
   0.7142857142857143E+00
   0.7142857142857142E+00
   0.7142857142857143E+00
   0.7142857142857139E+00
   0.7142857142857143E+00
   0.7142857142857143E+00
   0.7142857142857144E+00
   0.7142857142857143E+00
   0.7142857142857143E+00
   0.7142857142857142E+00
   0.7142857142857143E+00
   0.7142857142857143E+00
   0.7142857142857143E+00
   0.7142857142857143E+00
   0.7142857142857143E+00
   0.7142857142857143E+00
   0.7142857142857143E+00
   0.7142857142857144E+00
   0.7142857142857143E+00
   0.7142857142857143E+00
   0.7142857142857143E+00
   0.7142857142857143E+00
   0.7142857142857142E+00
   0.7142857142857143E+00
   0.7142857142857143E+00
   0.7142857142857142E+00
   0.7142857142857142E+00
   0.7142857142857143E+00
   0.7142857142857143E+00
   0.7142857142857142E+00
   0.7142857142857143E+00
   0.7142857142857143E+00
   0.7142857142857143E+00
SCALARS mach double 1
LOOKUP_TABLE default
   0.4999999999999999E+00
   0.5000000000000002E+00
   0.5000000000000002E+00
   0.5000000000000000E+00
   0.4999999999999998E+00
   0.4999999999999995E+00
   0.5000000000000000E+00
   0.5000000000000003E+00
   0.5000000000000000E+00
   0.4999999999999999E+00
   0.5000000000000000E+00
   0.5000000000000001E+00
   0.4999999999999999E+00
   0.5000000000000000E+00
   0.5000000000000008E+00
   0.5000000000000001E+00
   0.5000000000000001E+00
   0.5000000000000002E+00
   0.4999999999999999E+00
   0.5000000000000001E+00
   0.5000000000000001E+00
   0.5000000000000002E+00
   0.5000000000000002E+00
   0.4999999999999999E+00
   0.5000000000000001E+00
   0.5000000000000000E+00
   0.4999999999999999E+00
   0.4999999999999999E+00
   0.5000000000000000E+00
   0.5000000000000002E+00
   0.5000000000000004E+00
   0.4999999999999999E+00
   0.5000000000000001E+00
   0.4999999999999997E+00
   0.5000000000000000E+00
   0.5000000000000001E+00
   0.5000000000000000E+00
   0.5000000000000001E+00
   0.4999999999999999E+00
   0.4999999999999999E+00
   0.5000000000000001E+00
   0.4999999999999997E+00
   0.5000000000000001E+00
   0.5000000000000000E+00
   0.4999999999999999E+00
   0.5000000000000002E+00
   0.5000000000000001E+00
   0.4999999999999999E+00
   0.4999999999999998E+00
   0.4999999999999999E+00
   0.5000000000000001E+00
   0.5000000000000000E+00
   0.5000000000000000E+00
   0.4999999999999999E+00
   0.4999999999999999E+00
   0.4999999999999999E+00
   0.5000000000000000E+00
   0.4999999999999999E+00
   0.4999999999999998E+00
   0.5000000000000000E+00
   0.4999999999999996E+00
   0.5000000000000000E+00
   0.4999999999999995E+00
   0.5000000000000001E+00
   0.5000000000000003E+00
   0.5000000000000002E+00
   0.4999999999999999E+00
   0.5000000000000000E+00
   0.4999999999999999E+00
   0.5000000000000004E+00
   0.5000000000000000E+00
   0.5000000000000001E+00
   0.5000000000000000E+00
   0.4999999999999997E+00
   0.4999999999999995E+00
   0.5000000000000001E+00
   0.5000000000000000E+00
   0.4999999999999999E+00
   0.5000000000000003E+00
   0.5000000000000000E+00
   0.5000000000000001E+00
   0.5000000000000003E+00
   0.5000000000000001E+00
   0.5000000000000000E+00
   0.5000000000000001E+00
   0.5000000000000000E+00
   0.4999999999999999E+00
   0.5000000000000001E+00
   0.5000000000000004E+00
   0.5000000000000001E+00
   0.5000000000000000E+00
   0.5000000000000001E+00
   0.5000000000000001E+00
   0.4999999999999999E+00
   0.5000000000000000E+00
   0.5000000000000001E+00
   0.5000000000000000E+00
   0.5000000000000000E+00
   0.5000000000000001E+00
   0.5000000000000000E+00
   0.5000000000000000E+00
   0.5000000000000000E+00
   0.5000000000000000E+00
   0.4999999999999999E+00
   0.5000000000000000E+00
   0.4999999999999998E+00
   0.5000000000000000E+00
   0.4999999999999998E+00
   0.4999999999999998E+00
   0.4999999999999992E+00
   0.5000000000000001E+00
   0.4999999999999999E+00
   0.5000000000000000E+00
   0.5000000000000000E+00
   0.5000000000000002E+00
   0.5000000000000004E+00
   0.4999999999999999E+00
   0.5000000000000003E+00
   0.5000000000000004E+00
   0.5000000000000001E+00
   0.5000000000000001E+00
   0.4999999999999996E+00
   0.5000000000000000E+00
   0.5000000000000010E+00
   0.5000000000000000E+00
   0.5000000000000004E+00
   0.5000000000000002E+00
   0.4999999999999998E+00
   0.5000000000000004E+00
   0.5000000000000001E+00
   0.5000000000000001E+00
   0.5000000000000001E+00
   0.5000000000000000E+00
   0.4999999999999998E+00
   0.5000000000000002E+00
   0.4999999999999999E+00
   0.5000000000000001E+00
   0.5000000000000001E+00
   0.5000000000000001E+00
   0.5000000000000003E+00
   0.4999999999999997E+00
   0.4999999999999999E+00
   0.5000000000000000E+00
   0.4999999999999999E+00
   0.5000000000000001E+00
   0.5000000000000003E+00
   0.5000000000000001E+00
   0.5000000000000000E+00
   0.5000000000000000E+00
   0.5000000000000001E+00
   0.5000000000000001E+00
   0.5000000000000001E+00
   0.4999999999999999E+00
   0.5000000000000001E+00
   0.4999999999999999E+00
   0.5000000000000000E+00
   0.4999999999999999E+00
   0.5000000000000000E+00
   0.5000000000000000E+00
   0.5000000000000000E+00
   0.5000000000000000E+00
   0.5000000000000001E+00
   0.4999999999999999E+00
   0.5000000000000001E+00
   0.4999999999999999E+00
   0.5000000000000000E+00
   0.5000000000000000E+00
   0.4999999999999999E+00
   0.5000000000000001E+00
   0.5000000000000001E+00
   0.5000000000000000E+00
   0.5000000000000001E+00
   0.5000000000000000E+00
   0.4999999999999998E+00
   0.5000000000000001E+00
   0.5000000000000000E+00
   0.5000000000000000E+00
   0.4999999999999999E+00
   0.5000000000000000E+00
   0.5000000000000001E+00
   0.5000000000000003E+00
   0.5000000000000000E+00
   0.4999999999999999E+00
   0.5000000000000002E+00
   0.4999999999999999E+00
   0.5000000000000000E+00
   0.5000000000000001E+00
   0.5000000000000000E+00
   0.4999999999999999E+00
   0.4999999999999999E+00
   0.5000000000000000E+00
   0.5000000000000000E+00
   0.4999999999999999E+00
   0.4999999999999999E+00
   0.5000000000000000E+00
   0.4999999999999999E+00
   0.5000000000000000E+00
   0.5000000000000001E+00
   0.5000000000000001E+00
   0.4999999999999999E+00
   0.4999999999999999E+00
   0.5000000000000001E+00
   0.4999999999999999E+00
   0.5000000000000000E+00
   0.5000000000000000E+00
   0.5000000000000000E+00
   0.5000000000000000E+00
   0.5000000000000001E+00
   0.5000000000000001E+00
   0.5000000000000000E+00
   0.5000000000000001E+00
   0.5000000000000001E+00
   0.4999999999999999E+00
SCALARS temperature double 1
LOOKUP_TABLE default
   0.1000000000000000E+01
   0.9999999999999999E+00
   0.1000000000000000E+01
   0.9999999999999997E+00
   0.9999999999999998E+00
   0.9999999999999997E+00
   0.9999999999999999E+00
   0.9999999999999998E+00
   0.9999999999999996E+00
   0.1000000000000000E+01
   0.9999999999999999E+00
   0.9999999999999999E+00
   0.1000000000000000E+01
   0.9999999999999998E+00
   0.1000000000000000E+01
   0.1000000000000000E+01
   0.1000000000000000E+01
   0.1000000000000000E+01
   0.9999999999999998E+00
   0.1000000000000000E+01
   0.1000000000000000E+01
   0.1000000000000000E+01
   0.9999999999999998E+00
   0.1000000000000000E+01
   0.1000000000000000E+01
   0.9999999999999998E+00
   0.9999999999999998E+00
   0.9999999999999998E+00
   0.9999999999999998E+00
   0.1000000000000000E+01
   0.9999999999999997E+00
   0.1000000000000000E+01
   0.9999999999999998E+00
   0.1000000000000000E+01
   0.9999999999999998E+00
   0.9999999999999994E+00
   0.9999999999999998E+00
   0.9999999999999997E+00
   0.9999999999999996E+00
   0.1000000000000000E+01
   0.9999999999999998E+00
   0.9999999999999996E+00
   0.9999999999999996E+00
   0.1000000000000000E+01
   0.1000000000000000E+01
   0.1000000000000000E+01
   0.9999999999999998E+00
   0.1000000000000000E+01
   0.1000000000000000E+01
   0.1000000000000000E+01
   0.1000000000000000E+01
   0.1000000000000000E+01
   0.9999999999999999E+00
   0.9999999999999999E+00
   0.1000000000000000E+01
   0.1000000000000000E+01
   0.9999999999999999E+00
   0.1000000000000000E+01
   0.1000000000000000E+01
   0.1000000000000000E+01
   0.1000000000000000E+01
   0.9999999999999999E+00
   0.9999999999999999E+00
   0.9999999999999998E+00
   0.9999999999999998E+00
   0.9999999999999998E+00
   0.1000000000000000E+01
   0.1000000000000000E+01
   0.1000000000000000E+01
   0.9999999999999998E+00
   0.1000000000000000E+01
   0.1000000000000000E+01
   0.1000000000000000E+01
   0.9999999999999997E+00
   0.9999999999999999E+00
   0.9999999999999998E+00
   0.9999999999999998E+00
   0.9999999999999999E+00
   0.1000000000000000E+01
   0.9999999999999996E+00
   0.1000000000000000E+01
   0.1000000000000000E+01
   0.1000000000000000E+01
   0.9999999999999999E+00
   0.1000000000000000E+01
   0.9999999999999998E+00
   0.9999999999999996E+00
   0.1000000000000000E+01
   0.9999999999999998E+00
   0.1000000000000000E+01
   0.9999999999999998E+00
   0.9999999999999997E+00
   0.9999999999999997E+00
   0.1000000000000000E+01
   0.9999999999999998E+00
   0.1000000000000000E+01
   0.1000000000000000E+01
   0.9999999999999998E+00
   0.9999999999999997E+00
   0.9999999999999999E+00
   0.1000000000000000E+01
   0.1000000000000000E+01
   0.9999999999999999E+00
   0.9999999999999998E+00
   0.9999999999999999E+00
   0.9999999999999998E+00
   0.9999999999999998E+00
   0.1000000000000000E+01
   0.1000000000000000E+01
   0.1000000000000000E+01
   0.1000000000000000E+01
   0.1000000000000000E+01
   0.1000000000000000E+01
   0.9999999999999996E+00
   0.9999999999999999E+00
   0.9999999999999997E+00
   0.1000000000000000E+01
   0.9999999999999998E+00
   0.9999999999999999E+00
   0.1000000000000000E+01
   0.1000000000000000E+01
   0.1000000000000000E+01
   0.1000000000000000E+01
   0.9999999999999999E+00
   0.9999999999999998E+00
   0.9999999999999999E+00
   0.9999999999999999E+00
   0.1000000000000000E+01
   0.9999999999999996E+00
   0.1000000000000000E+01
   0.1000000000000000E+01
   0.1000000000000000E+01
   0.9999999999999998E+00
   0.9999999999999997E+00
   0.1000000000000000E+01
   0.1000000000000000E+01
   0.1000000000000000E+01
   0.1000000000000000E+01
   0.1000000000000000E+01
   0.9999999999999999E+00
   0.1000000000000000E+01
   0.1000000000000000E+01
   0.1000000000000000E+01
   0.1000000000000000E+01
   0.1000000000000000E+01
   0.9999999999999998E+00
   0.1000000000000000E+01
   0.1000000000000000E+01
   0.1000000000000000E+01
   0.1000000000000000E+01
   0.1000000000000000E+01
   0.1000000000000000E+01
   0.1000000000000000E+01
   0.1000000000000000E+01
   0.1000000000000000E+01
   0.1000000000000000E+01
   0.1000000000000000E+01
   0.1000000000000000E+01
   0.1000000000000000E+01
   0.9999999999999999E+00
   0.1000000000000000E+01
   0.9999999999999998E+00
   0.1000000000000000E+01
   0.1000000000000000E+01
   0.1000000000000000E+01
   0.9999999999999999E+00
   0.1000000000000000E+01
   0.1000000000000000E+01
   0.9999999999999998E+00
   0.1000000000000000E+01
   0.1000000000000000E+01
   0.1000000000000000E+01
   0.1000000000000000E+01
   0.1000000000000000E+01
   0.1000000000000000E+01
   0.1000000000000000E+01
   0.1000000000000000E+01
   0.1000000000000000E+01
   0.1000000000000000E+01
   0.1000000000000000E+01
   0.1000000000000000E+01
   0.9999999999999998E+00
   0.1000000000000000E+01
   0.9999999999999996E+00
   0.1000000000000000E+01
   0.1000000000000000E+01
   0.1000000000000000E+01
   0.1000000000000000E+01
   0.1000000000000000E+01
   0.1000000000000000E+01
   0.1000000000000000E+01
   0.1000000000000000E+01
   0.9999999999999998E+00
   0.1000000000000000E+01
   0.1000000000000000E+01
   0.1000000000000000E+01
   0.1000000000000000E+01
   0.1000000000000000E+01
   0.1000000000000000E+01
   0.1000000000000000E+01
   0.1000000000000000E+01
   0.1000000000000000E+01
   0.1000000000000000E+01
   0.1000000000000000E+01
   0.1000000000000000E+01
   0.9999999999999999E+00
   0.9999999999999999E+00
   0.1000000000000000E+01
   0.1000000000000000E+01
   0.9999999999999998E+00
   0.1000000000000000E+01
   0.1000000000000000E+01
   0.1000000000000000E+01
SCALARS lambda1 double 1
LOOKUP_TABLE default
  -0.1198438439284497E-01
  -0.1639479835443481E-01
  -0.1657059083702749E-01
  -0.1660363172489046E-01
  -0.1429651097102316E-03
  -0.1749624328801412E-02
  -0.2186754630825764E-02
  -0.9889280509776332E-03
   0.4560084895478328E-03
  -0.8619945846524474E-02
  -0.2457389844438904E-01
  -0.3001563047460813E-01
  -0.1678900052683394E-01
  -0.1846472714372618E-01
  -0.2510908401230049E-01
  -0.1809728850858489E-01
  -0.2770580786845843E-01
  -0.7829801369842425E-02
  -0.3990935831743972E-02
  -0.8049677476359670E-02
  -0.1159242913529976E-01
  -0.2258526703619906E-01
  -0.1256791831790977E-01
  -0.7926693145708095E-02
  -0.5601222954982396E-02
  -0.9486656731612010E-02
  -0.4874875280757240E-02
  -0.7216994211505646E-02
  -0.3760724078679405E-02
  -0.1636902485994785E-01
  -0.9283283506950386E-02
  -0.7775457384263275E-02
  -0.1538322757434464E-01
  -0.3104850107722442E-03
  -0.2923057783729793E-04
  -0.1772390692287655E-04
  -0.1605968822985878E-04
  -0.1865912999967625E-04
  -0.2562550391103758E-05
  -0.3248397770710806E-04
   0.4000304427592525E-04
  -0.6192788026051728E-03
   0.1836928810408861E-02
   0.3643262824009255E-02
   0.2808002001450161E-02
  -0.1489410374161609E-04
   0.4120656165685593E-02
  -0.1631865018294233E-03
   0.9973081064222801E-04
   0.6244623919843183E-04
   0.2331206510227024E-02
  -0.9306424065034158E-04
  -0.6154955969816800E-05
   0.2159736982092689E-04
   0.7694224440004874E-06
   0.4159333660493246E-03
  -0.7983431527241575E-04
   0.3412921428418952E-02
   0.7980484137973363E-02
   0.4525542304568221E-02
  -0.3774585920198011E-03
  -0.9211663933492008E-05
  -0.9575580094375973E-05
  -0.1693584786366157E-04
  -0.1299701317030465E-04
  -0.1270462069305259E-04
  -0.2455441609928207E-04
   0.1956081412342532E-04
  -0.3185290004795248E-03
  -0.1063954449025306E-04
  -0.1361903311227548E-04
   0.1178653685125272E-02
   0.7536755688787161E-03
   0.1088367588573520E-02
   0.6289919829332698E-05
  -0.4039982429016318E-04
  -0.1271878277373030E-04
  -0.2256072609002562E-04
  -0.1383228163544363E-04
  -0.1839118838173511E-04
  -0.1459783819781543E-04
  -0.1612554325828606E-04
  -0.7944924779513394E-05
   0.8108269814344382E-04
  -0.3332453358072610E-06
   0.1429078779003706E-04
   0.3473021592764988E-04
  -0.2368545400545132E-04
  -0.1340390578516781E-03
  -0.2768334095458363E-04
  -0.2108205517416838E-04
  -0.1562863329879836E-04
  -0.1090267478995787E-04
  -0.1579701918283122E-04
   0.5312645419659184E-04
  -0.1562233994722704E-04
  -0.9813856858780626E-05
  -0.7643857036653205E-05
  -0.5760765998249420E-05
  -0.1603213194552322E-04
   0.1127506756509294E-03
  -0.6391880474969618E-04
  -0.3571072823154751E-04
   0.1154241012233523E-03
  -0.1452045671393015E-04
   0.3400292987334594E-05
  -0.2667436312478445E-04
  -0.5231906651675986E-05
   0.3960550710115127E-02
   0.1510223746116957E-02
  -0.2436318749087092E-03
  -0.3719517371423820E-03
   0.6489633327542687E-02
   0.4876559734718436E-02
  -0.2117189690242953E-03
  -0.3489392395452479E-03
  -0.3447302258198887E-03
  -0.4171880738274914E-04
   0.4659741949670974E-03
   0.5009573115253655E-02
   0.3175200523749518E-02
   0.2586081124699045E-02