# vtk DataFile Version 2.0
FUN3D:global_image_vtk
ASCII
DATASET UNSTRUCTURED_GRID
POINTS 213 double
    0.0000000000000000E+00    0.2500000000000000E+01    0.0000000000000000E+00
    0.1250000000000000E+01    0.2500000000000000E+01    0.0000000000000000E+00
    0.2500000000000000E+01    0.2500000000000000E+01    0.0000000000000000E+00
    0.3750000000000000E+01    0.2500000000000000E+01    0.0000000000000000E+00
    0.5000000000000000E+01    0.2500000000000000E+01    0.0000000000000000E+00
    0.5000000000000000E+01    0.1250000000000000E+01    0.0000000000000000E+00
    0.5000000000000000E+01    0.0000000000000000E+00    0.0000000000000000E+00
    0.5000000000000000E+01   -0.1250000000000000E+01    0.0000000000000000E+00
    0.5000000000000000E+01   -0.2500000000000000E+01    0.0000000000000000E+00
    0.3750000000000000E+01   -0.2500000000000000E+01    0.0000000000000000E+00
    0.2500000000000000E+01   -0.2500000000000000E+01    0.0000000000000000E+00
    0.1250000000000000E+01   -0.2500000000000000E+01    0.0000000000000000E+00
    0.0000000000000000E+00   -0.2500000000000000E+01    0.0000000000000000E+00
    0.0000000000000000E+00   -0.1250000000000000E+01    0.0000000000000000E+00
    0.0000000000000000E+00    0.0000000000000000E+00    0.0000000000000000E+00
    0.0000000000000000E+00    0.1250000000000000E+01    0.0000000000000000E+00
    0.9058375365086910E+00    0.1578994732800803E+01    0.0000000000000000E+00
    0.3982050490726493E+01   -0.1583989954232354E+01    0.0000000000000000E+00
    0.4033849428301197E+01    0.1453322699199022E+01    0.0000000000000000E+00
    0.1040505887381675E+01   -0.1479596339503735E+01    0.0000000000000000E+00
    0.1099454400140349E+01   -0.3227322616384110E+00    0.0000000000000000E+00
    0.7354504170366591E+00    0.6593508822075582E+00    0.0000000000000000E+00
    0.1622302608453282E+01    0.8256214013940779E+00    0.0000000000000000E+00
    0.2145871574390382E+01   -0.1650070333782557E+01    0.0000000000000000E+00
    0.4086422318222992E+01   -0.4612828702537229E+00    0.0000000000000000E+00
    0.2979540174134984E+01   -0.8579242121530853E+00    0.0000000000000000E+00
    0.3045064261640043E+01   -0.1836846154397680E+01    0.0000000000000000E+00
    0.3428197553792836E+01    0.3508002863614053E+00    0.0000000000000000E+00
    0.4309693860063405E+01    0.5185680230613409E+00    0.0000000000000000E+00
    0.1827272193562204E+01    0.1738996113203182E+01    0.0000000000000000E+00
    0.2808563282768077E+01    0.1325493893339706E+01    0.0000000000000000E+00
    0.1895995683864404E+01   -0.8731419609589618E+00    0.0000000000000000E+00
    0.2273179336307740E+01    0.4906150219227333E-01    0.0000000000000000E+00
    0.5000000000000000E+01    0.2500000000000000E+01    0.1250000000000000E+01
    0.5000000000000000E+01    0.2500000000000000E+01    0.2500000000000000E+01
    0.5000000000000000E+01    0.2500000000000000E+01    0.3750000000000000E+01
    0.5000000000000000E+01    0.2500000000000000E+01    0.5000000000000000E+01
    0.3750000000000000E+01    0.2500000000000000E+01    0.5000000000000000E+01
    0.2500000000000000E+01    0.2500000000000000E+01    0.5000000000000000E+01
    0.1250000000000000E+01    0.2500000000000000E+01    0.5000000000000000E+01
    0.0000000000000000E+00    0.2500000000000000E+01    0.5000000000000000E+01
    0.0000000000000000E+00    0.2500000000000000E+01    0.3750000000000000E+01
    0.0000000000000000E+00    0.2500000000000000E+01    0.2500000000000000E+01
    0.0000000000000000E+00    0.2500000000000000E+01    0.1250000000000000E+01
    0.9631080833812172E+00    0.2500000000000000E+01    0.9613285771248219E+00
    0.3981732467264904E+01    0.2500000000000000E+01    0.4069753913607991E+01
    0.4035525118777670E+01    0.2500000000000000E+01    0.1012015867579395E+01
    0.9641717640894248E+00    0.2500000000000000E+01    0.3972455192261839E+01
    0.1547743040396780E+01    0.2500000000000000E+01    0.2928177746738678E+01
    0.6985170616192014E+00    0.2500000000000000E+01    0.3068281976055466E+01
    0.8931277594515110E+00    0.2500000000000000E+01    0.2052465503257726E+01
    0.2183293750162785E+01    0.2500000000000000E+01    0.3959073795658649E+01
    0.3855333506014705E+01    0.2500000000000000E+01    0.2931218481500625E+01
    0.3152495579421047E+01    0.2500000000000000E+01    0.3635850502723324E+01
    0.3103247580566054E+01    0.2500000000000000E+01    0.4331682712472464E+01
    0.3266837581688852E+01    0.2500000000000000E+01    0.1886092433583972E+01
    0.4231539241296245E+01    0.2500000000000000E+01    0.1915865356532799E+01
    0.1909741006522088E+01    0.2500000000000000E+01    0.7170024419130505E+00
    0.2880784107213163E+01    0.2500000000000000E+01    0.9046598906449592E+00
    0.2014316024535771E+01    0.2500000000000000E+01    0.1762464314805728E+01
    0.2670003247036656E+01    0.2500000000000000E+01    0.2850479545835163E+01
    0.5000000000000000E+01    0.1250000000000000E+01    0.5000000000000000E+01
    0.5000000000000000E+01    0.0000000000000000E+00    0.5000000000000000E+01
    0.5000000000000000E+01   -0.1250000000000000E+01    0.5000000000000000E+01
    0.5000000000000000E+01   -0.2500000000000000E+01    0.5000000000000000E+01
    0.5000000000000000E+01   -0.2500000000000000E+01    0.3750000000000000E+01
    0.5000000000000000E+01   -0.2500000000000000E+01    0.2500000000000000E+01
    0.5000000000000000E+01   -0.2500000000000000E+01    0.1250000000000000E+01
    0.5000000000000000E+01    0.1578994732800803E+01    0.9058375365086910E+00
    0.5000000000000000E+01   -0.1583989954232354E+01    0.3982050490726493E+01
    0.5000000000000000E+01    0.1453322699199022E+01    0.4033849428301197E+01
    0.5000000000000000E+01   -0.1479596339503735E+01    0.1040505887381675E+01
    0.5000000000000000E+01   -0.3227322616384110E+00    0.1099454400140349E+01
    0.5000000000000000E+01    0.6593508822075582E+00    0.7354504170366591E+00
    0.5000000000000000E+01    0.8256214013940779E+00    0.1622302608453282E+01
    0.5000000000000000E+01   -0.1650070333782557E+01    0.2145871574390382E+01
    0.5000000000000000E+01   -0.4612828702537229E+00    0.4086422318222992E+01
    0.5000000000000000E+01   -0.8579242121530853E+00    0.2979540174134984E+01
    0.5000000000000000E+01   -0.1836846154397680E+01    0.3045064261640043E+01
    0.5000000000000000E+01    0.3508002863614053E+00    0.3428197553792836E+01
    0.5000000000000000E+01    0.5185680230613409E+00    0.4309693860063405E+01
    0.5000000000000000E+01    0.1738996113203182E+01    0.1827272193562204E+01
    0.5000000000000000E+01    0.1325493893339706E+01    0.2808563282768077E+01
    0.5000000000000000E+01   -0.8731419609589618E+00    0.1895995683864404E+01
    0.5000000000000000E+01    0.4906150219227333E-01    0.2273179336307740E+01
    0.0000000000000000E+00    0.1250000000000000E+01    0.5000000000000000E+01
    0.0000000000000000E+00    0.0000000000000000E+00    0.5000000000000000E+01
    0.0000000000000000E+00   -0.1250000000000000E+01    0.5000000000000000E+01
    0.0000000000000000E+00   -0.2500000000000000E+01    0.5000000000000000E+01
    0.1250000000000000E+01   -0.2500000000000000E+01    0.5000000000000000E+01
    0.2500000000000000E+01   -0.2500000000000000E+01    0.5000000000000000E+01
    0.3750000000000000E+01   -0.2500000000000000E+01    0.5000000000000000E+01
    0.4042003247744892E+01    0.1558308132739014E+01    0.5000000000000000E+01
    0.9304122287900499E+00   -0.1548001304379777E+01    0.5000000000000000E+01
    0.1037243024609388E+01    0.1462892710085612E+01    0.5000000000000000E+01
    0.3946240828834967E+01   -0.1445243809615570E+01    0.5000000000000000E+01
    0.4092527262848217E+01   -0.3455338993778935E+00    0.5000000000000000E+01
    0.4293103109154542E+01    0.6277660831404320E+00    0.5000000000000000E+01
    0.3241512314643519E+01    0.7429886854239611E+00    0.5000000000000000E+01
    0.2844289952419609E+01   -0.1588117879734118E+01    0.5000000000000000E+01
    0.7159905765450471E+00   -0.6002320124191652E+00    0.5000000000000000E+01
    0.1754341919796891E+01   -0.7398147869923652E+00    0.5000000000000000E+01
    0.1870296826774691E+01   -0.1788622905643739E+01    0.5000000000000000E+01
    0.9220614901912976E+00    0.3083720183248586E+00    0.5000000000000000E+01
    0.3101523624086016E+01    0.1777901774806180E+01    0.5000000000000000E+01
    0.2192512063922564E+01    0.1576861561598471E+01    0.5000000000000000E+01
    0.2024793420196460E+01    0.4773861992750707E+00    0.5000000000000000E+01
    0.2990627757741975E+01   -0.4878110785814084E+00    0.5000000000000000E+01
    0.0000000000000000E+00   -0.2500000000000000E+01    0.1250000000000000E+01
    0.0000000000000000E+00   -0.2500000000000000E+01    0.2500000000000000E+01
    0.0000000000000000E+00   -0.2500000000000000E+01    0.3750000000000000E+01
    0.0000000000000000E+00    0.1558308132739014E+01    0.4042003247744892E+01
    0.0000000000000000E+00   -0.1548001304379777E+01    0.9304122287900499E+00
    0.0000000000000000E+00    0.1462892710085612E+01    0.1037243024609388E+01
    0.0000000000000000E+00   -0.1445243809615570E+01    0.3946240828834967E+01
    0.0000000000000000E+00   -0.3455338993778935E+00    0.4092527262848217E+01
    0.0000000000000000E+00    0.6277660831404320E+00    0.4293103109154542E+01
    0.0000000000000000E+00    0.7429886854239611E+00    0.3241512314643519E+01
    0.0000000000000000E+00   -0.1588117879734118E+01    0.2844289952419609E+01
    0.0000000000000000E+00   -0.6002320124191652E+00    0.7159905765450471E+00
    0.0000000000000000E+00   -0.7398147869923652E+00    0.1754341919796891E+01
    0.0000000000000000E+00   -0.1788622905643739E+01    0.1870296826774691E+01
    0.0000000000000000E+00    0.3083720183248586E+00    0.9220614901912976E+00
    0.0000000000000000E+00    0.1777901774806180E+01    0.3101523624086016E+01
    0.0000000000000000E+00    0.1576861561598471E+01    0.2192512063922564E+01
[...]
POINT_DATA 213
SCALARS p double 1
LOOKUP_TABLE default
   0.7142857142857143E+00
   0.7142857142857142E+00
   0.7142857142857143E+00
   0.7142857142857141E+00
   0.7142857142857143E+00
   0.7142857142857141E+00
   0.7142857142857142E+00
   0.7142857142857142E+00
   0.7142857142857139E+00
   0.7142857142857143E+00
   0.7142857142857142E+00
   0.7142857142857141E+00
   0.7142857142857143E+00
   0.7142857142857141E+00
   0.7142857142857143E+00
   0.7142857142857143E+00
   0.7142857142857143E+00
   0.7142857142857142E+00
   0.7142857142857143E+00
   0.7142857142857141E+00
   0.7142857142857144E+00
   0.7142857142857142E+00
   0.7142857142857143E+00
   0.7142857142857143E+00
   0.7142857142857143E+00
   0.7142857142857145E+00
   0.7142857142857143E+00
   0.7142857142857145E+00
   0.7142857142857145E+00
   0.7142857142857143E+00
   0.7142857142857141E+00
   0.7142857142857143E+00
   0.7142857142857144E+00
   0.7142857142857143E+00
   0.7142857142857141E+00
   0.7142857142857139E+00
   0.7142857142857141E+00
   0.7142857142857139E+00
   0.7142857142857142E+00
   0.7142857142857143E+00
   0.7142857142857143E+00
   0.7142857142857143E+00
   0.7142857142857142E+00
   0.7142857142857143E+00
   0.7142857142857143E+00
   0.7142857142857143E+00
   0.7142857142857143E+00
   0.7142857142857143E+00
   0.7142857142857143E+00
   0.7142857142857143E+00
   0.7142857142857143E+00
   0.7142857142857141E+00
   0.7142857142857142E+00
   0.7142857142857141E+00
   0.7142857142857143E+00
   0.7142857142857143E+00
   0.7142857142857142E+00
   0.7142857142857143E+00
   0.7142857142857143E+00
   0.7142857142857143E+00
   0.7142857142857143E+00
   0.7142857142857142E+00
   0.7142857142857141E+00
   0.7142857142857144E+00
   0.7142857142857145E+00
   0.7142857142857143E+00
   0.7142857142857142E+00
   0.7142857142857141E+00
   0.7142857142857143E+00
   0.7142857142857141E+00
   0.7142857142857143E+00
   0.7142857142857143E+00
   0.7142857142857143E+00
   0.7142857142857141E+00
   0.7142857142857137E+00
   0.7142857142857134E+00
   0.7142857142857139E+00
   0.7142857142857137E+00
   0.7142857142857142E+00
   0.7142857142857139E+00
   0.7142857142857143E+00
   0.7142857142857145E+00
   0.7142857142857146E+00
   0.7142857142857139E+00
   0.7142857142857143E+00
   0.7142857142857143E+00
   0.7142857142857143E+00
   0.7142857142857143E+00
   0.7142857142857143E+00
   0.7142857142857143E+00
   0.7142857142857139E+00
   0.7142857142857139E+00
   0.7142857142857139E+00
   0.7142857142857143E+00
   0.7142857142857141E+00
   0.7142857142857142E+00
   0.7142857142857147E+00
   0.7142857142857139E+00
   0.7142857142857139E+00
   0.7142857142857141E+00
   0.7142857142857146E+00
   0.7142857142857142E+00
   0.7142857142857142E+00
   0.7142857142857143E+00
   0.7142857142857142E+00
   0.7142857142857143E+00
   0.7142857142857141E+00
   0.7142857142857147E+00
   0.7142857142857143E+00
   0.7142857142857146E+00
   0.7142857142857142E+00
   0.7142857142857143E+00
   0.7142857142857143E+00
   0.7142857142857143E+00
   0.7142857142857141E+00
   0.7142857142857141E+00
   0.7142857142857143E+00
   0.7142857142857142E+00
   0.7142857142857142E+00
   0.7142857142857143E+00
   0.7142857142857143E+00
   0.7142857142857143E+00
   0.7142857142857143E+00
   0.7142857142857134E+00
   0.7142857142857143E+00
   0.7142857142857137E+00
   0.7142857142857141E+00
   0.7142857142857143E+00
   0.7142857142857143E+00
   0.7142857142857142E+00
   0.7142857142857143E+00
   0.7142857142857143E+00
   0.7142857142857142E+00
   0.7142857142857141E+00
   0.7142857142857143E+00
   0.7142857142857143E+00
   0.7142857142857143E+00
   0.7142857142857143E+00
   0.7142857142857143E+00
   0.7142857142857142E+00
   0.7142857142857143E+00
   0.7142857142857143E+00
   0.7142857142857143E+00
   0.7142857142857143E+00
   0.7142857142857143E+00
   0.7142857142857141E+00
   0.7142857142857143E+00
   0.7142857142857143E+00
   0.7142857142857143E+00
   0.7142857142857143E+00
   0.7142857142857143E+00
   0.7142857142857143E+00
   0.7142857142857143E+00
   0.7142857142857143E+00
   0.7142857142857143E+00
   0.7142857142857143E+00
   0.7142857142857143E+00
   0.7142857142857143E+00
   0.7142857142857143E+00
   0.7142857142857142E+00
   0.7142857142857143E+00
   0.7142857142857143E+00
   0.7142857142857143E+00
   0.7142857142857142E+00
   0.7142857142857143E+00
   0.7142857142857142E+00
   0.7142857142857143E+00
   0.7142857142857143E+00
   0.7142857142857142E+00
   0.7142857142857143E+00
   0.7142857142857143E+00
   0.7142857142857143E+00
   0.7142857142857143E+00
   0.7142857142857143E+00
   0.7142857142857143E+00
   0.7142857142857143E+00
   0.7142857142857143E+00
   0.7142857142857143E+00
   0.7142857142857143E+00
   0.7142857142857143E+00
   0.7142857142857143E+00
   0.7142857142857142E+00
   0.7142857142857143E+00
   0.7142857142857139E+00
   0.7142857142857143E+00
   0.7142857142857143E+00
   0.7142857142857144E+00
   0.7142857142857143E+00
   0.7142857142857143E+00
   0.7142857142857142E+00
   0.7142857142857143E+00
   0.7142857142857143E+00
   0.7142857142857143E+00
   0.7142857142857143E+00
   0.7142857142857143E+00
   0.7142857142857143E+00
   0.7142857142857143E+00
   0.7142857142857144E+00
   0.7142857142857143E+00
   0.7142857142857143E+00
   0.7142857142857143E+00
   0.7142857142857143E+00
   0.7142857142857142E+00
   0.7142857142857143E+00
   0.7142857142857143E+00
   0.7142857142857142E+00
   0.7142857142857142E+00
   0.7142857142857143E+00
   0.7142857142857143E+00
   0.7142857142857142E+00
   0.7142857142857143E+00
   0.7142857142857143E+00
   0.7142857142857143E+00
SCALARS mach double 1
LOOKUP_TABLE default
   0.4999999999999999E+00
   0.5000000000000002E+00
   0.5000000000000002E+00
   0.5000000000000000E+00
   0.4999999999999998E+00
   0.4999999999999995E+00
   0.5000000000000000E+00
   0.5000000000000003E+00
   0.5000000000000000E+00
   0.4999999999999999E+00
   0.5000000000000000E+00
   0.5000000000000001E+00
   0.4999999999999999E+00
   0.5000000000000000E+00
   0.5000000000000008E+00
   0.5000000000000001E+00
   0.5000000000000001E+00
   0.5000000000000002E+00
   0.4999999999999999E+00
   0.5000000000000001E+00
   0.5000000000000001E+00
   0.5000000000000002E+00
   0.5000000000000002E+00
   0.4999999999999999E+00
   0.5000000000000001E+00
   0.5000000000000000E+00
   0.4999999999999999E+00
   0.4999999999999999E+00
   0.5000000000000000E+00
   0.5000000000000002E+00
   0.5000000000000004E+00
   0.4999999999999999E+00
   0.5000000000000001E+00
   0.4999999999999997E+00
   0.5000000000000000E+00
   0.5000000000000001E+00
   0.5000000000000000E+00
   0.5000000000000001E+00
   0.4999999999999999E+00
   0.4999999999999999E+00
   0.5000000000000001E+00
   0.4999999999999997E+00
   0.5000000000000001E+00
   0.5000000000000000E+00
   0.4999999999999999E+00
   0.5000000000000002E+00
   0.5000000000000001E+00
   0.4999999999999999E+00
   0.4999999999999998E+00
   0.4999999999999999E+00
   0.5000000000000001E+00
   0.5000000000000000E+00
   0.5000000000000000E+00
   0.4999999999999999E+00
   0.4999999999999999E+00
   0.4999999999999999E+00
   0.5000000000000000E+00
   0.4999999999999999E+00
   0.4999999999999998E+00
   0.5000000000000000E+00
   0.4999999999999996E+00
   0.5000000000000000E+00
   0.4999999999999995E+00
   0.5000000000000001E+00
   0.5000000000000003E+00
   0.5000000000000002E+00
   0.4999999999999999E+00
   0.5000000000000000E+00
   0.4999999999999999E+00
   0.5000000000000004E+00
   0.5000000000000000E+00
   0.5000000000000001E+00
   0.5000000000000000E+00
   0.4999999999999997E+00
   0.4999999999999995E+00
   0.5000000000000001E+00
   0.5000000000000000E+00
   0.4999999999999999E+00
   0.5000000000000003E+00
   0.5000000000000000E+00
   0.5000000000000001E+00
   0.5000000000000003E+00
   0.5000000000000001E+00
   0.5000000000000000E+00
   0.5000000000000001E+00
   0.5000000000000000E+00
   0.4999999999999999E+00
   0.5000000000000001E+00
   0.5000000000000004E+00
   0.5000000000000001E+00
   0.5000000000000000E+00
   0.5000000000000001E+00
   0.5000000000000001E+00
   0.4999999999999999E+00
   0.5000000000000000E+00
   0.5000000000000001E+00
   0.5000000000000000E+00
   0.5000000000000000E+00
   0.5000000000000001E+00
   0.5000000000000000E+00
   0.5000000000000000E+00
   0.5000000000000000E+00
   0.5000000000000000E+00
   0.4999999999999999E+00
   0.5000000000000000E+00
   0.4999999999999998E+00
   0.5000000000000000E+00
   0.4999999999999998E+00
   0.4999999999999998E+00
   0.4999999999999992E+00
   0.5000000000000001E+00
   0.4999999999999999E+00
   0.5000000000000000E+00
   0.5000000000000000E+00
   0.5000000000000002E+00
   0.5000000000000004E+00
   0.4999999999999999E+00
   0.5000000000000003E+00
   0.5000000000000004E+00
   0.5000000000000001E+00
   0.5000000000000001E+00
   0.4999999999999996E+00
   0.5000000000000000E+00
   0.5000000000000010E+00
   0.5000000000000000E+00
   0.5000000000000004E+00
   0.5000000000000002E+00
   0.4999999999999998E+00
   0.5000000000000004E+00
   0.5000000000000001E+00
   0.5000000000000001E+00
   0.5000000000000001E+00
   0.5000000000000000E+00
   0.4999999999999998E+00
   0.5000000000000002E+00
   0.4999999999999999E+00
   0.5000000000000001E+00
   0.5000000000000001E+00
   0.5000000000000001E+00
   0.5000000000000003E+00
   0.4999999999999997E+00
   0.4999999999999999E+00
   0.5000000000000000E+00
   0.4999999999999999E+00
   0.5000000000000001E+00
   0.5000000000000003E+00
   0.5000000000000001E+00
   0.5000000000000000E+00
   0.5000000000000000E+00
   0.5000000000000001E+00
   0.5000000000000001E+00
   0.5000000000000001E+00
   0.4999999999999999E+00
   0.5000000000000001E+00
   0.4999999999999999E+00
   0.5000000000000000E+00
   0.4999999999999999E+00
   0.5000000000000000E+00
   0.5000000000000000E+00
   0.5000000000000000E+00
   0.5000000000000000E+00
   0.5000000000000001E+00
   0.4999999999999999E+00
   0.5000000000000001E+00
   0.4999999999999999E+00
   0.5000000000000000E+00
   0.5000000000000000E+00
   0.4999999999999999E+00
   0.5000000000000001E+00
   0.5000000000000001E+00
   0.5000000000000000E+00
   0.5000000000000001E+00
   0.5000000000000000E+00
   0.4999999999999998E+00
   0.5000000000000001E+00
   0.5000000000000000E+00
   0.5000000000000000E+00
   0.4999999999999999E+00
   0.5000000000000000E+00
   0.5000000000000001E+00
   0.5000000000000003E+00
   0.5000000000000000E+00
   0.4999999999999999E+00
   0.5000000000000002E+00
   0.4999999999999999E+00
   0.5000000000000000E+00
   0.5000000000000001E+00
   0.5000000000000000E+00
   0.4999999999999999E+00
   0.4999999999999999E+00
   0.5000000000000000E+00
   0.5000000000000000E+00
   0.4999999999999999E+00
   0.4999999999999999E+00
   0.5000000000000000E+00
   0.4999999999999999E+00
   0.5000000000000000E+00
   0.5000000000000001E+00
   0.5000000000000001E+00
   0.4999999999999999E+00
   0.4999999999999999E+00
   0.5000000000000001E+00
   0.4999999999999999E+00
   0.5000000000000000E+00
   0.5000000000000000E+00
   0.5000000000000000E+00
   0.5000000000000000E+00
   0.5000000000000001E+00
   0.5000000000000001E+00
   0.5000000000000000E+00
   0.5000000000000001E+00
   0.5000000000000001E+00
   0.4999999999999999E+00
SCALARS temperature double 1
LOOKUP_TABLE default
   0.1000000000000000E+01
   0.9999999999999999E+00
   0.1000000000000000E+01
   0.9999999999999997E+00
   0.9999999999999998E+00
   0.9999999999999997E+00
   0.9999999999999999E+00
   0.9999999999999998E+00
   0.9999999999999996E+00
   0.1000000000000000E+01
   0.9999999999999999E+00
   0.9999999999999999E+00
   0.1000000000000000E+01
   0.9999999999999998E+00
   0.1000000000000000E+01
   0.1000000000000000E+01
   0.1000000000000000E+01
   0.1000000000000000E+01
   0.9999999999999998E+00
   0.1000000000000000E+01
   0.1000000000000000E+01
   0.1000000000000000E+01
   0.9999999999999998E+00
   0.1000000000000000E+01
   0.1000000000000000E+01
   0.9999999999999998E+00
   0.9999999999999998E+00
   0.9999999999999998E+00
   0.9999999999999998E+00
   0.1000000000000000E+01
   0.9999999999999997E+00
   0.1000000000000000E+01
   0.9999999999999998E+00
   0.1000000000000000E+01
   0.9999999999999998E+00
   0.9999999999999994E+00
   0.9999999999999998E+00
   0.9999999999999997E+00
   0.9999999999999996E+00
   0.1000000000000000E+01
   0.9999999999999998E+00
   0.9999999999999996E+00
   0.9999999999999996E+00
   0.1000000000000000E+01
   0.1000000000000000E+01
   0.1000000000000000E+01
   0.9999999999999998E+00
   0.1000000000000000E+01
   0.1000000000000000E+01
   0.1000000000000000E+01
   0.1000000000000000E+01
   0.1000000000000000E+01
   0.9999999999999999E+00
   0.9999999999999999E+00
   0.1000000000000000E+01
   0.1000000000000000E+01
   0.9999999999999999E+00
   0.1000000000000000E+01
   0.1000000000000000E+01
   0.1000000000000000E+01
   0.1000000000000000E+01
   0.9999999999999999E+00
   0.9999999999999999E+00
   0.9999999999999998E+00
   0.9999999999999998E+00
   0.9999999999999998E+00
   0.1000000000000000E+01
   0.1000000000000000E+01
   0.1000000000000000E+01
   0.9999999999999998E+00
   0.1000000000000000E+01
   0.1000000000000000E+01
   0.1000000000000000E+01
   0.9999999999999997E+00
   0.9999999999999999E+00
   0.9999999999999998E+00
   0.9999999999999998E+00
   0.9999999999999999E+00
   0.1000000000000000E+01
   0.9999999999999996E+00
   0.1000000000000000E+01
   0.1000000000000000E+01
   0.1000000000000000E+01
   0.9999999999999999E+00
   0.1000000000000000E+01
   0.9999999999999998E+00
   0.9999999999999996E+00
   0.1000000000000000E+01
   0.9999999999999998E+00
   0.1000000000000000E+01
   0.9999999999999998E+00
   0.9999999999999997E+00
   0.9999999999999997E+00
   0.1000000000000000E+01
   0.9999999999999998E+00
   0.1000000000000000E+01
   0.1000000000000000E+01
   0.9999999999999998E+00
   0.9999999999999997E+00
   0.9999999999999999E+00
   0.1000000000000000E+01
   0.1000000000000000E+01
   0.9999999999999999E+00
   0.9999999999999998E+00
   0.9999999999999999E+00
   0.9999999999999998E+00
   0.9999999999999998E+00
   0.1000000000000000E+01
   0.1000000000000000E+01
   0.1000000000000000E+01
   0.1000000000000000E+01
   0.1000000000000000E+01
   0.1000000000000000E+01
   0.9999999999999996E+00
   0.9999999999999999E+00
   0.9999999999999997E+00
   0.1000000000000000E+01
   0.9999999999999998E+00
   0.9999999999999999E+00
   0.1000000000000000E+01
   0.1000000000000000E+01
   0.1000000000000000E+01
   0.1000000000000000E+01
   0.9999999999999999E+00
   0.9999999999999998E+00
   0.9999999999999999E+00
   0.9999999999999999E+00
   0.1000000000000000E+01
   0.9999999999999996E+00
   0.1000000000000000E+01
   0.1000000000000000E+01
   0.1000000000000000E+01
   0.9999999999999998E+00
   0.9999999999999997E+00
   0.1000000000000000E+01
   0.1000000000000000E+01
   0.1000000000000000E+01
   0.1000000000000000E+01
   0.1000000000000000E+01
   0.9999999999999999E+00
   0.1000000000000000E+01
   0.1000000000000000E+01
   0.1000000000000000E+01
   0.1000000000000000E+01
   0.1000000000000000E+01
   0.9999999999999998E+00
   0.1000000000000000E+01
   0.1000000000000000E+01
   0.1000000000000000E+01
   0.1000000000000000E+01
   0.1000000000000000E+01
   0.1000000000000000E+01
   0.1000000000000000E+01
   0.1000000000000000E+01
   0.1000000000000000E+01
   0.1000000000000000E+01
   0.1000000000000000E+01
   0.1000000000000000E+01
   0.1000000000000000E+01
   0.9999999999999999E+00
   0.1000000000000000E+01
   0.9999999999999998E+00
   0.1000000000000000E+01
   0.1000000000000000E+01
   0.1000000000000000E+01
   0.9999999999999999E+00
   0.1000000000000000E+01
   0.1000000000000000E+01
   0.9999999999999998E+00
   0.1000000000000000E+01
   0.1000000000000000E+01
   0.1000000000000000E+01
   0.1000000000000000E+01
   0.1000000000000000E+01
   0.1000000000000000E+01
   0.1000000000000000E+01
   0.1000000000000000E+01
   0.1000000000000000E+01
   0.1000000000000000E+01
   0.1000000000000000E+01
   0.1000000000000000E+01
   0.9999999999999998E+00
   0.1000000000000000E+01
   0.9999999999999996E+00
   0.1000000000000000E+01
   0.1000000000000000E+01
   0.1000000000000000E+01
   0.1000000000000000E+01
   0.1000000000000000E+01
   0.1000000000000000E+01
   0.1000000000000000E+01
   0.1000000000000000E+01
   0.9999999999999998E+00
   0.1000000000000000E+01
   0.1000000000000000E+01
   0.1000000000000000E+01
   0.1000000000000000E+01
   0.1000000000000000E+01
   0.1000000000000000E+01
   0.1000000000000000E+01
   0.1000000000000000E+01
   0.1000000000000000E+01
   0.1000000000000000E+01
   0.1000000000000000E+01
   0.1000000000000000E+01
   0.9999999999999999E+00
   0.9999999999999999E+00
   0.1000000000000000E+01
   0.1000000000000000E+01
   0.9999999999999998E+00
   0.1000000000000000E+01
   0.1000000000000000E+01
   0.1000000000000000E+01
SCALARS lambda1 double 1
LOOKUP_TABLE default
  -0.1198438438263945E-01
  -0.1639479834774051E-01
  -0.1657059083752819E-01
  -0.1660363172143962E-01
  -0.1429651104718954E-03
  -0.1749624329100280E-02
  -0.2186754630756207E-02
  -0.9889280505610140E-03
   0.4560084924842564E-03
  -0.8619945835403153E-02
  -0.2457389848160712E-01
  -0.3001563041214758E-01
  -0.1678900048778427E-01
  -0.1846472721055878E-01
  -0.2510908402563892E-01
  -0.1809728849928193E-01
  -0.2770580786691682E-01
  -0.7829801372791751E-02
  -0.3990935830226887E-02
  -0.8049677508041312E-02
  -0.1159242913407724E-01
  -0.2258526703144683E-01
  -0.1256791831353867E-01
  -0.7926693144708388E-02
  -0.5601222955024879E-02
  -0.9486656728923159E-02
  -0.4874875272520405E-02
  -0.7216994214949229E-02
  -0.3760724079967176E-02
  -0.1636902485568921E-01
  -0.9283283504203989E-02
  -0.7775457384884769E-02
  -0.1538322757806283E-01
  -0.3104850107136855E-03
  -0.2923057776909763E-04
  -0.1772390696546167E-04
  -0.1605968822762154E-04
  -0.1865912986499954E-04
  -0.2562550279789927E-05
  -0.3248397826964926E-04
   0.4000304444047127E-04
  -0.6192788040517967E-03
   0.1836928813459023E-02
   0.3643262817901741E-02
   0.2808001997843647E-02
  -0.1489410384192411E-04
   0.4120656163642106E-02
  -0.1631865025530032E-03
   0.9973081062736585E-04
   0.6244624000709798E-04
   0.2331206512423537E-02
  -0.9306424013436637E-04
  -0.6154956057846665E-05
   0.2159736981116619E-04
   0.7694219383938736E-06
   0.4159333668703927E-03
  -0.7983431567489361E-04
   0.3412921422807863E-02
   0.7980484132174438E-02
   0.4525542300581499E-02
  -0.3774585914291427E-03
  -0.9211663938537102E-05
  -0.9575580106390024E-05
  -0.1693584779480931E-04
  -0.1299701321096812E-04
  -0.1270462061569250E-04
  -0.2455441580711126E-04
   0.1956081376178108E-04
  -0.3185290003378561E-03
  -0.1063954449495419E-04
  -0.1361903308212750E-04
   0.1178653686199081E-02
   0.7536755686557887E-03
   0.1088367588509731E-02
   0.6289919631869267E-05
  -0.4039982453401927E-04
  -0.1271878274059654E-04
  -0.2256072602048483E-04
  -0.1383228153388903E-04
  -0.1839118830149748E-04
  -0.1459783821582679E-04
  -0.1612554351149296E-04
  -0.7944924599934659E-05
   0.8108269784609723E-04
  -0.3332452524972984E-06
   0.1429078923342544E-04
   0.3473021327132800E-04
  -0.2368545490981047E-04
  -0.1340390607449930E-03
  -0.2768334132306879E-04
  -0.2108205493427254E-04
  -0.1562863301935179E-04
  -0.1090267479175247E-04
  -0.1579702031360524E-04
   0.5312645410033782E-04
  -0.1562233983788662E-04
  -0.9813856705148277E-05
  -0.7643856926127709E-05
  -0.5760765714158274E-05
  -0.1603213269190507E-04
   0.1127506734787313E-03
  -0.6391880566548992E-04
  -0.3571073046899489E-04
   0.1154241002894578E-03
  -0.1452045636341469E-04
   0.3400292320398605E-05
  -0.2667436355801310E-04
  -0.5231906738674807E-05
   0.3960550707801163E-02
   0.1510223743663151E-02
  -0.2436318741415190E-03
  -0.3719517375668006E-03
   0.6489633330726024E-02
   0.4876559725908803E-02
  -0.2117189665437208E-03
  -0.3489392393745395E-03
  -0.3447302250697188E-03
  -0.4171880589070441E-04
   0.4659741935414957E-03
   0.5009573133623162E-02
   0.3175200528270356E-02
   0.2586081124353405E-02