title="tecplot geometry and solution file"
variables = x y z mach temperature lambda1 lambda2 lambda3 lambda4 lambda5
zone t="boundary 1 bc-1", solutiontime= 0.3000000E+02, strandid=1001, i=32, j=46, f=feblock
 -0.547472452772E-02  0.000000000000E+00 -0.567610116354E-02  0.000000000000E+00  0.000000000000E+00  0.000000000000E+00 -0.525162568575E-02
 -0.425778988008E-02  0.000000000000E+00  0.000000000000E+00  0.000000000000E+00  0.000000000000E+00  0.000000000000E+00  0.000000000000E+00
  0.000000000000E+00  0.000000000000E+00 -0.338396965251E-02  0.000000000000E+00  0.000000000000E+00  0.000000000000E+00  0.000000000000E+00
  0.000000000000E+00  0.000000000000E+00  0.000000000000E+00  0.000000000000E+00  0.000000000000E+00  0.000000000000E+00  0.000000000000E+00
  0.000000000000E+00  0.000000000000E+00  0.000000000000E+00  0.000000000000E+00
  0.250494200518E+01  0.250494200518E+01  0.127822174353E+01  0.146289271009E+01  0.157686156160E+01  0.308372018325E+00  0.261950149565E-01
 -0.122573467301E+01 -0.600232012419E+00  0.250494200518E+01  0.477386199275E+00  0.742988685424E+00 -0.739814786992E+00  0.177790177481E+01
  0.155830813274E+01  0.250494200518E+01 -0.249658901620E+01 -0.154800130438E+01 -0.487811078581E+00  0.250494200518E+01  0.627766083140E+00
 -0.345533899378E+00 -0.178862290564E+01 -0.158811787973E+01  0.125000000000E+01 -0.249658901620E+01 -0.144524380962E+01  0.000000000000E+00
 -0.125000000000E+01 -0.249658901620E+01 -0.249658901620E+01 -0.249658901620E+01
  0.803216924785E-04  0.125000000000E+01  0.822205278517E-04  0.103724302461E+01  0.219251206392E+01  0.922061490191E+00  0.103877881505E-03
  0.341876513122E-04  0.715990576545E+00  0.250000000000E+01  0.202479342020E+01  0.324151231464E+01  0.175434191980E+01  0.310152362409E+01
  0.404200324774E+01  0.375000000000E+01  0.811362586350E-04  0.930412228790E+00  0.299062775774E+01  0.500000000000E+01  0.429310310915E+01
  0.409252726285E+01  0.187029682677E+01  0.284428995242E+01  0.500000000000E+01  0.125000000000E+01  0.394624082883E+01  0.500000000000E+01
  0.500000000000E+01  0.250000000000E+01  0.375000000000E+01  0.500000000000E+01
  0.499981206172E+00  0.499991118348E+00  0.499981230533E+00  0.499988898606E+00  0.499994293982E+00  0.499986890137E+00  0.499980034591E+00
  0.499978035812E+00  0.499984817147E+00  0.499995300091E+00  0.499993474129E+00  0.499996491933E+00  0.499991673269E+00  0.499996421204E+00
  0.499997489029E+00  0.499997301467E+00  0.499982049496E+00  0.499985451310E+00  0.499995812565E+00  0.499998204572E+00  0.499997804495E+00
  0.499997536087E+00  0.499993011081E+00  0.499995350029E+00  0.499998439681E+00  0.499989731792E+00  0.499997291580E+00  0.499998469765E+00
  0.499998327883E+00  0.499994947581E+00  0.499997102831E+00  0.499998157431E+00
  0.100000535959E+01  0.100000311693E+01  0.100000597590E+01  0.100000364217E+01  0.100000195380E+01  0.100000402884E+01  0.100000822559E+01
  0.100001092492E+01  0.100000511527E+01  0.100000165055E+01  0.100000226103E+01  0.100000124782E+01  0.100000270965E+01  0.100000128260E+01
  0.100000084133E+01  0.100000095003E+01  0.100000836147E+01  0.100000449886E+01  0.100000143616E+01  0.100000057268E+01  0.100000077696E+01
  0.100000086546E+01  0.100000257771E+01  0.100000151568E+01  0.100000054456E+01  0.100000370047E+01  0.100000091472E+01  0.100000053273E+01
  0.100000055921E+01  0.100000176985E+01  0.100000100452E+01  0.100000058992E+01
  0.231474205867E+02  0.166574128843E+02  0.237775715586E+02  0.175562662361E+02  0.955742794280E+01  0.186930505534E+02  0.244867873609E+02
  0.243094133743E+02  0.200481278107E+02  0.455125923744E+01  0.108843717448E+02  0.499332914395E+01  0.123063213116E+02  0.206571875218E+01
  0.219248476061E+02  0.165762617043E+02  0.232148223400E+02  0.187751529015E+02  0.463068914027E+01  0.119816831388E+03  0.334228839311E+02
  0.185360128342E+02  0.118292588334E+02  0.436065519973E+01  0.123490880408E+03  0.175854248485E+02  0.158499505817E+02  0.136449551193E+03
  0.119977838290E+03  0.478130330177E+01  0.150266382337E+02  0.111779599795E+03
  0.869816890793E+01  0.559402906109E+01  0.898896107533E+01  0.597026219883E+01  0.326290578232E+01  0.646356094553E+01  0.921144475389E+01
  0.922897375027E+01  0.701922988145E+01  0.205395207063E+01  0.365502807019E+01  0.175367428538E+01  0.413080790568E+01  0.131159660022E+01
  0.456212003049E+01  0.375493796687E+01  0.865670459203E+01  0.638070540568E+01  0.176753526415E+01  0.248879281342E+02  0.694163585423E+01
  0.388745258629E+01  0.404606690112E+01  0.168368798323E+01  0.259820122589E+02  0.572510753391E+01  0.337801284106E+01  0.286851212799E+02
  0.251750538955E+02  0.208142884092E+01  0.364642400348E+01  0.234062108292E+02
 -0.104956381539E-01  0.775040301160E-02 -0.141270240729E+00  0.453575150729E-01 -0.107671353540E+00 -0.466943953507E-01 -0.443161766617E-01
  0.794024981311E-01 -0.546896069779E-01 -0.113511119491E-01  0.551035038659E-01 -0.768030442147E-02  0.783321478902E-01 -0.215861556315E-01
  0.136467570430E+00  0.175418405886E-02 -0.719626858533E-02  0.183620186126E-01 -0.482044181075E-01 -0.981387907213E-02  0.187334470178E-01
 -0.474105324998E-01 -0.537308871261E-01  0.952013339347E-01 -0.272048677186E+00 -0.190747346562E-01  0.403969277324E-01  0.727899792478E-01
  0.151025544538E+00 -0.397820510017E-02 -0.221796003861E-01 -0.126810906962E-01
 -0.838021154583E+01 -0.809886191295E+01 -0.847014635819E+01 -0.806684993260E+01 -0.724980736968E+01 -0.821718681725E+01 -0.857346468621E+01
 -0.849941168451E+01 -0.850123408621E+01 -0.693928616214E+01 -0.735909458576E+01 -0.547177751241E+01 -0.766459927673E+01 -0.581793360728E+01
 -0.395145484800E+01 -0.422202565421E+01 -0.842527945509E+01 -0.817704095809E+01 -0.595600763732E+01 -0.179323636577E+01 -0.369755339465E+01
 -0.428639895227E+01 -0.755915473894E+01 -0.595983522619E+01 -0.176263089593E+01 -0.813544137585E+01 -0.416214876389E+01 -0.163129839362E+01
 -0.192810071360E+01 -0.672465425705E+01 -0.434136464915E+01 -0.195043195785E+01
 -0.933388223180E+01 -0.645036790321E+01 -0.959887598033E+01 -0.678771528317E+01 -0.342611060024E+01 -0.724571870651E+01 -0.991810098492E+01
 -0.985994237279E+01 -0.782642651890E+01 -0.136344778396E+01 -0.400611439117E+01 -0.161900404431E+01 -0.458762207231E+01 -0.374666146430E+00
 -0.860039956628E+01 -0.646758010009E+01 -0.934940115444E+01 -0.728668930196E+01 -0.145038039059E+01 -0.498935789193E+02 -0.134264121469E+02
 -0.718871533660E+01 -0.438988433073E+01 -0.127906544926E+01 -0.514829358331E+02 -0.679151315730E+01 -0.604709749419E+01 -0.570150308007E+02
 -0.500379345782E+02 -0.145505324758E+01 -0.582504298581E+01 -0.465158748659E+02
        12        19        11        11
        11         5        12        12
        10        14         5         5
        19        13        11        11
        19        24        13        13
        30        23        24        24
        19        12        22        22
        28        22        21        21
        11        13         6         6
         7         6         9         9
        15        12        14        14
        18        13        23        23
        15        25        21        21
        27        19        22        22
        18         8         9         9
        27        31        24        24
         4        11         6         6
         5        14        12        12
         4         2         5         5
        21        12        15        15
        14        16        15        15
        24        19        27        27
        22        29        27        27
        23        26        18        18
        17         8        18        18
         5        11         4         4
         6         3         4         4
        26        23        30        30
         5         2        10        10
        16        14        10        10
         3         6         7         7
        21        25        28        28
        29        22        28        28
         6        13         9         9
         2         4         1         1
        31        27        32        32
        25        15        20        20
        24        23        13        13
         8         7         9         9
        13        18         9         9
        31        30        24        24
        12        21        22        22
        29        32        27        27
         3         1         4         4
        26        17        18        18
        16        20        15        15
zone t="boundary 2 bc-2", solutiontime= 0.3000000E+02, strandid=1002, i=33, j=48, f=feblock
  0.500195255313E+01  0.375034812201E+01  0.249861146354E+01  0.288036675733E+01  0.124717526151E+01  0.190856699606E+01  0.326577190793E+01
  0.201394857590E+01 -0.338396965251E-02  0.962374261034E+00  0.500000000000E+01  0.403430190133E+01  0.423029563300E+01  0.500000000000E+01
  0.385439188555E+01  0.500000000000E+01  0.398133432910E+01  0.315200081434E+01  0.266958029510E+01  0.154798030854E+01  0.218327860925E+01
  0.893688451288E+00  0.000000000000E+00  0.699009769630E+00  0.964460904435E+00  0.310303671669E+01  0.000000000000E+00  0.000000000000E+00
  0.125000000000E+01  0.500000000000E+01  0.375000000000E+01  0.250000000000E+01  0.000000000000E+00
 -0.249658901620E+01 -0.249658901620E+01 -0.249658901620E+01 -0.249658901620E+01 -0.249658901620E+01 -0.249658901620E+01 -0.249658901620E+01
 -0.249658901620E+01 -0.249658901620E+01 -0.249658901620E+01 -0.249658901620E+01 -0.249658901620E+01 -0.249658901620E+01 -0.249658901620E+01
 -0.249658901620E+01 -0.249658901620E+01 -0.249658901620E+01 -0.249658901620E+01 -0.249658901620E+01 -0.249658901620E+01 -0.249658901620E+01
 -0.249658901620E+01 -0.249658901620E+01 -0.249658901620E+01 -0.249658901620E+01 -0.249658901620E+01 -0.249658901620E+01 -0.249658901620E+01
 -0.249658901620E+01 -0.249658901620E+01 -0.249658901620E+01 -0.249658901620E+01 -0.249658901620E+01
  0.108209237191E-03  0.145875487893E-03  0.100909957516E-03  0.901663357824E+00  0.110895828141E-03  0.714928325670E+00  0.188140643916E+01
  0.175892163457E+01  0.811362586350E-04  0.957504305816E+00  0.125000000000E+01  0.100596693416E+01  0.191313516265E+01  0.250000000000E+01
  0.292898094244E+01  0.375000000000E+01  0.406883368474E+01  0.363389287837E+01  0.284756858001E+01  0.292582306272E+01  0.395754053293E+01
  0.205027256174E+01  0.125000000000E+01  0.306703271839E+01  0.397155765835E+01  0.433068621090E+01  0.250000000000E+01  0.375000000000E+01
  0.500000000000E+01  0.500000000000E+01  0.500000000000E+01  0.500000000000E+01  0.500000000000E+01
  0.500013676998E+00  0.500030724005E+00  0.500027799541E+00  0.500017522361E+00  0.500015385480E+00  0.500014538827E+00  0.500007342474E+00
  0.500003664484E+00  0.499982049496E+00  0.499999307946E+00  0.500004491847E+00  0.500015759779E+00  0.500005777901E+00  0.500001474538E+00
  0.500001734294E+00  0.500000427033E+00  0.499999911699E+00  0.500000045460E+00  0.500001223002E+00  0.499998439589E+00  0.499998537069E+00
  0.499997005536E+00  0.499989731792E+00  0.499996821482E+00  0.499997507780E+00  0.499998949588E+00  0.499994947581E+00  0.499997102831E+00
  0.499997349625E+00  0.500000070105E+00  0.499998661549E+00  0.499997668322E+00  0.499998157431E+00
  0.999999642210E+00  0.999998314080E+00  0.999997764198E+00  0.999999289128E+00  0.999999767276E+00  0.100000001676E+01  0.999999818206E+00
  0.100000065162E+01  0.100000836147E+01  0.100000218891E+01  0.100000090483E+01  0.999999460288E+00  0.100000019693E+01  0.100000061226E+01
  0.100000032385E+01  0.100000038408E+01  0.100000041917E+01  0.100000048659E+01  0.100000053264E+01  0.100000096943E+01  0.100000070526E+01
  0.100000163250E+01  0.100000370047E+01  0.100000126750E+01  0.100000090728E+01  0.100000055815E+01  0.100000176985E+01  0.100000100452E+01
  0.100000073887E+01  0.100000029407E+01  0.100000050089E+01  0.100000068226E+01  0.100000058992E+01
  0.327162746044E+02  0.283154019794E+02  0.263525840577E+02  0.207582064796E+02  0.249213666551E+02  0.211720760201E+02  0.157476242161E+02
  0.148297050328E+02  0.232148223400E+02  0.185015237666E+02  0.206289675326E+02  0.214425066379E+02  0.168502485544E+02  0.144989254654E+02
  0.111376443710E+02  0.100371352624E+02  0.749202118168E+01  0.888804468508E+01  0.106684164205E+02  0.549962914154E+01  0.110744218226E+02
  0.123367042733E+02  0.175854248485E+02  0.502667657981E+01  0.171668778399E+02  0.135774954577E+02  0.478130330177E+01  0.150266382337E+02
  0.989871764225E+02  0.111520704147E+02  0.427324282258E+02  0.842936585708E+02  0.111779599795E+03
 -0.735715427984E+01  0.235045014301E+01  0.666414064515E+01  0.159375747369E+01  0.832454160343E+01  0.460356199701E+01 -0.139384734602E+01
  0.115596042503E+01  0.865670459203E+01  0.509497158428E+01 -0.495088858511E+01 -0.122698323067E+01 -0.274798307588E+01 -0.346222680075E+01
 -0.282850559022E+01 -0.222899612276E+01 -0.303894763165E+01 -0.262518365493E+01 -0.181694855427E+01 -0.108533001469E+01 -0.145603820266E+01
  0.211919339187E+01  0.572510753391E+01  0.684757887484E-01  0.155799775574E+01 -0.169716889711E+01  0.208142884092E+01  0.364642400348E+01
  0.176946714050E+02 -0.587254970881E+00  0.411436990239E+01  0.128818212384E+02  0.234062108292E+02
 -0.459171142856E+00 -0.291963847387E+00 -0.651890624512E-01 -0.343807197167E-01 -0.224843846970E-01 -0.130923716176E-01  0.294411158837E-01
  0.469409344450E-01 -0.719626858533E-02 -0.633553257982E-02 -0.860081150411E-01 -0.322204618254E-01 -0.231561121342E-01 -0.471869242315E-01
 -0.467137393836E-01  0.379016519791E-01 -0.390359596742E-01  0.164211026979E-01  0.414811188364E-01  0.806041590153E-01  0.807263637051E-02
 -0.477670001232E-01 -0.190747346562E-01 -0.260657902652E-01 -0.423214519292E-01  0.834717068851E-02 -0.397820510017E-02 -0.221796003861E-01
 -0.490886288305E-03  0.697410003692E-02  0.828414118542E-02 -0.110590791274E-01 -0.126810906962E-01
 -0.278369428281E+01 -0.629050841828E+01 -0.787836494389E+01 -0.614017068663E+01 -0.788054008048E+01 -0.696581087959E+01 -0.407326314989E+01
 -0.560820885802E+01 -0.842527945509E+01 -0.723126894818E+01 -0.197849293678E+01 -0.462991894078E+01 -0.248921850514E+01 -0.672571166468E+00
 -0.231292164555E+01 -0.608728224371E+00 -0.201039391202E+01 -0.310813703396E+01 -0.395680018601E+01 -0.477957479035E+01 -0.362529267386E+01
 -0.618740127241E+01 -0.813544137585E+01 -0.510715819814E+01 -0.394700319658E+01 -0.303263869415E+01 -0.672465425705E+01 -0.434136464915E+01
 -0.265995376129E+01 -0.118587608126E+01 -0.263704575970E+01 -0.303131447116E+01 -0.195043195785E+01
 -0.652897856566E+01 -0.869319679150E+01 -0.960869771246E+01 -0.636549697506E+01 -0.972337454403E+01 -0.742400668036E+01 -0.396270328015E+01
 -0.446711640286E+01 -0.934940115444E+01 -0.680456884150E+01 -0.420712773961E+01 -0.589458467286E+01 -0.394060415895E+01 -0.297828862734E+01
 -0.213340735460E+01 -0.213983010157E+01 -0.100685391032E+01 -0.157973618099E+01 -0.233208652581E+01 -0.793796526221E+00 -0.279767746117E+01
 -0.408587133141E+01 -0.679151315730E+01 -0.111393209125E+01 -0.598744545592E+01 -0.364428438742E+01 -0.145505324758E+01 -0.582504298581E+01
 -0.402172785440E+02 -0.335334810530E+01 -0.159546171313E+02 -0.334467271848E+02 -0.465158748659E+02
        15         7        19        19
         8        20        19        19
        18        19        21        21
         7         4         8         8
         3         6         4         4
        19         7         8         8
        19        18        15        15
        14        13        15        15
         8        22        20        20
        27        24        22        22
        19        20        21        21
        32        26        21        21
        17        18        26        26
        17        16        15        15
        25        29        21        21
        12         7        13        13
        10         8         6         6
        25        20        24        24
         4         6         8         8
        12         2         4         4
        10        23        22        22
        26        31        17        17
        30        16        17        17
         4         7        12        12
        13        11        12        12
        21        20        25        25
        24        28        25        25
        22         8        10        10
         6         5        10        10
        31        26        32        32
         4         2         3         3
         5         6         3         3
        11        13        14        14
        22        23        27        27
        28        24        27        27
        15        13         7         7
         2        12         1         1
        29        25        33        33
        23        10         9         9
        21        26        18        18
        16        14        15        15
        18        17        15        15
        29        32        21        21
        22        24        20        20
        28        33        25        25
        11         1        12        12
        31        30        17        17
         5         9        10        10
zone t="boundary 3 bc-3", solutiontime= 0.3000000E+02, strandid=1003, i=33, j=48, f=feblock
  0.375059100022E+01  0.249769609016E+01  0.500322139356E+01  0.403612222763E+01  0.287976775181E+01  0.124541907693E+01  0.190552236756E+01
  0.500000000000E+01  0.326671106333E+01  0.423253756071E+01  0.201271138087E+01 -0.547472452772E-02  0.958895628158E+00  0.500000000000E+01
  0.266968148532E+01  0.385584487668E+01  0.890374213116E+00  0.154654014519E+01  0.000000000000E+00  0.500000000000E+01  0.315261137241E+01
  0.218304200095E+01  0.398195307874E+01  0.000000000000E+00  0.697379955531E+00  0.963757281441E+00  0.125000000000E+01  0.000000000000E+00
  0.500000000000E+01  0.310330738720E+01  0.250000000000E+01  0.375000000000E+01  0.000000000000E+00
  0.250494200518E+01  0.250494200518E+01  0.250494200518E+01  0.250494200518E+01  0.250494200518E+01  0.250494200518E+01  0.250494200518E+01
  0.250494200518E+01  0.250494200518E+01  0.250494200518E+01  0.250494200518E+01  0.250494200518E+01  0.250494200518E+01  0.250494200518E+01
  0.250494200518E+01  0.250494200518E+01  0.250494200518E+01  0.250494200518E+01  0.250494200518E+01  0.250494200518E+01  0.250494200518E+01
  0.250494200518E+01  0.250494200518E+01  0.250494200518E+01  0.250494200518E+01  0.250494200518E+01  0.250494200518E+01  0.250494200518E+01
  0.250494200518E+01  0.250494200518E+01  0.250494200518E+01  0.250494200518E+01  0.250494200518E+01
  0.135457002285E-03  0.109983637804E-03  0.964506780631E-04  0.101756739734E+01  0.908094462101E+00  0.103842397884E-03  0.722629008326E+00
  0.125000000000E+01  0.188965653795E+01  0.191862692309E+01  0.176708233165E+01  0.803216924785E-04  0.969652538178E+00  0.250000000000E+01
  0.285339429033E+01  0.293325055335E+01  0.205656222194E+01  0.293157014693E+01  0.125000000000E+01  0.375000000000E+01  0.363766836446E+01
  0.396069443367E+01  0.407056384269E+01  0.250000000000E+01  0.307031994182E+01  0.397359819531E+01  0.500000000000E+01  0.375000000000E+01
  0.500000000000E+01  0.433260780167E+01  0.500000000000E+01  0.500000000000E+01  0.500000000000E+01
  0.500026428483E+00  0.500032419246E+00  0.500006862582E+00  0.500012675829E+00  0.500016790694E+00  0.500005515514E+00  0.500011116478E+00
  0.500003733998E+00  0.500006808641E+00  0.500005363108E+00  0.500002980941E+00  0.499981206172E+00  0.499995995245E+00  0.500001545865E+00
  0.500001067063E+00  0.500001776043E+00  0.499997120852E+00  0.499998507319E+00  0.499991118348E+00  0.500000541056E+00  0.499999909999E+00
  0.499998556582E+00  0.499999838719E+00  0.499995300091E+00  0.499997100276E+00  0.499997636821E+00  0.499997394909E+00  0.499997301467E+00
  0.500000060877E+00  0.499998929370E+00  0.499997760436E+00  0.499998686680E+00  0.499998204572E+00
  0.999997964296E+00  0.999995086830E+00  0.100000150102E+01  0.999999543333E+00  0.999999196217E+00  0.100000275892E+01  0.100000006398E+01
  0.100000070756E+01  0.999999894343E+00  0.100000004711E+01  0.100000060249E+01  0.100000535959E+01  0.100000239388E+01  0.100000049308E+01
  0.100000047118E+01  0.100000028575E+01  0.100000141342E+01  0.100000097400E+01  0.100000311693E+01  0.100000033967E+01  0.100000046231E+01
  0.100000068491E+01  0.100000038434E+01  0.100000165055E+01  0.100000115855E+01  0.100000085007E+01  0.100000071260E+01  0.100000095003E+01
  0.100000027348E+01  0.100000053168E+01  0.100000066520E+01  0.100000047449E+01  0.100000057268E+01
  0.280453819784E+02  0.258020063226E+02  0.330861788073E+02  0.212185973875E+02  0.211177139042E+02  0.254524700667E+02  0.209682843318E+02
  0.209899830868E+02  0.156279210878E+02  0.160194219071E+02  0.150408716214E+02  0.231474205867E+02  0.182179380373E+02  0.138271983751E+02
  0.112368979619E+02  0.123707745810E+02  0.111379776157E+02  0.677362553958E+01  0.166574128843E+02  0.102339130950E+02  0.872561925701E+01
  0.953361871937E+01  0.787168031645E+01  0.455125923744E+01  0.353134023865E+01  0.233414223165E+02  0.865826589247E+02  0.165762617043E+02
  0.934725544838E+01  0.121697403322E+02  0.783185684187E+02  0.412545154185E+02  0.119816831388E+03
  0.318478365240E+01  0.658772077969E+01 -0.766042855843E+01 -0.947844538740E+00  0.209854930799E+01  0.880164497208E+01  0.462859898025E+01
 -0.511465458123E+01 -0.157550518768E+01 -0.288863134629E+01  0.998273615712E+00  0.869816890793E+01  0.507409624107E+01 -0.333800301764E+01
 -0.153022916369E+01 -0.256852636125E+01  0.180520643836E+01 -0.748525075074E+00  0.559402906109E+01 -0.239890117060E+01 -0.256874798144E+01
 -0.178464023650E+01 -0.288423550118E+01  0.205395207063E+01 -0.273251760113E+00  0.290804471214E+01  0.151514068773E+02  0.375493796687E+01
 -0.905173188064E+00 -0.195528450587E+01  0.117950836372E+02  0.393325215159E+01  0.248879281342E+02
  0.141858665156E+00  0.410059480113E-01  0.273251376495E+00 -0.205321095832E+00 -0.220803292115E+00  0.722081047811E-02 -0.177565212011E-02
  0.787779604608E-01  0.451429189170E-01  0.316692619108E-01 -0.340634874472E-01 -0.104956381539E-01  0.242710192969E-01 -0.567626479578E-01
 -0.692394678266E-01  0.113646991572E-01  0.204994951291E-01 -0.662836155518E-01  0.775040301160E-02 -0.434983984376E-01 -0.154894467199E-01
 -0.285157572424E-01  0.831406243859E-03 -0.113511119491E-01  0.279228159192E-01  0.533110792705E-01 -0.332564758215E-01  0.175418405886E-02
 -0.224439826070E-01 -0.180657426366E-02 -0.827921310936E-02 -0.525618110401E-02 -0.981387907213E-02
 -0.665251337003E+01 -0.776407264476E+01 -0.312825538824E+01 -0.511831807073E+01 -0.638473159029E+01 -0.776027035670E+01 -0.710475089205E+01
 -0.196979691845E+01 -0.408440607788E+01 -0.238122999528E+01 -0.558418573525E+01 -0.838021154583E+01 -0.716312207740E+01 -0.726163886131E+00
 -0.393101835332E+01 -0.231543521852E+01 -0.619775825553E+01 -0.485475200814E+01 -0.809886191295E+01 -0.778488177788E+00 -0.300612545960E+01
 -0.370277050916E+01 -0.208533891620E+01 -0.693928616214E+01 -0.505997945192E+01 -0.396587013267E+01 -0.273465695667E+01 -0.422202565421E+01
 -0.108608484289E+01 -0.290066594975E+01 -0.302764743492E+01 -0.261739078381E+01 -0.179323636577E+01
 -0.870939282286E+01 -0.935943237221E+01 -0.636807209823E+01 -0.588637090115E+01 -0.667242943245E+01 -0.100607040562E+02 -0.738141905381E+01
 -0.426483334346E+01 -0.388656051453E+01 -0.362593878718E+01 -0.450316539466E+01 -0.933388223180E+01 -0.673823610458E+01 -0.281368985222E+01
 -0.260521558274E+01 -0.266507057809E+01 -0.356152426330E+01 -0.131685541581E+01 -0.645036790321E+01 -0.211765515091E+01 -0.153177146803E+01
 -0.214201737289E+01 -0.120448233749E+01 -0.136344778396E+01 -0.529318025184E+00 -0.860096928927E+01 -0.349643484768E+02 -0.646758010009E+01
 -0.262197179335E+01 -0.307905559980E+01 -0.309745753325E+02 -0.153573085833E+02 -0.498935789193E+02
        15         9        16        16
        15        18        11        11
        22        15        21        21
        11         5         9         9
         5         7         2         2
        11         9        15        15
        16        21        15        15
        16        10        14        14
        18        17        11        11
        17        25        24        24
        22        18        15        15
        22        30        31        31
        30        21        23        23
        16        20        23        23
        22        27        26        26
        10         9         4         4
         7        11        13        13
        25        18        26        26
        11         7         5         5
         5         1         4         4
        17        19        13        13
        23        32        30        30
        23        20        29        29
         4         9         5         5
         4         8        10        10
        26        18        22        22
        26        28        25        25
        13        11        17        17
        13         6         7         7
        31        30        32        32
         2         1         5         5
         2         7         6         6
        14        10         8         8
        24        19        17        17
        24        25        28        28
         9        10        16        16
         3         4         1         1
        33        26        27        27
        12        13        19        19
        21        30        22        22
        16        14        20        20
        16        23        21        21
        22        31        27        27
        18        25        17        17
        26        33        28        28
         4         3         8         8
        23        29        32        32
        13        12         6         6
zone t="boundary 4 bc-4", solutiontime= 0.3000000E+02, strandid=1004, i=32, j=46, f=feblock
  0.125000000000E+01  0.219251206392E+01  0.103724302461E+01  0.500000000000E+01  0.250000000000E+01  0.375000000000E+01  0.404200324774E+01
  0.500000000000E+01  0.000000000000E+00  0.310152362409E+01  0.202479342020E+01  0.324151231464E+01  0.922061490191E+00  0.000000000000E+00
  0.299062775774E+01  0.394624082883E+01  0.500000000000E+01  0.409252726285E+01  0.500000000000E+01  0.429310310915E+01  0.175434191980E+01
  0.284428995242E+01  0.000000000000E+00  0.000000000000E+00  0.715990576545E+00  0.930412228790E+00  0.125000000000E+01  0.187029682677E+01
  0.500000000000E+01  0.375000000000E+01  0.250000000000E+01  0.000000000000E+00
  0.250494200518E+01  0.157686156160E+01  0.146289271009E+01  0.250494200518E+01  0.250494200518E+01  0.250494200518E+01  0.155830813274E+01
  0.125000000000E+01  0.250494200518E+01  0.177790177481E+01  0.477386199275E+00  0.742988685424E+00  0.308372018325E+00  0.125000000000E+01
 -0.487811078581E+00 -0.144524380962E+01 -0.125000000000E+01 -0.345533899378E+00  0.000000000000E+00  0.627766083140E+00 -0.739814786992E+00
 -0.158811787973E+01  0.000000000000E+00 -0.125000000000E+01 -0.600232012419E+00 -0.154800130438E+01 -0.249658901620E+01 -0.178862290564E+01
 -0.249658901620E+01 -0.249658901620E+01 -0.249658901620E+01 -0.249658901620E+01
  0.500000000000E+01  0.500000000000E+01  0.500000000000E+01  0.500000000000E+01  0.500000000000E+01  0.500000000000E+01  0.500000000000E+01
  0.500000000000E+01  0.500000000000E+01  0.500000000000E+01  0.500000000000E+01  0.500000000000E+01  0.500000000000E+01  0.500000000000E+01
  0.500000000000E+01  0.500000000000E+01  0.500000000000E+01  0.500000000000E+01  0.500000000000E+01  0.500000000000E+01  0.500000000000E+01
  0.500000000000E+01  0.500000000000E+01  0.500000000000E+01  0.500000000000E+01  0.500000000000E+01  0.500000000000E+01  0.500000000000E+01
  0.500000000000E+01  0.500000000000E+01  0.500000000000E+01  0.500000000000E+01
  0.499997394909E+00  0.499997614018E+00  0.499997613608E+00  0.500000060877E+00  0.499997760436E+00  0.499998686680E+00  0.499998898069E+00
  0.500000080922E+00  0.499998204572E+00  0.499998161846E+00  0.499997546137E+00  0.499998205093E+00  0.499997811256E+00  0.499998439681E+00
  0.499998038958E+00  0.499998859625E+00  0.499999940624E+00  0.499998892092E+00  0.500000071183E+00  0.499999108849E+00  0.499997426388E+00
  0.499997927732E+00  0.499998469765E+00  0.499998327883E+00  0.499997933909E+00  0.499997665118E+00  0.499997349625E+00  0.499997387404E+00
  0.500000070105E+00  0.499998661549E+00  0.499997668322E+00  0.499998157431E+00
  0.100000071260E+01  0.100000069159E+01  0.100000065448E+01  0.100000027348E+01  0.100000066520E+01  0.100000047449E+01  0.100000043275E+01
  0.100000026682E+01  0.100000057268E+01  0.100000057562E+01  0.100000070766E+01  0.100000057291E+01  0.100000062178E+01  0.100000054456E+01
  0.100000061871E+01  0.100000044943E+01  0.100000026416E+01  0.100000044976E+01  0.100000026532E+01  0.100000040564E+01  0.100000075001E+01
  0.100000064330E+01  0.100000053273E+01  0.100000055921E+01  0.100000060264E+01  0.100000065382E+01  0.100000073887E+01  0.100000074438E+01
  0.100000029407E+01  0.100000050089E+01  0.100000068226E+01  0.100000058992E+01
  0.865826589247E+02  0.826668226515E+02  0.878387233063E+02  0.934725544838E+01  0.783185684187E+02  0.412545154185E+02  0.287935132210E+02
  0.924330864003E+01  0.119816831388E+03  0.640559101947E+02  0.883615105592E+02  0.604955139021E+02  0.107986190555E+03  0.123490880408E+03
  0.687843724861E+02  0.280817645042E+02  0.107389975976E+02  0.357657487349E+02  0.872333091704E+01  0.357070957095E+02  0.110737692817E+03
  0.650404896960E+02  0.136449551193E+03  0.119977838290E+03  0.126916734171E+03  0.996112551157E+02  0.989871764225E+02  0.102917440118E+03
  0.111520704147E+02  0.427324282258E+02  0.842936585708E+02  0.111779599795E+03