# vtk DataFile Version 2.0
FUN3D:global_image_vtk
ASCII
DATASET UNSTRUCTURED_GRID
POINTS 213 double
   -0.5474724527720921E-02    0.2504942005182237E+01    0.8032169247845798E-04
    0.1245419076928181E+01    0.2504942005182237E+01    0.1038423978844130E-03
    0.2497696090161273E+01    0.2504942005182237E+01    0.1099836378041788E-03
    0.3750591000219316E+01    0.2504942005182237E+01    0.1354570022851224E-03
    0.5003221393557218E+01    0.2504942005182237E+01    0.9645067806313159E-04
    0.5004676757730219E+01    0.1281291415003748E+01    0.1636229492601452E-03
    0.5004772733265148E+01    0.2775097973138356E-01    0.1902234218277847E-03
    0.5003581221826500E+01   -0.1225853358120849E+01    0.1607086259254324E-03
    0.5001952553134515E+01   -0.2496589016202556E+01    0.1082092371910151E-03
    0.3750348122005903E+01   -0.2496589016202556E+01    0.1458754878927441E-03
    0.2498611463539534E+01   -0.2496589016202556E+01    0.1009099575163266E-03
    0.1247175261509345E+01   -0.2496589016202556E+01    0.1108958281412223E-03
   -0.3383969652505766E-02   -0.2496589016202556E+01    0.8113625863498416E-04
   -0.4257789880083972E-02   -0.1225734673006506E+01    0.3418765131218979E-04
   -0.5251625685753781E-02    0.2619501495648070E-01    0.1038778815052324E-03
   -0.5676101163537798E-02    0.1278221743531552E+01    0.8222052785167319E-04
    0.9003209217918744E+00    0.1608979307788059E+01    0.8697986548433808E-04
    0.3983172228635397E+01   -0.1561211762270739E+01    0.1756748276819935E-03
    0.4035602079387497E+01    0.1486760266126256E+01    0.1711707047749038E-03
    0.1036613706197667E+01   -0.1455626287809795E+01    0.1047334602207742E-03
    0.1094353449885713E+01   -0.2964620398744432E+00    0.1260432505361677E-03
    0.7298399877477202E+00    0.6874686505129549E+00    0.1044287519396117E-03
    0.1617018623563139E+01    0.8553209978666025E+00    0.1529204880539874E-03
    0.2143199653243216E+01   -0.1627128369725139E+01    0.1606130269572462E-03
    0.4088840479725206E+01   -0.4351046111829277E+00    0.2719113083121678E-03
    0.2977916509313599E+01   -0.8334989944101465E+00    0.2245152651590426E-03
    0.3044093243998181E+01   -0.1814361085633255E+01    0.1616866806658516E-03
    0.3427866629114899E+01    0.3813906924713182E+00    0.2935982523096245E-03
    0.4313225407775678E+01    0.5489135452820491E+00    0.2311713600814397E-03
    0.1823032713305475E+01    0.1771265414466481E+01    0.1835256528172628E-03
    0.2806311149527428E+01    0.1358629605767851E+01    0.1942351855950824E-03
    0.1891860854168224E+01   -0.8481308814147356E+00    0.1670436487611897E-03
    0.2268769174863770E+01    0.7723710290210221E-01    0.2071744628142085E-03
    0.5000000000000000E+01    0.2504942005182237E+01    0.1250000000000000E+01
    0.5000000000000000E+01    0.2504942005182237E+01    0.2500000000000000E+01
    0.5000000000000000E+01    0.2504942005182237E+01    0.3750000000000000E+01
    0.5000000000000000E+01    0.2504942005182237E+01    0.5000000000000000E+01
    0.3750000000000000E+01    0.2504942005182237E+01    0.5000000000000000E+01
    0.2500000000000000E+01    0.2504942005182237E+01    0.5000000000000000E+01
    0.1250000000000000E+01    0.2504942005182237E+01    0.5000000000000000E+01
    0.0000000000000000E+00    0.2504942005182237E+01    0.5000000000000000E+01
    0.0000000000000000E+00    0.2504942005182237E+01    0.3750000000000000E+01
    0.0000000000000000E+00    0.2504942005182237E+01    0.2500000000000000E+01
    0.0000000000000000E+00    0.2504942005182237E+01    0.1250000000000000E+01
    0.9588956281582820E+00    0.2504942005182237E+01    0.9696525381778104E+00
    0.3981953078740100E+01    0.2504942005182237E+01    0.4070563842691148E+01
    0.4036122227630506E+01    0.2504942005182237E+01    0.1017567397338643E+01
    0.9637572814407702E+00    0.2504942005182237E+01    0.3973598195308711E+01
    0.1546540145185355E+01    0.2504942005182237E+01    0.2931570146934813E+01
    0.6973799555312555E+00    0.2504942005182237E+01    0.3070319941818703E+01
    0.8903742131161799E+00    0.2504942005182237E+01    0.2056562221935372E+01
    0.2183042000952686E+01    0.2504942005182237E+01    0.3960694433674113E+01
    0.3855844876676127E+01    0.2504942005182237E+01    0.2933250553352365E+01
    0.3152611372410318E+01    0.2504942005182237E+01    0.3637668364457148E+01
    0.3103307387204181E+01    0.2504942005182237E+01    0.4332607801667728E+01
    0.3266711063327833E+01    0.2504942005182237E+01    0.1889656537948557E+01
    0.4232537560711023E+01    0.2504942005182237E+01    0.1918626923091979E+01
    0.1905522367559471E+01    0.2504942005182237E+01    0.7226290083262535E+00
    0.2879767751810978E+01    0.2504942005182237E+01    0.9080944621009353E+00
    0.2012711380865117E+01    0.2504942005182237E+01    0.1767082331652569E+01
    0.2669681485317434E+01    0.2504942005182237E+01    0.2853394290333893E+01
    0.5000000000000000E+01    0.1250000000000000E+01    0.5000000000000000E+01
    0.5000000000000000E+01    0.0000000000000000E+00    0.5000000000000000E+01
    0.5000000000000000E+01   -0.1250000000000000E+01    0.5000000000000000E+01
    0.5000000000000000E+01   -0.2496589016202556E+01    0.5000000000000000E+01
    0.5000000000000000E+01   -0.2496589016202556E+01    0.3750000000000000E+01
    0.5000000000000000E+01   -0.2496589016202556E+01    0.2500000000000000E+01
    0.5000000000000000E+01   -0.2496589016202556E+01    0.1250000000000000E+01
    0.5000000000000000E+01    0.1578994732800803E+01    0.9058375365086910E+00
    0.5000000000000000E+01   -0.1583989954232354E+01    0.3982050490726493E+01
    0.5000000000000000E+01    0.1453322699199022E+01    0.4033849428301197E+01
    0.5000000000000000E+01   -0.1479596339503735E+01    0.1040505887381675E+01
    0.5000000000000000E+01   -0.3227322616384110E+00    0.1099454400140349E+01
    0.5000000000000000E+01    0.6593508822075582E+00    0.7354504170366591E+00
    0.5000000000000000E+01    0.8256214013940779E+00    0.1622302608453282E+01
    0.5000000000000000E+01   -0.1650070333782557E+01    0.2145871574390382E+01
    0.5000000000000000E+01   -0.4612828702537229E+00    0.4086422318222992E+01
    0.5000000000000000E+01   -0.8579242121530853E+00    0.2979540174134984E+01
    0.5000000000000000E+01   -0.1836846154397680E+01    0.3045064261640043E+01
    0.5000000000000000E+01    0.3508002863614053E+00    0.3428197553792836E+01
    0.5000000000000000E+01    0.5185680230613409E+00    0.4309693860063405E+01
    0.5000000000000000E+01    0.1738996113203182E+01    0.1827272193562204E+01
    0.5000000000000000E+01    0.1325493893339706E+01    0.2808563282768077E+01
    0.5000000000000000E+01   -0.8731419609589618E+00    0.1895995683864404E+01
    0.5000000000000000E+01    0.4906150219227333E-01    0.2273179336307740E+01
    0.0000000000000000E+00    0.1250000000000000E+01    0.5000000000000000E+01
    0.0000000000000000E+00    0.0000000000000000E+00    0.5000000000000000E+01
    0.0000000000000000E+00   -0.1250000000000000E+01    0.5000000000000000E+01
    0.0000000000000000E+00   -0.2496589016202556E+01    0.5000000000000000E+01
    0.1250000000000000E+01   -0.2496589016202556E+01    0.5000000000000000E+01
    0.2500000000000000E+01   -0.2496589016202556E+01    0.5000000000000000E+01
    0.3750000000000000E+01   -0.2496589016202556E+01    0.5000000000000000E+01
    0.4042003247744892E+01    0.1558308132739014E+01    0.5000000000000000E+01
    0.9304122287900499E+00   -0.1548001304379777E+01    0.5000000000000000E+01
    0.1037243024609388E+01    0.1462892710085612E+01    0.5000000000000000E+01
    0.3946240828834967E+01   -0.1445243809615570E+01    0.5000000000000000E+01
    0.4092527262848217E+01   -0.3455338993778935E+00    0.5000000000000000E+01
    0.4293103109154542E+01    0.6277660831404320E+00    0.5000000000000000E+01
    0.3241512314643519E+01    0.7429886854239611E+00    0.5000000000000000E+01
    0.2844289952419609E+01   -0.1588117879734118E+01    0.5000000000000000E+01
    0.7159905765450471E+00   -0.6002320124191652E+00    0.5000000000000000E+01
    0.1754341919796891E+01   -0.7398147869923652E+00    0.5000000000000000E+01
    0.1870296826774691E+01   -0.1788622905643739E+01    0.5000000000000000E+01
    0.9220614901912976E+00    0.3083720183248586E+00    0.5000000000000000E+01
    0.3101523624086016E+01    0.1777901774806180E+01    0.5000000000000000E+01
    0.2192512063922564E+01    0.1576861561598471E+01    0.5000000000000000E+01
    0.2024793420196460E+01    0.4773861992750707E+00    0.5000000000000000E+01
    0.2990627757741975E+01   -0.4878110785814084E+00    0.5000000000000000E+01
    0.0000000000000000E+00   -0.2496589016202556E+01    0.1250000000000000E+01
    0.0000000000000000E+00   -0.2496589016202556E+01    0.2500000000000000E+01
    0.0000000000000000E+00   -0.2496589016202556E+01    0.3750000000000000E+01
    0.0000000000000000E+00    0.1558308132739014E+01    0.4042003247744892E+01
    0.0000000000000000E+00   -0.1548001304379777E+01    0.9304122287900499E+00
    0.0000000000000000E+00    0.1462892710085612E+01    0.1037243024609388E+01
    0.0000000000000000E+00   -0.1445243809615570E+01    0.3946240828834967E+01
    0.0000000000000000E+00   -0.3455338993778935E+00    0.4092527262848217E+01
    0.0000000000000000E+00    0.6277660831404320E+00    0.4293103109154542E+01
    0.0000000000000000E+00    0.7429886854239611E+00    0.3241512314643519E+01
    0.0000000000000000E+00   -0.1588117879734118E+01    0.2844289952419609E+01
    0.0000000000000000E+00   -0.6002320124191652E+00    0.7159905765450471E+00
    0.0000000000000000E+00   -0.7398147869923652E+00    0.1754341919796891E+01
    0.0000000000000000E+00   -0.1788622905643739E+01    0.1870296826774691E+01
    0.0000000000000000E+00    0.3083720183248586E+00    0.9220614901912976E+00
    0.0000000000000000E+00    0.1777901774806180E+01    0.3101523624086016E+01
    0.0000000000000000E+00    0.1576861561598471E+01    0.2192512063922564E+01
[...]
POINT_DATA 213
SCALARS p double 1
LOOKUP_TABLE default
   0.7142991133016927E+00
   0.7142926114943687E+00
   0.7142734310734412E+00
   0.7142806246927356E+00
   0.7142894664434040E+00
   0.7142912008961350E+00
   0.7142792304456976E+00
   0.7142837520003958E+00
   0.7142848193112113E+00
   0.7142814990758947E+00
   0.7142801244268201E+00
   0.7142851320805320E+00
   0.7143066180479358E+00
   0.7143130267143053E+00
   0.7143062784406146E+00
   0.7143006540793156E+00
   0.7143024612167814E+00
   0.7142758655254372E+00
   0.7142767461374137E+00
   0.7142959466189164E+00
   0.7142964452673219E+00
   0.7142977109056708E+00
   0.7142923272665629E+00
   0.7142810727914910E+00
   0.7142679869744575E+00
   0.7142774909629338E+00
   0.7142795502427729E+00
   0.7142743600508784E+00
   0.7142675830061680E+00
   0.7142850879457904E+00
   0.7142764469846007E+00
   0.7142872813390367E+00
   0.7142870549911554E+00
   0.7142874831060210E+00
   0.7142869469957287E+00
   0.7142865634601561E+00
   0.7142863979776132E+00
   0.7142869005075249E+00
   0.7142873772848531E+00
   0.7142874957854918E+00
   0.7142871459797336E+00
   0.7142880893618820E+00
   0.7142898406710695E+00
   0.7142935066336585E+00
   0.7142916989869079E+00
   0.7142866751275067E+00
   0.7142845725333171E+00
   0.7142878394559499E+00
   0.7142881492838112E+00
   0.7142886106715854E+00
   0.7142892478478571E+00
   0.7142874265549702E+00
   0.7142864286574183E+00
   0.7142868700560655E+00
   0.7142870434790580E+00
   0.7142854501453556E+00
   0.7142858320753719E+00
   0.7142858741508478E+00
   0.7142837047445051E+00
   0.7142872204974297E+00
   0.7142868922381881E+00
   0.7142863813405417E+00
   0.7142863775876920E+00
   0.7142863746900712E+00
   0.7142864494677309E+00
   0.7142866744966302E+00
   0.7142872449453143E+00
   0.7142879762642992E+00
   0.7142876304236693E+00
   0.7142864396857099E+00
   0.7142864028637400E+00
   0.7142883694059731E+00
   0.7142913338890872E+00
   0.7142904649837217E+00
   0.7142865757673288E+00
   0.7142876666901391E+00
   0.7142863700399918E+00
   0.7142871276664177E+00
   0.7142869907163468E+00
   0.7142866588015504E+00
   0.7142863521401778E+00
   0.7142871505596390E+00
   0.7142867101399623E+00
   0.7142880352567852E+00
   0.7142870995127922E+00
   0.7142870756741001E+00
   0.7142870461178986E+00
   0.7142871123190632E+00
   0.7142871890758926E+00
   0.7142875614728551E+00
   0.7142874199336434E+00
   0.7142869664986836E+00
   0.7142867961617848E+00
   0.7142873488402665E+00
   0.7142873504939952E+00
   0.7142868378621273E+00
   0.7142868386803486E+00
   0.7142867283946600E+00
   0.7142871465502433E+00
   0.7142873225443956E+00
   0.7142872208790053E+00
   0.7142875893179573E+00
   0.7142875752260972E+00
   0.7142872687457896E+00
   0.7142871533401641E+00
   0.7142874432562042E+00
   0.7142874834264645E+00
   0.7142872610552796E+00
   0.7142949654932659E+00
   0.7142901389110483E+00
   0.7142882255984379E+00
   0.7142878176248694E+00
   0.7142969615263127E+00
   0.7142948197652291E+00
   0.7142880010819143E+00
   0.7142878779453591E+00
   0.7142876566861854E+00
   0.7142888338358649E+00
   0.7142895034797581E+00
   0.7142985025265572E+00
   0.7142924884308072E+00
   0.7142921585869447E+00
   0.7142957864754490E+00
   0.7142889207845381E+00
   0.7142905987975664E+00
   0.7142913668559319E+00
   0.7142893046862169E+00
   0.7142911865470106E+00
   0.7142867622123420E+00
   0.7142843648944365E+00
   0.7142879824962501E+00
   0.7142881378614969E+00
   0.7142888830394688E+00
   0.7142897955435428E+00
   0.7142874774463478E+00
   0.7142865239359696E+00
   0.7142869307551168E+00
   0.7142871096613449E+00
   0.7142852598152544E+00
   0.7142862066074909E+00
   0.7142857560150506E+00
   0.7142839369795254E+00
   0.7142873433486362E+00
   0.7142870458839742E+00
   0.7142870217114247E+00
   0.7142877505333461E+00
   0.7142880096554814E+00
   0.7142885389896989E+00
   0.7142895027694952E+00
   0.7142920476188008E+00
   0.7142887893794898E+00
   0.7142883245689932E+00
   0.7142878678970600E+00
   0.7142886026439695E+00
   0.7142886108797528E+00
   0.7142915977132692E+00
   0.7142875934359478E+00
   0.7142870729294123E+00
   0.7142858808457800E+00
   0.7142863132589542E+00
   0.7142868173219886E+00
   0.7142862990561739E+00
   0.7142872575249986E+00
   0.7142874331458716E+00
   0.7142869411023132E+00
   0.7142865078731447E+00
   0.7142871809813330E+00
   0.7142877534238700E+00
   0.7142899103457091E+00
   0.7142889103459796E+00
   0.7142872148263251E+00
   0.7142877223447713E+00
   0.7142887185668976E+00
   0.7142844405133321E+00
   0.7142891580960589E+00
   0.7142859297387453E+00
   0.7142866342800896E+00
   0.7142853613457379E+00
   0.7142859316145242E+00
   0.7142928650380499E+00
   0.7142908663499730E+00
   0.7142927247330492E+00
   0.7142866825302353E+00
   0.7142871784349787E+00
   0.7142864349234638E+00
   0.7142861367313159E+00
   0.7142857118776366E+00
   0.7142865389204037E+00
   0.7142867936202315E+00
   0.7142866703257523E+00
   0.7142870771202062E+00
   0.7142851331039781E+00
   0.7142849513050039E+00
   0.7142850460056466E+00
   0.7142856858721179E+00
   0.7142837565084016E+00
   0.7142842875131067E+00
   0.7142863439233261E+00
   0.7142854761065845E+00
   0.7142794097691779E+00
   0.7142877746367627E+00
   0.7142874579048630E+00
   0.7142868247911390E+00
   0.7142866024227049E+00
   0.7142814374814622E+00
   0.7142795817373723E+00
   0.7142826858950386E+00
   0.7142872788002382E+00
   0.7142869336122643E+00
   0.7142866442603498E+00
   0.7142865530364094E+00
   0.7142874766060890E+00
   0.7142803668940733E+00
SCALARS mach double 1
LOOKUP_TABLE default
   0.4999812061719331E+00
   0.5000055155141488E+00
   0.5000324192461845E+00
   0.5000264284827247E+00
   0.5000068625822254E+00
   0.5000045443827396E+00
   0.5000136135191555E+00
   0.5000126629875657E+00
   0.5000136769976450E+00
   0.5000307240047112E+00
   0.5000277995410268E+00
   0.5000153854795160E+00
   0.4999820494962015E+00
   0.4999780358121516E+00
   0.4999800345914599E+00
   0.4999812305328792E+00
   0.4999916888385068E+00
   0.5000371331605621E+00
   0.5000304080806082E+00
   0.5000077946948299E+00
   0.5000009342443424E+00
   0.4999911080789994E+00
   0.5000108724958677E+00
   0.5000282081326632E+00
   0.5000434198063414E+00
   0.5000400063304985E+00
   0.5000340248472461E+00
   0.5000446825069319E+00
   0.5000381692434226E+00
   0.5000212967630837E+00
   0.5000329472262098E+00
   0.5000215977023329E+00
   0.5000268674224044E+00
   0.5000037339979400E+00
   0.5000015458649834E+00
   0.5000005410560000E+00
   0.5000000608767887E+00
   0.4999986866797489E+00
   0.4999977604360374E+00
   0.4999973949087018E+00
   0.4999982045718347E+00
   0.4999973014669674E+00
   0.4999953000906570E+00
   0.4999911183475118E+00
   0.4999959952450437E+00
   0.4999998387189415E+00
   0.5000126758289815E+00
   0.4999976368205087E+00
   0.4999985073185127E+00
   0.4999971002757762E+00
   0.4999971208516755E+00
   0.4999985565819729E+00
   0.5000017760429990E+00
   0.4999999099990119E+00
   0.4999989293701024E+00
   0.5000068086405390E+00
   0.5000053631079170E+00
   0.5000111164782497E+00
   0.5000167906935289E+00
   0.5000029809411716E+00
   0.5000010670626798E+00
   0.5000000809221512E+00
   0.5000000711830699E+00
   0.4999999406243970E+00
   0.5000000701052475E+00
   0.5000004270325568E+00
   0.5000014745377257E+00
   0.5000044918471639E+00
   0.5000054390107110E+00
   0.5000004809044694E+00
   0.5000004906518429E+00
   0.5000059160424322E+00
   0.5000027143831588E+00
   0.5000037377177161E+00
   0.5000045322964238E+00
   0.5000020198685295E+00
   0.5000004184646798E+00
   0.5000008971158145E+00
   0.5000008304178124E+00
   0.5000006486602826E+00
   0.5000003893959386E+00
   0.5000026434073145E+00
   0.5000013326322129E+00
   0.5000030084115423E+00
   0.5000023512460539E+00
   0.4999984396811619E+00
   0.4999984697653129E+00
   0.4999983278830531E+00
   0.4999981574306981E+00
   0.4999973496246298E+00
   0.4999976683224834E+00
   0.4999986615491879E+00
   0.4999988980688078E+00
   0.4999976651177769E+00
   0.4999976136077305E+00
   0.4999988596254071E+00
   0.4999988920923223E+00
   0.4999991088491682E+00
   0.4999982050925271E+00
   0.4999979277322503E+00
   0.4999979339092311E+00
   0.4999974263877798E+00
   0.4999973874044498E+00
   0.4999978112564572E+00
   0.4999981618459901E+00
   0.4999976140182888E+00
   0.4999975461371594E+00
   0.4999980389575775E+00
   0.4999897317919596E+00
   0.4999949475813488E+00
   0.4999971028314102E+00
   0.4999974890289530E+00
   0.4999854513103646E+00
   0.4999888986055508E+00
   0.4999972915803927E+00
   0.4999975360865567E+00
   0.4999978044945445E+00
   0.4999964919331438E+00
   0.4999953500293586E+00
   0.4999848171468941E+00
   0.4999916732692702E+00
   0.4999930110814338E+00
   0.4999868901365918E+00
   0.4999964212043096E+00
   0.4999942939818973E+00
   0.4999934741287861E+00
   0.4999958125653886E+00
   0.4999993079461594E+00
   0.4999999116990354E+00
   0.5000157597789381E+00
   0.4999975077796482E+00
   0.4999984395886648E+00
   0.4999968214824181E+00
   0.4999970055359604E+00
   0.4999985370685861E+00
   0.5000017342944280E+00
   0.5000000454595918E+00
   0.4999989495882237E+00
   0.5000073424736076E+00
   0.5000057779008893E+00
   0.5000145388269837E+00
   0.5000175223609302E+00
   0.5000036644835194E+00
   0.5000012230022273E+00
   0.5000009591683710E+00
   0.4999983379225031E+00
   0.4999985623246033E+00
   0.4999996106274922E+00
   0.4999960115450126E+00
   0.4999943826002187E+00
   0.5000003377876666E+00
   0.4999971041378210E+00
   0.4999980516465341E+00
   0.4999969344741391E+00
   0.4999991157601283E+00
   0.4999982530504027E+00
   0.4999978602290836E+00
   0.5000002701191653E+00
   0.5000056730353151E+00
   0.5000025337275417E+00
   0.5000003152523776E+00
   0.5000032459792232E+00
   0.4999986481055808E+00
   0.4999983000432539E+00
   0.4999991151934677E+00
   0.5000019240068145E+00
   0.5000002327160638E+00
   0.4999977543749706E+00
   0.4999956756488643E+00
   0.4999986904905956E+00
   0.5000043891616857E+00
   0.4999976232922441E+00
   0.4999969009298994E+00
   0.5000144292202646E+00
   0.5000082032748093E+00
   0.5000065892349289E+00
   0.5000032534640656E+00
   0.5000116717349967E+00
   0.5000050967531392E+00
   0.4999972881339484E+00
   0.4999949377039680E+00
   0.4999964495145902E+00
   0.4999996574920683E+00
   0.4999988254226987E+00
   0.5000036257929222E+00
   0.5000031015251512E+00
   0.5000089763143346E+00
   0.5000029299282579E+00
   0.5000004542788982E+00
   0.5000003086225614E+00
   0.5000011427870701E+00
   0.5000087540878050E+00
   0.5000131643610691E+00
   0.5000104980346954E+00
   0.5000060039323334E+00
   0.5000188108692848E+00
   0.5000136383556255E+00
   0.5000092289473441E+00
   0.5000132318454561E+00
   0.5000281763352353E+00
   0.4999981332314019E+00
   0.4999981325507815E+00
   0.4999993875428171E+00
   0.5000006414496108E+00
   0.5000234991731050E+00
   0.5000259338089738E+00
   0.5000228200305616E+00
   0.4999987545896846E+00
   0.4999996877596664E+00
   0.5000004564968682E+00
   0.5000039350368235E+00
   0.5000084947622918E+00
   0.5000259188605746E+00
SCALARS temperature double 1
LOOKUP_TABLE default
   0.1000005359592198E+01
   0.1000002758915195E+01
   0.9999950868300945E+00
   0.9999979642956794E+00
   0.1000001501021924E+01
   0.1000002194889868E+01
   0.9999974067839577E+00
   0.9999992153347617E+00
   0.9999996422095141E+00
   0.9999983140796795E+00
   0.9999977641978958E+00
   0.9999997672756793E+00
   0.1000008361465105E+01
   0.1000010924917158E+01
   0.1000008225585740E+01
   0.1000005975898223E+01
   0.1000006698683610E+01
   0.9999960606495988E+00
   0.9999964129096566E+00
   0.1000004093051481E+01
   0.1000004292422126E+01
   0.1000004798623985E+01
   0.1000002645224584E+01
   0.9999981435632342E+00
   0.9999929092465325E+00
   0.9999967108189939E+00
   0.9999975345470127E+00
   0.9999954584923726E+00
   0.9999927477403792E+00
   0.9999997495930576E+00
   0.9999962932082391E+00
   0.1000000626942483E+01
   0.1000000536350209E+01
   0.1000000707555423E+01
   0.1000000493076928E+01
   0.1000000339667750E+01
   0.1000000273477775E+01
   0.1000000474488926E+01
   0.1000000665199233E+01
   0.1000000712599543E+01
   0.1000000572677667E+01
   0.1000000950029306E+01
   0.1000001650550892E+01
   0.1000003116927083E+01
   0.1000002393879831E+01
   0.1000000384336964E+01
   0.9999995433331437E+00
   0.1000000850067214E+01
   0.1000000973997692E+01
   0.1000001158552540E+01
   0.1000001413422239E+01
   0.1000000684907105E+01
   0.1000000285745131E+01
   0.1000000462307702E+01
   0.1000000531677598E+01
   0.9999998943432108E+00
   0.1000000047111554E+01
   0.1000000063980737E+01
   0.9999991962166290E+00
   0.1000000602486737E+01
   0.1000000471179253E+01
   0.1000000266822884E+01
   0.1000000265321683E+01
   0.1000000264162825E+01
   0.1000000294074218E+01
   0.1000000384081456E+01
   0.1000000612256231E+01
   0.1000000904827847E+01
   0.1000000766535699E+01
   0.1000000290157791E+01
   0.1000000275430112E+01
   0.1000001062124871E+01
   0.1000002247932523E+01
   0.1000001900428959E+01
   0.1000000344618031E+01
   0.1000000780959273E+01
   0.1000000262299749E+01
   0.1000000565343904E+01
   0.1000000510565091E+01
   0.1000000377799734E+01
   0.1000000255141102E+01
   0.1000000574510910E+01
   0.1000000398333339E+01
   0.1000000928395656E+01
   0.1000000554085727E+01
   0.1000000544555395E+01
   0.1000000532732829E+01
   0.1000000559213146E+01
   0.1000000589915924E+01
   0.1000000738874387E+01
   0.1000000682258914E+01
   0.1000000500885278E+01
   0.1000000432751176E+01
   0.1000000653821426E+01
   0.1000000654482901E+01
   0.1000000449431984E+01
   0.1000000449758689E+01
   0.1000000405644373E+01
   0.1000000572905935E+01
   0.1000000643303194E+01
   0.1000000602636976E+01
   0.1000000750012378E+01
   0.1000000744375708E+01
   0.1000000621783558E+01
   0.1000000575621645E+01
   0.1000000691587770E+01
   0.1000000707655989E+01
   0.1000000618707640E+01
   0.1000003700469591E+01
   0.1000001769845820E+01
   0.1000001004523759E+01
   0.1000000841334547E+01
   0.1000004498857660E+01
   0.1000003642173043E+01
   0.1000000914717452E+01
   0.1000000865462732E+01
   0.1000000776959212E+01
   0.1000001247818175E+01
   0.1000001515675851E+01
   0.1000005115270162E+01
   0.1000002709649364E+01
   0.1000002577713496E+01
   0.1000004028839196E+01
   0.1000001282597494E+01
   0.1000001953800230E+01
   0.1000002261026184E+01
   0.1000001436159339E+01
   0.1000002188913022E+01
   0.1000000419171021E+01
   0.9999994602875031E+00
   0.1000000907283402E+01
   0.1000000969427912E+01
   0.1000001267499694E+01
   0.1000001632500229E+01
   0.1000000705263870E+01
   0.1000000323853314E+01
   0.1000000486587007E+01
   0.1000000558150116E+01
   0.9999998182060321E+00
   0.1000000196926632E+01
   0.1000000016756839E+01
   0.9999992891281987E+00
   0.1000000651623504E+01
   0.1000000532635748E+01
   0.1000000522966568E+01
   0.1000000814496529E+01
   0.1000000918145972E+01
   0.1000001129876334E+01
   0.1000001515390029E+01
   0.1000002533315204E+01
   0.1000001230027607E+01
   0.1000001044112988E+01
   0.1000000861443628E+01
   0.1000001155341753E+01
   0.1000001158635440E+01
   0.1000002353370102E+01
   0.1000000751659751E+01
   0.1000000543455535E+01
   0.1000000066613427E+01
   0.1000000239581839E+01
   0.1000000441211422E+01
   0.1000000233895545E+01
   0.1000000617295153E+01
   0.1000000687543955E+01
   0.1000000490726844E+01
   0.1000000317427341E+01
   0.1000000586675143E+01
   0.1000000815654866E+01
   0.1000001678414270E+01
   0.1000001278419819E+01
   0.1000000600216881E+01
   0.1000000803223110E+01
   0.1000001201711258E+01
   0.9999994905069713E+00
   0.1000001377554479E+01
   0.1000000086180210E+01
   0.1000000367994789E+01
   0.9999998588508155E+00
   0.1000000086921093E+01
   0.1000002860299776E+01
   0.1000002060814673E+01
   0.1000002804181340E+01
   0.1000000387297247E+01
   0.1000000585659709E+01
   0.1000000288245003E+01
   0.1000000168970628E+01
   0.9999999990518496E+00
   0.1000000329846981E+01
   0.1000000431729214E+01
   0.1000000382412546E+01
   0.1000000545132056E+01
   0.9999997675291517E+00
   0.9999996948914909E+00
   0.9999997326884151E+00
   0.9999999886293288E+00
   0.9999992169381438E+00
   0.9999994293160714E+00
   0.1000000251869344E+01
   0.9999999047855809E+00
   0.9999974782881047E+00
   0.1000000824139997E+01
   0.1000000697447136E+01
   0.1000000444201647E+01
   0.1000000355250578E+01
   0.9999982893432131E+00
   0.9999975470957906E+00
   0.9999987887250884E+00
   0.1000000625805435E+01
   0.1000000487730781E+01
   0.1000000371988130E+01
   0.1000000335497924E+01
   0.1000000704958401E+01
   0.9999978610965068E+00
SCALARS lambda1 double 1
LOOKUP_TABLE default
   0.2314742058673993E+02
   0.2545247006668197E+02
   0.2580200632257359E+02
   0.2804538197837321E+02
   0.3308617880729610E+02
   0.3708488656149186E+02
   0.3840974330718049E+02
   0.3538316205349284E+02
   0.3271627460442797E+02
   0.2831540197942763E+02
   0.2635258405773888E+02
   0.2492136665509002E+02
   0.2321482234004926E+02
   0.2430941337434988E+02
   0.2448678736085728E+02
   0.2377757155862540E+02
   0.2583053574868015E+02
   0.2875491639925908E+02
   0.2930289626439990E+02
   0.2504243474595499E+02
   0.2595334030898565E+02
   0.2650028478081732E+02
   0.2572851806009362E+02
   0.2572457513803013E+02
   0.3118011949209643E+02
   0.2733618707612820E+02
   0.2628716190368125E+02
   0.2863478935095138E+02
   0.3105891447728112E+02
   0.2545754003413822E+02
   0.2648295748866087E+02
   0.2533892930951787E+02
   0.2697191871330916E+02
   0.2098998308679360E+02
   0.1382719837514933E+02
   0.1023391309495715E+02
   0.9347255448376973E+01
   0.4125451541848412E+02
   0.7831856841867645E+02
   0.8658265892466939E+02
   0.1198168313880469E+03
   0.1657626170432247E+02
   0.4551259237436101E+01
   0.1665741288425853E+02
   0.1821793803732938E+02
   0.7871680316454238E+01
   0.2121859738752388E+02
   0.2334142231654872E+02
   0.6773625539578366E+01
   0.3531340238647979E+01
   0.1113797761567797E+02
   0.9533618719366943E+01
   0.1237077458096226E+02
   0.8725619257005052E+01
   0.1216974033220251E+02
   0.1562792108780700E+02
   0.1601942190713811E+02
   0.2096828433180071E+02
   0.2111771390421131E+02
   0.1504087162142850E+02
   0.1123689796194956E+02
   0.9243308640031081E+01
   0.8723330917040267E+01
   0.1073899759761946E+02
   0.1115207041469464E+02
   0.1003713526236816E+02
   0.1449892546540268E+02
   0.2062896753258062E+02
   0.2245002634935265E+02
   0.8176657020003667E+01
   0.8203192735790955E+01
   0.2095651503514898E+02
   0.2154713828111647E+02
   0.2275995276144871E+02
   0.1853041008968280E+02
   0.1583279752294202E+02
   0.7267738605716721E+01
   0.1256294112860582E+02
   0.1244619338484054E+02
   0.1086828738252246E+02
   0.6425446968525519E+01
   0.1729259739990239E+02
   0.1306399762861033E+02
   0.1700984780058723E+02
   0.1519543031892371E+02
   0.1234908804075755E+03
   0.1364495511928390E+03
   0.1199778382897455E+03
   0.1117795997947695E+03
   0.9898717642245342E+02
   0.8429365857080572E+02
   0.4273242822584310E+02
   0.2879351322104793E+02
   0.9961125511572234E+02
   0.8783872330630481E+02
   0.2808176450418659E+02
   0.3576574873487619E+02
   0.3570709570951075E+02
   0.6049551390210209E+02
   0.6504048969599970E+02
   0.1269167341713792E+03
   0.1107376928165639E+03
   0.1029174401179791E+03
   0.1079861905551403E+03
   0.6405591019465318E+02
   0.8266682265147159E+02
   0.8836151055924800E+02
   0.6878437248607321E+02
   0.1758542484852140E+02
   0.4781303301768702E+01
   0.1502663823368319E+02
   0.2192484760605792E+02
   0.1877515290153796E+02
   0.1755626623609660E+02
   0.1584995058170632E+02
   0.1853601283416503E+02
   0.3342288393114226E+02
   0.4993329143953943E+01
   0.4360655199733078E+01
   0.2004812781070963E+02
   0.1230632131163281E+02
   0.1182925883335162E+02