title="tecplot geometry and solution file"
variables = x y z mach temperature lambda1 lambda2 lambda3 lambda4 lambda5
zone t="boundary 1 bc-1", solutiontime= 0.1000000E+02, strandid=1001, i=32, j=46, f=feblock
 -0.547472452772E-02  0.000000000000E+00 -0.567610116354E-02  0.000000000000E+00  0.000000000000E+00  0.000000000000E+00 -0.525162568575E-02
 -0.425778988008E-02  0.000000000000E+00  0.000000000000E+00  0.000000000000E+00  0.000000000000E+00  0.000000000000E+00  0.000000000000E+00
  0.000000000000E+00  0.000000000000E+00 -0.338396965251E-02  0.000000000000E+00  0.000000000000E+00  0.000000000000E+00  0.000000000000E+00
  0.000000000000E+00  0.000000000000E+00  0.000000000000E+00  0.000000000000E+00  0.000000000000E+00  0.000000000000E+00  0.000000000000E+00
  0.000000000000E+00  0.000000000000E+00  0.000000000000E+00  0.000000000000E+00
  0.250494200518E+01  0.250494200518E+01  0.127822174353E+01  0.146289271009E+01  0.157686156160E+01  0.308372018325E+00  0.261950149565E-01
 -0.122573467301E+01 -0.600232012419E+00  0.250494200518E+01  0.477386199275E+00  0.742988685424E+00 -0.739814786992E+00  0.177790177481E+01
  0.155830813274E+01  0.250494200518E+01 -0.249658901620E+01 -0.154800130438E+01 -0.487811078581E+00  0.250494200518E+01  0.627766083140E+00
 -0.345533899378E+00 -0.178862290564E+01 -0.158811787973E+01  0.125000000000E+01 -0.249658901620E+01 -0.144524380962E+01  0.000000000000E+00
 -0.125000000000E+01 -0.249658901620E+01 -0.249658901620E+01 -0.249658901620E+01
  0.803216924785E-04  0.125000000000E+01  0.822205278517E-04  0.103724302461E+01  0.219251206392E+01  0.922061490191E+00  0.103877881505E-03
  0.341876513122E-04  0.715990576545E+00  0.250000000000E+01  0.202479342020E+01  0.324151231464E+01  0.175434191980E+01  0.310152362409E+01
  0.404200324774E+01  0.375000000000E+01  0.811362586350E-04  0.930412228790E+00  0.299062775774E+01  0.500000000000E+01  0.429310310915E+01
  0.409252726285E+01  0.187029682677E+01  0.284428995242E+01  0.500000000000E+01  0.125000000000E+01  0.394624082883E+01  0.500000000000E+01
  0.500000000000E+01  0.250000000000E+01  0.375000000000E+01  0.500000000000E+01
  0.499981206172E+00  0.499991118348E+00  0.499981230533E+00  0.499988898606E+00  0.499994293982E+00  0.499986890137E+00  0.499980034591E+00
  0.499978035812E+00  0.499984817147E+00  0.499995300091E+00  0.499993474129E+00  0.499996491933E+00  0.499991673269E+00  0.499996421204E+00
  0.499997489029E+00  0.499997301467E+00  0.499982049496E+00  0.499985451310E+00  0.499995812565E+00  0.499998204572E+00  0.499997804495E+00
  0.499997536087E+00  0.499993011081E+00  0.499995350029E+00  0.499998439681E+00  0.499989731792E+00  0.499997291580E+00  0.499998469765E+00
  0.499998327883E+00  0.499994947581E+00  0.499997102831E+00  0.499998157431E+00
  0.100000535959E+01  0.100000311693E+01  0.100000597590E+01  0.100000364217E+01  0.100000195380E+01  0.100000402884E+01  0.100000822559E+01
  0.100001092492E+01  0.100000511527E+01  0.100000165055E+01  0.100000226103E+01  0.100000124782E+01  0.100000270965E+01  0.100000128260E+01
  0.100000084133E+01  0.100000095003E+01  0.100000836147E+01  0.100000449886E+01  0.100000143616E+01  0.100000057268E+01  0.100000077696E+01
  0.100000086546E+01  0.100000257771E+01  0.100000151568E+01  0.100000054456E+01  0.100000370047E+01  0.100000091472E+01  0.100000053273E+01
  0.100000055921E+01  0.100000176985E+01  0.100000100452E+01  0.100000058992E+01
  0.231127580217E+02  0.169581570892E+02  0.234910203870E+02  0.179812605530E+02  0.850079691172E+01  0.195111680733E+02  0.236405799080E+02
  0.235265398446E+02  0.205631669523E+02  0.381876831314E+01  0.987807667701E+01  0.539140077092E+01  0.119389820286E+02  0.247379091015E+01
  0.264605332613E+02  0.182435559963E+02  0.229459314834E+02  0.193579038021E+02  0.377159109118E+01  0.112514046625E+03  0.376110387671E+02
  0.221022445687E+02  0.114350463632E+02  0.384295909559E+01  0.116666715248E+03  0.174564527539E+02  0.192541697265E+02  0.127598301020E+03
  0.115295033829E+03  0.368812460743E+01  0.167640139537E+02  0.108864658069E+03
  0.858848333255E+01  0.567531155063E+01  0.873136463447E+01  0.611666488466E+01  0.306859073691E+01  0.669113557670E+01  0.871844472309E+01
  0.874004010617E+01  0.711287266767E+01  0.193621713361E+01  0.349385564938E+01  0.188417366125E+01  0.411895206301E+01  0.145564559710E+01
  0.556831663118E+01  0.416431942155E+01  0.842361946149E+01  0.657017795802E+01  0.163567513461E+01  0.231329576059E+02  0.790233160400E+01
  0.474937439876E+01  0.402883791467E+01  0.164503212149E+01  0.244490575396E+02  0.577735460736E+01  0.417468400873E+01  0.267797171352E+02
  0.240380623403E+02  0.191772066703E+01  0.404390742203E+01  0.225580282667E+02
 -0.110768282538E-01  0.545257395111E-02 -0.883544894986E-01  0.725753562694E-01 -0.932068351746E-01 -0.450963587770E-02 -0.190002345075E-01
  0.505037748834E-01 -0.310574570208E-01 -0.119462343692E-01  0.596650619271E-01 -0.241957436681E-01  0.507770048914E-01 -0.261244979928E-01
  0.149234765639E+00  0.105617806778E-01 -0.408871022757E-02 -0.174962403934E-01 -0.476982048011E-01  0.740670467739E-02  0.358099661456E-01
 -0.582797617391E-01 -0.782210800791E-01  0.835535431442E-01 -0.152540782901E+00 -0.198823466822E-01  0.181757240856E-01  0.116804667920E+00
  0.135272639483E+00 -0.530041500105E-02 -0.318399504946E-01 -0.212906772866E-01
 -0.838176927629E+01 -0.809402480338E+01 -0.844927444405E+01 -0.803916289026E+01 -0.726148192056E+01 -0.816795342096E+01 -0.847417597121E+01
 -0.844338926405E+01 -0.839083718639E+01 -0.697021319308E+01 -0.738605642717E+01 -0.558136676087E+01 -0.767380956305E+01 -0.589086165677E+01
 -0.388148837891E+01 -0.420588414883E+01 -0.839263816410E+01 -0.811871003083E+01 -0.605995893024E+01 -0.173343360563E+01 -0.353275255958E+01
 -0.420642970785E+01 -0.757679199301E+01 -0.601936820895E+01 -0.163405947666E+01 -0.806047227849E+01 -0.411052998978E+01 -0.151048393053E+01
 -0.178796381712E+01 -0.676474193877E+01 -0.432720964399E+01 -0.184855488801E+01
 -0.929702030482E+01 -0.657405385985E+01 -0.944527829072E+01 -0.696714696521E+01 -0.298433843102E+01 -0.759718876043E+01 -0.951816369191E+01
 -0.948915110084E+01 -0.804283535261E+01 -0.106148613113E+01 -0.358863973988E+01 -0.179265133160E+01 -0.443809392729E+01 -0.556812474644E+00
 -0.105547427488E+02 -0.719160228930E+01 -0.921447531642E+01 -0.753803079609E+01 -0.109343994028E+01 -0.467497774891E+02 -0.152527511660E+02
 -0.874951831340E+01 -0.423695811563E+01 -0.107391127575E+01 -0.485970366558E+02 -0.674236956047E+01 -0.751967941374E+01 -0.532715909390E+02
 -0.480265868707E+02 -0.100884526677E+01 -0.656617054685E+01 -0.452371777423E+02
        12        19        11        11
        11         5        12        12
        10        14         5         5
        19        13        11        11
        19        24        13        13
        30        23        24        24
        19        12        22        22
        28        22        21        21
        11        13         6         6
         7         6         9         9
        15        12        14        14
        18        13        23        23
        15        25        21        21
        27        19        22        22
        18         8         9         9
        27        31        24        24
         4        11         6         6
         5        14        12        12
         4         2         5         5
        21        12        15        15
        14        16        15        15
        24        19        27        27
        22        29        27        27
        23        26        18        18
        17         8        18        18
         5        11         4         4
         6         3         4         4
        26        23        30        30
         5         2        10        10
        16        14        10        10
         3         6         7         7
        21        25        28        28
        29        22        28        28
         6        13         9         9
         2         4         1         1
        31        27        32        32
        25        15        20        20
        24        23        13        13
         8         7         9         9
        13        18         9         9
        31        30        24        24
        12        21        22        22
        29        32        27        27
         3         1         4         4
        26        17        18        18
        16        20        15        15
zone t="boundary 2 bc-2", solutiontime= 0.1000000E+02, strandid=1002, i=33, j=48, f=feblock
  0.500195255313E+01  0.375034812201E+01  0.249861146354E+01  0.288036675733E+01  0.124717526151E+01  0.190856699606E+01  0.326577190793E+01
  0.201394857590E+01 -0.338396965251E-02  0.962374261034E+00  0.500000000000E+01  0.403430190133E+01  0.423029563300E+01  0.500000000000E+01
  0.385439188555E+01  0.500000000000E+01  0.398133432910E+01  0.315200081434E+01  0.266958029510E+01  0.154798030854E+01  0.218327860925E+01
  0.893688451288E+00  0.000000000000E+00  0.699009769630E+00  0.964460904435E+00  0.310303671669E+01  0.000000000000E+00  0.000000000000E+00
  0.125000000000E+01  0.500000000000E+01  0.375000000000E+01  0.250000000000E+01  0.000000000000E+00
 -0.249658901620E+01 -0.249658901620E+01 -0.249658901620E+01 -0.249658901620E+01 -0.249658901620E+01 -0.249658901620E+01 -0.249658901620E+01
 -0.249658901620E+01 -0.249658901620E+01 -0.249658901620E+01 -0.249658901620E+01 -0.249658901620E+01 -0.249658901620E+01 -0.249658901620E+01
 -0.249658901620E+01 -0.249658901620E+01 -0.249658901620E+01 -0.249658901620E+01 -0.249658901620E+01 -0.249658901620E+01 -0.249658901620E+01
 -0.249658901620E+01 -0.249658901620E+01 -0.249658901620E+01 -0.249658901620E+01 -0.249658901620E+01 -0.249658901620E+01 -0.249658901620E+01
 -0.249658901620E+01 -0.249658901620E+01 -0.249658901620E+01 -0.249658901620E+01 -0.249658901620E+01
  0.108209237191E-03  0.145875487893E-03  0.100909957516E-03  0.901663357824E+00  0.110895828141E-03  0.714928325670E+00  0.188140643916E+01
  0.175892163457E+01  0.811362586350E-04  0.957504305816E+00  0.125000000000E+01  0.100596693416E+01  0.191313516265E+01  0.250000000000E+01
  0.292898094244E+01  0.375000000000E+01  0.406883368474E+01  0.363389287837E+01  0.284756858001E+01  0.292582306272E+01  0.395754053293E+01
  0.205027256174E+01  0.125000000000E+01  0.306703271839E+01  0.397155765835E+01  0.433068621090E+01  0.250000000000E+01  0.375000000000E+01
  0.500000000000E+01  0.500000000000E+01  0.500000000000E+01  0.500000000000E+01  0.500000000000E+01
  0.500013676998E+00  0.500030724005E+00  0.500027799541E+00  0.500017522361E+00  0.500015385480E+00  0.500014538827E+00  0.500007342474E+00
  0.500003664484E+00  0.499982049496E+00  0.499999307946E+00  0.500004491847E+00  0.500015759779E+00  0.500005777901E+00  0.500001474538E+00
  0.500001734294E+00  0.500000427033E+00  0.499999911699E+00  0.500000045460E+00  0.500001223002E+00  0.499998439589E+00  0.499998537069E+00
  0.499997005536E+00  0.499989731792E+00  0.499996821482E+00  0.499997507780E+00  0.499998949588E+00  0.499994947581E+00  0.499997102831E+00
  0.499997349625E+00  0.500000070105E+00  0.499998661549E+00  0.499997668322E+00  0.499998157431E+00
  0.999999642210E+00  0.999998314080E+00  0.999997764198E+00  0.999999289128E+00  0.999999767276E+00  0.100000001676E+01  0.999999818206E+00
  0.100000065162E+01  0.100000836147E+01  0.100000218891E+01  0.100000090483E+01  0.999999460288E+00  0.100000019693E+01  0.100000061226E+01
  0.100000032385E+01  0.100000038408E+01  0.100000041917E+01  0.100000048659E+01  0.100000053264E+01  0.100000096943E+01  0.100000070526E+01
  0.100000163250E+01  0.100000370047E+01  0.100000126750E+01  0.100000090728E+01  0.100000055815E+01  0.100000176985E+01  0.100000100452E+01
  0.100000073887E+01  0.100000029407E+01  0.100000050089E+01  0.100000068226E+01  0.100000058992E+01
  0.327448134068E+02  0.283342529399E+02  0.257269531167E+02  0.209189771673E+02  0.239582114630E+02  0.212431345958E+02  0.157498370227E+02
  0.149152581414E+02  0.229459314834E+02  0.189805155110E+02  0.206152627888E+02  0.214322849525E+02  0.168078497291E+02  0.144798144117E+02
  0.111578729910E+02  0.999733175278E+01  0.748115255931E+01  0.881679990939E+01  0.101465479971E+02  0.531116113464E+01  0.116062669080E+02
  0.119685831446E+02  0.174564527539E+02  0.391566066654E+01  0.184012141426E+02  0.138491732700E+02  0.368812460743E+01  0.167640139537E+02
  0.100048621255E+03  0.111696723578E+02  0.428690347470E+02  0.849094921143E+02  0.108864658069E+03
 -0.734560643100E+01  0.237630002678E+01  0.642732038147E+01  0.169993940974E+01  0.802282167462E+01  0.475954010729E+01 -0.140691701298E+01
  0.123918948257E+01  0.842361946149E+01  0.533477710259E+01 -0.494765607039E+01 -0.125130452939E+01 -0.276429909785E+01 -0.345496793441E+01
 -0.282080077274E+01 -0.223343877936E+01 -0.301125451400E+01 -0.261935738132E+01 -0.196719205784E+01 -0.112276087389E+01 -0.125630050316E+01
  0.210451786401E+01  0.577735460736E+01 -0.157302761136E+00  0.188670683566E+01 -0.154954403585E+01  0.191772066703E+01  0.404390742203E+01
  0.176879136800E+02 -0.589597977437E+00  0.413296245964E+01  0.128894992601E+02  0.225580282667E+02
 -0.462628293086E+00 -0.293623266640E+00 -0.650929753571E-01 -0.360284966273E-01 -0.218358799913E-01 -0.176068311061E-01  0.307616559149E-01
  0.487724740454E-01 -0.408871022757E-02 -0.563664700222E-02 -0.860821377991E-01 -0.324269760874E-01 -0.228676045516E-01 -0.471476439662E-01
 -0.475591414973E-01  0.370196319662E-01 -0.393469638235E-01  0.129582515019E-01  0.395971853549E-01  0.839791262688E-01  0.121797796572E-01
 -0.477260901990E-01 -0.198823466822E-01 -0.278859642461E-01 -0.330187135044E-01  0.903202841251E-02 -0.530041500105E-02 -0.318399504946E-01
  0.246486199733E-02  0.639799843540E-02  0.966830953174E-02 -0.707561981739E-02 -0.212906772866E-01
 -0.277014896099E+01 -0.631741523036E+01 -0.791177270349E+01 -0.618363481495E+01 -0.790103852185E+01 -0.699601769639E+01 -0.406681058618E+01
 -0.560099135500E+01 -0.839263816410E+01 -0.723910428685E+01 -0.197961596611E+01 -0.462989621974E+01 -0.249727625369E+01 -0.672082826666E+00
 -0.233161553774E+01 -0.604656727911E+00 -0.201570520166E+01 -0.314839256623E+01 -0.395186848216E+01 -0.473841249229E+01 -0.357570106714E+01
 -0.615806304994E+01 -0.806047227849E+01 -0.509774658911E+01 -0.388424772780E+01 -0.299494160959E+01 -0.676474193877E+01 -0.432720964399E+01
 -0.264564972126E+01 -0.118788195587E+01 -0.263759905042E+01 -0.305968143587E+01 -0.184855488801E+01
 -0.653942758491E+01 -0.870135864903E+01 -0.932349128650E+01 -0.644693052450E+01 -0.930728373348E+01 -0.747751400805E+01 -0.396447160523E+01
 -0.451592584953E+01 -0.921447531642E+01 -0.703319293939E+01 -0.420490188566E+01 -0.588556454978E+01 -0.392138626393E+01 -0.297408031387E+01
 -0.214299133557E+01 -0.212526841862E+01 -0.101058762084E+01 -0.155163021748E+01 -0.210024865462E+01 -0.715488371082E+00 -0.304772686718E+01
 -0.393991933175E+01 -0.674236956047E+01 -0.636672586471E+00 -0.652941439306E+01 -0.378570944200E+01 -0.100884526677E+01 -0.656617054685E+01
 -0.406069167778E+02 -0.335913418046E+01 -0.160102211616E+02 -0.336658729462E+02 -0.452371777423E+02
        15         7        19        19
         8        20        19        19
        18        19        21        21
         7         4         8         8
         3         6         4         4
        19         7         8         8
        19        18        15        15
        14        13        15        15
         8        22        20        20
        27        24        22        22
        19        20        21        21
        32        26        21        21
        17        18        26        26
        17        16        15        15
        25        29        21        21
        12         7        13        13
        10         8         6         6
        25        20        24        24
         4         6         8         8
        12         2         4         4
        10        23        22        22
        26        31        17        17
        30        16        17        17
         4         7        12        12
        13        11        12        12
        21        20        25        25
        24        28        25        25
        22         8        10        10
         6         5        10        10
        31        26        32        32
         4         2         3         3
         5         6         3         3
        11        13        14        14
        22        23        27        27
        28        24        27        27
        15        13         7         7
         2        12         1         1
        29        25        33        33
        23        10         9         9
        21        26        18        18
        16        14        15        15
        18        17        15        15
        29        32        21        21
        22        24        20        20
        28        33        25        25
        11         1        12        12
        31        30        17        17
         5         9        10        10
zone t="boundary 3 bc-3", solutiontime= 0.1000000E+02, strandid=1003, i=33, j=48, f=feblock
  0.375059100022E+01  0.249769609016E+01  0.500322139356E+01  0.403612222763E+01  0.287976775181E+01  0.124541907693E+01  0.190552236756E+01
  0.500000000000E+01  0.326671106333E+01  0.423253756071E+01  0.201271138087E+01 -0.547472452772E-02  0.958895628158E+00  0.500000000000E+01
  0.266968148532E+01  0.385584487668E+01  0.890374213116E+00  0.154654014519E+01  0.000000000000E+00  0.500000000000E+01  0.315261137241E+01
  0.218304200095E+01  0.398195307874E+01  0.000000000000E+00  0.697379955531E+00  0.963757281441E+00  0.125000000000E+01  0.000000000000E+00
  0.500000000000E+01  0.310330738720E+01  0.250000000000E+01  0.375000000000E+01  0.000000000000E+00
  0.250494200518E+01  0.250494200518E+01  0.250494200518E+01  0.250494200518E+01  0.250494200518E+01  0.250494200518E+01  0.250494200518E+01
  0.250494200518E+01  0.250494200518E+01  0.250494200518E+01  0.250494200518E+01  0.250494200518E+01  0.250494200518E+01  0.250494200518E+01
  0.250494200518E+01  0.250494200518E+01  0.250494200518E+01  0.250494200518E+01  0.250494200518E+01  0.250494200518E+01  0.250494200518E+01
  0.250494200518E+01  0.250494200518E+01  0.250494200518E+01  0.250494200518E+01  0.250494200518E+01  0.250494200518E+01  0.250494200518E+01
  0.250494200518E+01  0.250494200518E+01  0.250494200518E+01  0.250494200518E+01  0.250494200518E+01
  0.135457002285E-03  0.109983637804E-03  0.964506780631E-04  0.101756739734E+01  0.908094462101E+00  0.103842397884E-03  0.722629008326E+00
  0.125000000000E+01  0.188965653795E+01  0.191862692309E+01  0.176708233165E+01  0.803216924785E-04  0.969652538178E+00  0.250000000000E+01
  0.285339429033E+01  0.293325055335E+01  0.205656222194E+01  0.293157014693E+01  0.125000000000E+01  0.375000000000E+01  0.363766836446E+01
  0.396069443367E+01  0.407056384269E+01  0.250000000000E+01  0.307031994182E+01  0.397359819531E+01  0.500000000000E+01  0.375000000000E+01
  0.500000000000E+01  0.433260780167E+01  0.500000000000E+01  0.500000000000E+01  0.500000000000E+01
  0.500026428483E+00  0.500032419246E+00  0.500006862582E+00  0.500012675829E+00  0.500016790694E+00  0.500005515514E+00  0.500011116478E+00
  0.500003733998E+00  0.500006808641E+00  0.500005363108E+00  0.500002980941E+00  0.499981206172E+00  0.499995995245E+00  0.500001545865E+00
  0.500001067063E+00  0.500001776043E+00  0.499997120852E+00  0.499998507319E+00  0.499991118348E+00  0.500000541056E+00  0.499999909999E+00
  0.499998556582E+00  0.499999838719E+00  0.499995300091E+00  0.499997100276E+00  0.499997636821E+00  0.499997394909E+00  0.499997301467E+00
  0.500000060877E+00  0.499998929370E+00  0.499997760436E+00  0.499998686680E+00  0.499998204572E+00
  0.999997964296E+00  0.999995086830E+00  0.100000150102E+01  0.999999543333E+00  0.999999196217E+00  0.100000275892E+01  0.100000006398E+01
  0.100000070756E+01  0.999999894343E+00  0.100000004711E+01  0.100000060249E+01  0.100000535959E+01  0.100000239388E+01  0.100000049308E+01
  0.100000047118E+01  0.100000028575E+01  0.100000141342E+01  0.100000097400E+01  0.100000311693E+01  0.100000033967E+01  0.100000046231E+01
  0.100000068491E+01  0.100000038434E+01  0.100000165055E+01  0.100000115855E+01  0.100000085007E+01  0.100000071260E+01  0.100000095003E+01
  0.100000027348E+01  0.100000053168E+01  0.100000066520E+01  0.100000047449E+01  0.100000057268E+01
  0.279698534421E+02  0.256010188536E+02  0.330933254417E+02  0.213226955214E+02  0.213348413844E+02  0.247669091430E+02  0.211635911519E+02
  0.209550500019E+02  0.157949717658E+02  0.160188493954E+02  0.153200997217E+02  0.231127580217E+02  0.187531353178E+02  0.137905635406E+02
  0.110952471913E+02  0.125334935450E+02  0.112065333945E+02  0.650397517548E+01  0.169581570892E+02  0.102648167574E+02  0.838781839411E+01
  0.967692662598E+01  0.779631991183E+01  0.381876831314E+01  0.246948393221E+01  0.245588963675E+02  0.882842757889E+02  0.182435559963E+02
  0.934269245051E+01  0.124066254446E+02  0.779466258816E+02  0.416250765870E+02  0.112514046625E+03
  0.320748864103E+01  0.656686606574E+01 -0.765152884531E+01 -0.907265708237E+00  0.218741465010E+01  0.858495517135E+01  0.474248836780E+01
 -0.512341440191E+01 -0.155472870056E+01 -0.288268708881E+01  0.105516813944E+01  0.858848333255E+01  0.526561519364E+01 -0.334206470836E+01
 -0.159011079987E+01 -0.253352040601E+01  0.182915367505E+01 -0.835181859860E+00  0.567531155063E+01 -0.238844548704E+01 -0.261323633509E+01
 -0.164495382400E+01 -0.288281571913E+01  0.193621713361E+01 -0.483257047514E+00  0.324129681343E+01  0.153345327652E+02  0.416431942155E+01
 -0.916372088807E+00 -0.182791351193E+01  0.115923519802E+02  0.397601770744E+01  0.231329576059E+02
  0.142892599555E+00  0.417531483362E-01  0.276411439728E+00 -0.203492729003E+00 -0.218735936074E+00  0.542051536003E-02  0.193828319632E-03
  0.785435984515E-01  0.444248694598E-01  0.325057289457E-01 -0.314730829228E-01 -0.110768282538E-01  0.193851056303E-01 -0.559391067909E-01
 -0.692044153280E-01  0.986892690734E-02  0.135651848719E-01 -0.642591062439E-01  0.545257395111E-02 -0.434633410127E-01 -0.143705047210E-01
 -0.228333982915E-01 -0.118884041551E-02 -0.119462343692E-01  0.266465049568E-01  0.457277168111E-01 -0.418373926451E-01  0.105617806778E-01
 -0.227660367332E-01 -0.440084988028E-02 -0.101157768867E-01 -0.839419509307E-02  0.740670467739E-02
 -0.665483989555E+01 -0.779115382758E+01 -0.312654773718E+01 -0.512526585133E+01 -0.640732412727E+01 -0.782087088105E+01 -0.713357645183E+01
 -0.197401777893E+01 -0.409268773913E+01 -0.238944924236E+01 -0.557004698248E+01 -0.838176927629E+01 -0.720726249607E+01 -0.726869762431E+00
 -0.394441091619E+01 -0.232585727973E+01 -0.620822863648E+01 -0.484346696612E+01 -0.809402480338E+01 -0.768172916051E+00 -0.305600372612E+01
 -0.368753081350E+01 -0.209601174774E+01 -0.697021319308E+01 -0.505600289310E+01 -0.390935048048E+01 -0.271379389802E+01 -0.420588414883E+01
 -0.108823032525E+01 -0.287882510332E+01 -0.303545055483E+01 -0.261001990154E+01 -0.173343360563E+01
 -0.868201593760E+01 -0.927729881055E+01 -0.637192604476E+01 -0.593508653523E+01 -0.677183674836E+01 -0.975749695188E+01 -0.747571849955E+01
 -0.424991164116E+01 -0.395592884900E+01 -0.362602986284E+01 -0.462170776790E+01 -0.929702030482E+01 -0.697672921577E+01 -0.279877159882E+01
 -0.254115759575E+01 -0.273470434588E+01 -0.359009205469E+01 -0.119435186745E+01 -0.657405385985E+01 -0.213252505644E+01 -0.139155961872E+01
 -0.222867271816E+01 -0.117650421723E+01 -0.106148613113E+01 -0.733244668025E-01 -0.914304126672E+01 -0.356430601147E+02 -0.719160228930E+01
 -0.261602920667E+01 -0.320155673491E+01 -0.307817642506E+02 -0.155071064233E+02 -0.467497774891E+02
        15         9        16        16
        15        18        11        11
        22        15        21        21
        11         5         9         9
         5         7         2         2
        11         9        15        15
        16        21        15        15
        16        10        14        14
        18        17        11        11
        17        25        24        24
        22        18        15        15
        22        30        31        31
        30        21        23        23
        16        20        23        23
        22        27        26        26
        10         9         4         4
         7        11        13        13
        25        18        26        26
        11         7         5         5
         5         1         4         4
        17        19        13        13
        23        32        30        30
        23        20        29        29
         4         9         5         5
         4         8        10        10
        26        18        22        22
        26        28        25        25
        13        11        17        17
        13         6         7         7
        31        30        32        32
         2         1         5         5
         2         7         6         6
        14        10         8         8
        24        19        17        17
        24        25        28        28
         9        10        16        16
         3         4         1         1
        33        26        27        27
        12        13        19        19
        21        30        22        22
        16        14        20        20
        16        23        21        21
        22        31        27        27
        18        25        17        17
        26        33        28        28
         4         3         8         8
        23        29        32        32
        13        12         6         6
zone t="boundary 4 bc-4", solutiontime= 0.1000000E+02, strandid=1004, i=32, j=46, f=feblock
  0.125000000000E+01  0.219251206392E+01  0.103724302461E+01  0.500000000000E+01  0.250000000000E+01  0.375000000000E+01  0.404200324774E+01
  0.500000000000E+01  0.000000000000E+00  0.310152362409E+01  0.202479342020E+01  0.324151231464E+01  0.922061490191E+00  0.000000000000E+00
  0.299062775774E+01  0.394624082883E+01  0.500000000000E+01  0.409252726285E+01  0.500000000000E+01  0.429310310915E+01  0.175434191980E+01
  0.284428995242E+01  0.000000000000E+00  0.000000000000E+00  0.715990576545E+00  0.930412228790E+00  0.125000000000E+01  0.187029682677E+01
  0.500000000000E+01  0.375000000000E+01  0.250000000000E+01  0.000000000000E+00
  0.250494200518E+01  0.157686156160E+01  0.146289271009E+01  0.250494200518E+01  0.250494200518E+01  0.250494200518E+01  0.155830813274E+01
  0.125000000000E+01  0.250494200518E+01  0.177790177481E+01  0.477386199275E+00  0.742988685424E+00  0.308372018325E+00  0.125000000000E+01
 -0.487811078581E+00 -0.144524380962E+01 -0.125000000000E+01 -0.345533899378E+00  0.000000000000E+00  0.627766083140E+00 -0.739814786992E+00
 -0.158811787973E+01  0.000000000000E+00 -0.125000000000E+01 -0.600232012419E+00 -0.154800130438E+01 -0.249658901620E+01 -0.178862290564E+01
 -0.249658901620E+01 -0.249658901620E+01 -0.249658901620E+01 -0.249658901620E+01
  0.500000000000E+01  0.500000000000E+01  0.500000000000E+01  0.500000000000E+01  0.500000000000E+01  0.500000000000E+01  0.500000000000E+01
  0.500000000000E+01  0.500000000000E+01  0.500000000000E+01  0.500000000000E+01  0.500000000000E+01  0.500000000000E+01  0.500000000000E+01
  0.500000000000E+01  0.500000000000E+01  0.500000000000E+01  0.500000000000E+01  0.500000000000E+01  0.500000000000E+01  0.500000000000E+01
  0.500000000000E+01  0.500000000000E+01  0.500000000000E+01  0.500000000000E+01  0.500000000000E+01  0.500000000000E+01  0.500000000000E+01
  0.500000000000E+01  0.500000000000E+01  0.500000000000E+01  0.500000000000E+01
  0.499997394909E+00  0.499997614018E+00  0.499997613608E+00  0.500000060877E+00  0.499997760436E+00  0.499998686680E+00  0.499998898069E+00
  0.500000080922E+00  0.499998204572E+00  0.499998161846E+00  0.499997546137E+00  0.499998205093E+00  0.499997811256E+00  0.499998439681E+00
  0.499998038958E+00  0.499998859625E+00  0.499999940624E+00  0.499998892092E+00  0.500000071183E+00  0.499999108849E+00  0.499997426388E+00
  0.499997927732E+00  0.499998469765E+00  0.499998327883E+00  0.499997933909E+00  0.499997665118E+00  0.499997349625E+00  0.499997387404E+00
  0.500000070105E+00  0.499998661549E+00  0.499997668322E+00  0.499998157431E+00
  0.100000071260E+01  0.100000069159E+01  0.100000065448E+01  0.100000027348E+01  0.100000066520E+01  0.100000047449E+01  0.100000043275E+01
  0.100000026682E+01  0.100000057268E+01  0.100000057562E+01  0.100000070766E+01  0.100000057291E+01  0.100000062178E+01  0.100000054456E+01
  0.100000061871E+01  0.100000044943E+01  0.100000026416E+01  0.100000044976E+01  0.100000026532E+01  0.100000040564E+01  0.100000075001E+01
  0.100000064330E+01  0.100000053273E+01  0.100000055921E+01  0.100000060264E+01  0.100000065382E+01  0.100000073887E+01  0.100000074438E+01
  0.100000029407E+01  0.100000050089E+01  0.100000068226E+01  0.100000058992E+01
  0.882842757889E+02  0.823495558685E+02  0.872742279112E+02  0.934269245051E+01  0.779466258816E+02  0.416250765870E+02  0.289469960639E+02
  0.921461960372E+01  0.112514046625E+03  0.636128538770E+02  0.882621548181E+02  0.608782447079E+02  0.104416798325E+03  0.116666715248E+03
  0.687663740174E+02  0.280239148988E+02  0.107353794446E+02  0.359966418478E+02  0.867015566199E+01  0.357955004706E+02  0.109491686733E+03
  0.645712768719E+02  0.127598301020E+03  0.115295033829E+03  0.123575484954E+03  0.992887978191E+02  0.100048621255E+03  0.102610420908E+03
  0.111696723578E+02  0.428690347470E+02  0.849094921143E+02  0.108864658069E+03