# vtk DataFile Version 2.0
FUN3D:global_image_vtk
ASCII
DATASET UNSTRUCTURED_GRID
POINTS 213 double
    0.0000000000000000E+00    0.2500000000000000E+01    0.0000000000000000E+00
    0.1250000000000000E+01    0.2500000000000000E+01    0.0000000000000000E+00
    0.2500000000000000E+01    0.2500000000000000E+01    0.0000000000000000E+00
    0.3750000000000000E+01    0.2500000000000000E+01    0.0000000000000000E+00
    0.5000000000000000E+01    0.2500000000000000E+01    0.0000000000000000E+00
    0.5000000000000000E+01    0.1250000000000000E+01    0.0000000000000000E+00
    0.5000000000000000E+01    0.0000000000000000E+00    0.0000000000000000E+00
    0.5000000000000000E+01   -0.1250000000000000E+01    0.0000000000000000E+00
    0.5000000000000000E+01   -0.2500000000000000E+01    0.0000000000000000E+00
    0.3750000000000000E+01   -0.2500000000000000E+01    0.0000000000000000E+00
    0.2500000000000000E+01   -0.2500000000000000E+01    0.0000000000000000E+00
    0.1250000000000000E+01   -0.2500000000000000E+01    0.0000000000000000E+00
    0.0000000000000000E+00   -0.2500000000000000E+01    0.0000000000000000E+00
    0.0000000000000000E+00   -0.1250000000000000E+01    0.0000000000000000E+00
    0.0000000000000000E+00    0.0000000000000000E+00    0.0000000000000000E+00
    0.0000000000000000E+00    0.1250000000000000E+01    0.0000000000000000E+00
    0.9058375365086910E+00    0.1578994732800803E+01    0.0000000000000000E+00
    0.3982050490726493E+01   -0.1583989954232354E+01    0.0000000000000000E+00
    0.4033849428301197E+01    0.1453322699199022E+01    0.0000000000000000E+00
    0.1040505887381675E+01   -0.1479596339503735E+01    0.0000000000000000E+00
    0.1099454400140349E+01   -0.3227322616384110E+00    0.0000000000000000E+00
    0.7354504170366591E+00    0.6593508822075582E+00    0.0000000000000000E+00
    0.1622302608453282E+01    0.8256214013940779E+00    0.0000000000000000E+00
    0.2145871574390382E+01   -0.1650070333782557E+01    0.0000000000000000E+00
    0.4086422318222992E+01   -0.4612828702537229E+00    0.0000000000000000E+00
    0.2979540174134984E+01   -0.8579242121530853E+00    0.0000000000000000E+00
    0.3045064261640043E+01   -0.1836846154397680E+01    0.0000000000000000E+00
    0.3428197553792836E+01    0.3508002863614053E+00    0.0000000000000000E+00
    0.4309693860063405E+01    0.5185680230613409E+00    0.0000000000000000E+00
    0.1827272193562204E+01    0.1738996113203182E+01    0.0000000000000000E+00
    0.2808563282768077E+01    0.1325493893339706E+01    0.0000000000000000E+00
    0.1895995683864404E+01   -0.8731419609589618E+00    0.0000000000000000E+00
    0.2273179336307740E+01    0.4906150219227333E-01    0.0000000000000000E+00
    0.5000000000000000E+01    0.2500000000000000E+01    0.1250000000000000E+01
    0.5000000000000000E+01    0.2500000000000000E+01    0.2500000000000000E+01
    0.5000000000000000E+01    0.2500000000000000E+01    0.3750000000000000E+01
    0.5000000000000000E+01    0.2500000000000000E+01    0.5000000000000000E+01
    0.3750000000000000E+01    0.2500000000000000E+01    0.5000000000000000E+01
    0.2500000000000000E+01    0.2500000000000000E+01    0.5000000000000000E+01
    0.1250000000000000E+01    0.2500000000000000E+01    0.5000000000000000E+01
    0.0000000000000000E+00    0.2500000000000000E+01    0.5000000000000000E+01
    0.0000000000000000E+00    0.2500000000000000E+01    0.3750000000000000E+01
    0.0000000000000000E+00    0.2500000000000000E+01    0.2500000000000000E+01
    0.0000000000000000E+00    0.2500000000000000E+01    0.1250000000000000E+01
    0.9631080833812172E+00    0.2500000000000000E+01    0.9613285771248219E+00
    0.3981732467264904E+01    0.2500000000000000E+01    0.4069753913607991E+01
    0.4035525118777670E+01    0.2500000000000000E+01    0.1012015867579395E+01
    0.9641717640894248E+00    0.2500000000000000E+01    0.3972455192261839E+01
    0.1547743040396780E+01    0.2500000000000000E+01    0.2928177746738678E+01
    0.6985170616192014E+00    0.2500000000000000E+01    0.3068281976055466E+01
    0.8931277594515110E+00    0.2500000000000000E+01    0.2052465503257726E+01
    0.2183293750162785E+01    0.2500000000000000E+01    0.3959073795658649E+01
    0.3855333506014705E+01    0.2500000000000000E+01    0.2931218481500625E+01
    0.3152495579421047E+01    0.2500000000000000E+01    0.3635850502723324E+01
    0.3103247580566054E+01    0.2500000000000000E+01    0.4331682712472464E+01
    0.3266837581688852E+01    0.2500000000000000E+01    0.1886092433583972E+01
    0.4231539241296245E+01    0.2500000000000000E+01    0.1915865356532799E+01
    0.1909741006522088E+01    0.2500000000000000E+01    0.7170024419130505E+00
    0.2880784107213163E+01    0.2500000000000000E+01    0.9046598906449592E+00
    0.2014316024535771E+01    0.2500000000000000E+01    0.1762464314805728E+01
    0.2670003247036656E+01    0.2500000000000000E+01    0.2850479545835163E+01
    0.5000000000000000E+01    0.1250000000000000E+01    0.5000000000000000E+01
    0.5000000000000000E+01    0.0000000000000000E+00    0.5000000000000000E+01
    0.5000000000000000E+01   -0.1250000000000000E+01    0.5000000000000000E+01
    0.5000000000000000E+01   -0.2500000000000000E+01    0.5000000000000000E+01
    0.5000000000000000E+01   -0.2500000000000000E+01    0.3750000000000000E+01
    0.5000000000000000E+01   -0.2500000000000000E+01    0.2500000000000000E+01
    0.5000000000000000E+01   -0.2500000000000000E+01    0.1250000000000000E+01
    0.5000000000000000E+01    0.1578994732800803E+01    0.9058375365086910E+00
    0.5000000000000000E+01   -0.1583989954232354E+01    0.3982050490726493E+01
    0.5000000000000000E+01    0.1453322699199022E+01    0.4033849428301197E+01
    0.5000000000000000E+01   -0.1479596339503735E+01    0.1040505887381675E+01
    0.5000000000000000E+01   -0.3227322616384110E+00    0.1099454400140349E+01
    0.5000000000000000E+01    0.6593508822075582E+00    0.7354504170366591E+00
    0.5000000000000000E+01    0.8256214013940779E+00    0.1622302608453282E+01
    0.5000000000000000E+01   -0.1650070333782557E+01    0.2145871574390382E+01
    0.5000000000000000E+01   -0.4612828702537229E+00    0.4086422318222992E+01
    0.5000000000000000E+01   -0.8579242121530853E+00    0.2979540174134984E+01
    0.5000000000000000E+01   -0.1836846154397680E+01    0.3045064261640043E+01
    0.5000000000000000E+01    0.3508002863614053E+00    0.3428197553792836E+01
    0.5000000000000000E+01    0.5185680230613409E+00    0.4309693860063405E+01
    0.5000000000000000E+01    0.1738996113203182E+01    0.1827272193562204E+01
    0.5000000000000000E+01    0.1325493893339706E+01    0.2808563282768077E+01
    0.5000000000000000E+01   -0.8731419609589618E+00    0.1895995683864404E+01
    0.5000000000000000E+01    0.4906150219227333E-01    0.2273179336307740E+01
    0.0000000000000000E+00    0.1250000000000000E+01    0.5000000000000000E+01
    0.0000000000000000E+00    0.0000000000000000E+00    0.5000000000000000E+01
    0.0000000000000000E+00   -0.1250000000000000E+01    0.5000000000000000E+01
    0.0000000000000000E+00   -0.2500000000000000E+01    0.5000000000000000E+01
    0.1250000000000000E+01   -0.2500000000000000E+01    0.5000000000000000E+01
    0.2500000000000000E+01   -0.2500000000000000E+01    0.5000000000000000E+01
    0.3750000000000000E+01   -0.2500000000000000E+01    0.5000000000000000E+01
    0.4042003247744892E+01    0.1558308132739014E+01    0.5000000000000000E+01
    0.9304122287900499E+00   -0.1548001304379777E+01    0.5000000000000000E+01
    0.1037243024609388E+01    0.1462892710085612E+01    0.5000000000000000E+01
    0.3946240828834967E+01   -0.1445243809615570E+01    0.5000000000000000E+01
    0.4092527262848217E+01   -0.3455338993778935E+00    0.5000000000000000E+01
    0.4293103109154542E+01    0.6277660831404320E+00    0.5000000000000000E+01
    0.3241512314643519E+01    0.7429886854239611E+00    0.5000000000000000E+01
    0.2844289952419609E+01   -0.1588117879734118E+01    0.5000000000000000E+01
    0.7159905765450471E+00   -0.6002320124191652E+00    0.5000000000000000E+01
    0.1754341919796891E+01   -0.7398147869923652E+00    0.5000000000000000E+01
    0.1870296826774691E+01   -0.1788622905643739E+01    0.5000000000000000E+01
    0.9220614901912976E+00    0.3083720183248586E+00    0.5000000000000000E+01
    0.3101523624086016E+01    0.1777901774806180E+01    0.5000000000000000E+01
    0.2192512063922564E+01    0.1576861561598471E+01    0.5000000000000000E+01
    0.2024793420196460E+01    0.4773861992750707E+00    0.5000000000000000E+01
    0.2990627757741975E+01   -0.4878110785814084E+00    0.5000000000000000E+01
    0.0000000000000000E+00   -0.2500000000000000E+01    0.1250000000000000E+01
    0.0000000000000000E+00   -0.2500000000000000E+01    0.2500000000000000E+01
    0.0000000000000000E+00   -0.2500000000000000E+01    0.3750000000000000E+01
    0.0000000000000000E+00    0.1558308132739014E+01    0.4042003247744892E+01
    0.0000000000000000E+00   -0.1548001304379777E+01    0.9304122287900499E+00
    0.0000000000000000E+00    0.1462892710085612E+01    0.1037243024609388E+01
    0.0000000000000000E+00   -0.1445243809615570E+01    0.3946240828834967E+01
    0.0000000000000000E+00   -0.3455338993778935E+00    0.4092527262848217E+01
    0.0000000000000000E+00    0.6277660831404320E+00    0.4293103109154542E+01
    0.0000000000000000E+00    0.7429886854239611E+00    0.3241512314643519E+01
    0.0000000000000000E+00   -0.1588117879734118E+01    0.2844289952419609E+01
    0.0000000000000000E+00   -0.6002320124191652E+00    0.7159905765450471E+00
    0.0000000000000000E+00   -0.7398147869923652E+00    0.1754341919796891E+01
    0.0000000000000000E+00   -0.1788622905643739E+01    0.1870296826774691E+01
    0.0000000000000000E+00    0.3083720183248586E+00    0.9220614901912976E+00
    0.0000000000000000E+00    0.1777901774806180E+01    0.3101523624086016E+01
    0.0000000000000000E+00    0.1576861561598471E+01    0.2192512063922564E+01
[...]
POINT_DATA 213
SCALARS p double 1
LOOKUP_TABLE default
   0.7142857142857143E+00
   0.7142857142857142E+00
   0.7142857142857143E+00
   0.7142857142857141E+00
   0.7142857142857143E+00
   0.7142857142857141E+00
   0.7142857142857142E+00
   0.7142857142857142E+00
   0.7142857142857139E+00
   0.7142857142857143E+00
   0.7142857142857142E+00
   0.7142857142857141E+00
   0.7142857142857143E+00
   0.7142857142857141E+00
   0.7142857142857143E+00
   0.7142857142857143E+00
   0.7142857142857143E+00
   0.7142857142857142E+00
   0.7142857142857143E+00
   0.7142857142857141E+00
   0.7142857142857144E+00
   0.7142857142857142E+00
   0.7142857142857143E+00
   0.7142857142857143E+00
   0.7142857142857143E+00
   0.7142857142857145E+00
   0.7142857142857143E+00
   0.7142857142857145E+00
   0.7142857142857145E+00
   0.7142857142857143E+00
   0.7142857142857141E+00
   0.7142857142857143E+00
   0.7142857142857144E+00
   0.7142857142857143E+00
   0.7142857142857141E+00
   0.7142857142857139E+00
   0.7142857142857141E+00
   0.7142857142857139E+00
   0.7142857142857142E+00
   0.7142857142857143E+00
   0.7142857142857143E+00
   0.7142857142857143E+00
   0.7142857142857142E+00
   0.7142857142857143E+00
   0.7142857142857143E+00
   0.7142857142857143E+00
   0.7142857142857143E+00
   0.7142857142857143E+00
   0.7142857142857143E+00
   0.7142857142857143E+00
   0.7142857142857143E+00
   0.7142857142857141E+00
   0.7142857142857142E+00
   0.7142857142857141E+00
   0.7142857142857143E+00
   0.7142857142857143E+00
   0.7142857142857142E+00
   0.7142857142857143E+00
   0.7142857142857143E+00
   0.7142857142857143E+00
   0.7142857142857143E+00
   0.7142857142857142E+00
   0.7142857142857141E+00
   0.7142857142857144E+00
   0.7142857142857145E+00
   0.7142857142857143E+00
   0.7142857142857142E+00
   0.7142857142857141E+00
   0.7142857142857143E+00
   0.7142857142857141E+00
   0.7142857142857143E+00
   0.7142857142857143E+00
   0.7142857142857143E+00
   0.7142857142857141E+00
   0.7142857142857137E+00
   0.7142857142857134E+00
   0.7142857142857139E+00
   0.7142857142857137E+00
   0.7142857142857142E+00
   0.7142857142857139E+00
   0.7142857142857143E+00
   0.7142857142857145E+00
   0.7142857142857146E+00
   0.7142857142857139E+00
   0.7142857142857143E+00
   0.7142857142857143E+00
   0.7142857142857143E+00
   0.7142857142857143E+00
   0.7142857142857143E+00
   0.7142857142857143E+00
   0.7142857142857139E+00
   0.7142857142857139E+00
   0.7142857142857139E+00
   0.7142857142857143E+00
   0.7142857142857141E+00
   0.7142857142857142E+00
   0.7142857142857147E+00
   0.7142857142857139E+00
   0.7142857142857139E+00
   0.7142857142857141E+00
   0.7142857142857146E+00
   0.7142857142857142E+00
   0.7142857142857142E+00
   0.7142857142857143E+00
   0.7142857142857142E+00
   0.7142857142857143E+00
   0.7142857142857141E+00
   0.7142857142857147E+00
   0.7142857142857143E+00
   0.7142857142857146E+00
   0.7142857142857142E+00
   0.7142857142857143E+00
   0.7142857142857143E+00
   0.7142857142857143E+00
   0.7142857142857141E+00
   0.7142857142857141E+00
   0.7142857142857143E+00
   0.7142857142857142E+00
   0.7142857142857142E+00
   0.7142857142857143E+00
   0.7142857142857143E+00
   0.7142857142857143E+00
   0.7142857142857143E+00
   0.7142857142857134E+00
   0.7142857142857143E+00
   0.7142857142857137E+00
   0.7142857142857141E+00
   0.7142857142857143E+00
   0.7142857142857143E+00
   0.7142857142857142E+00
   0.7142857142857143E+00
   0.7142857142857143E+00
   0.7142857142857142E+00
   0.7142857142857141E+00
   0.7142857142857143E+00
   0.7142857142857143E+00
   0.7142857142857143E+00
   0.7142857142857143E+00
   0.7142857142857143E+00
   0.7142857142857142E+00
   0.7142857142857143E+00
   0.7142857142857143E+00
   0.7142857142857143E+00
   0.7142857142857143E+00
   0.7142857142857143E+00
   0.7142857142857141E+00
   0.7142857142857143E+00
   0.7142857142857143E+00
   0.7142857142857143E+00
   0.7142857142857143E+00
   0.7142857142857143E+00
   0.7142857142857143E+00
   0.7142857142857143E+00
   0.7142857142857143E+00
   0.7142857142857143E+00
   0.7142857142857143E+00
   0.7142857142857143E+00
   0.7142857142857143E+00
   0.7142857142857143E+00
   0.7142857142857142E+00
   0.7142857142857143E+00
   0.7142857142857143E+00
   0.7142857142857143E+00
   0.7142857142857142E+00
   0.7142857142857143E+00
   0.7142857142857142E+00
   0.7142857142857143E+00
   0.7142857142857143E+00
   0.7142857142857142E+00
   0.7142857142857143E+00
   0.7142857142857143E+00
   0.7142857142857143E+00
   0.7142857142857143E+00
   0.7142857142857143E+00
   0.7142857142857143E+00
   0.7142857142857143E+00
   0.7142857142857143E+00
   0.7142857142857143E+00
   0.7142857142857143E+00
   0.7142857142857143E+00
   0.7142857142857143E+00
   0.7142857142857142E+00
   0.7142857142857143E+00
   0.7142857142857139E+00
   0.7142857142857143E+00
   0.7142857142857143E+00
   0.7142857142857144E+00
   0.7142857142857143E+00
   0.7142857142857143E+00
   0.7142857142857142E+00
   0.7142857142857143E+00
   0.7142857142857143E+00
   0.7142857142857143E+00
   0.7142857142857143E+00
   0.7142857142857143E+00
   0.7142857142857143E+00
   0.7142857142857143E+00
   0.7142857142857144E+00
   0.7142857142857143E+00
   0.7142857142857143E+00
   0.7142857142857143E+00
   0.7142857142857143E+00
   0.7142857142857142E+00
   0.7142857142857143E+00
   0.7142857142857143E+00
   0.7142857142857142E+00
   0.7142857142857142E+00
   0.7142857142857143E+00
   0.7142857142857143E+00
   0.7142857142857142E+00
   0.7142857142857143E+00
   0.7142857142857143E+00
   0.7142857142857143E+00
SCALARS mach double 1
LOOKUP_TABLE default
   0.4999999999999999E+00
   0.5000000000000002E+00
   0.5000000000000002E+00
   0.5000000000000000E+00
   0.4999999999999998E+00
   0.4999999999999995E+00
   0.5000000000000000E+00
   0.5000000000000003E+00
   0.5000000000000000E+00
   0.4999999999999999E+00
   0.5000000000000000E+00
   0.5000000000000001E+00
   0.4999999999999999E+00
   0.5000000000000000E+00
   0.5000000000000008E+00
   0.5000000000000001E+00
   0.5000000000000001E+00
   0.5000000000000002E+00
   0.4999999999999999E+00
   0.5000000000000001E+00
   0.5000000000000001E+00
   0.5000000000000002E+00
   0.5000000000000002E+00
   0.4999999999999999E+00
   0.5000000000000001E+00
   0.5000000000000000E+00
   0.4999999999999999E+00
   0.4999999999999999E+00
   0.5000000000000000E+00
   0.5000000000000002E+00
   0.5000000000000004E+00
   0.4999999999999999E+00
   0.5000000000000001E+00
   0.4999999999999997E+00
   0.5000000000000000E+00
   0.5000000000000001E+00
   0.5000000000000000E+00
   0.5000000000000001E+00
   0.4999999999999999E+00
   0.4999999999999999E+00
   0.5000000000000001E+00
   0.4999999999999997E+00
   0.5000000000000001E+00
   0.5000000000000000E+00
   0.4999999999999999E+00
   0.5000000000000002E+00
   0.5000000000000001E+00
   0.4999999999999999E+00
   0.4999999999999998E+00
   0.4999999999999999E+00
   0.5000000000000001E+00
   0.5000000000000000E+00
   0.5000000000000000E+00
   0.4999999999999999E+00
   0.4999999999999999E+00
   0.4999999999999999E+00
   0.5000000000000000E+00
   0.4999999999999999E+00
   0.4999999999999998E+00
   0.5000000000000000E+00
   0.4999999999999996E+00
   0.5000000000000000E+00
   0.4999999999999995E+00
   0.5000000000000001E+00
   0.5000000000000003E+00
   0.5000000000000002E+00
   0.4999999999999999E+00
   0.5000000000000000E+00
   0.4999999999999999E+00
   0.5000000000000004E+00
   0.5000000000000000E+00
   0.5000000000000001E+00
   0.5000000000000000E+00
   0.4999999999999997E+00
   0.4999999999999995E+00
   0.5000000000000001E+00
   0.5000000000000000E+00
   0.4999999999999999E+00
   0.5000000000000003E+00
   0.5000000000000000E+00
   0.5000000000000001E+00
   0.5000000000000003E+00
   0.5000000000000001E+00
   0.5000000000000000E+00
   0.5000000000000001E+00
   0.5000000000000000E+00
   0.4999999999999999E+00
   0.5000000000000001E+00
   0.5000000000000004E+00
   0.5000000000000001E+00
   0.5000000000000000E+00
   0.5000000000000001E+00
   0.5000000000000001E+00
   0.4999999999999999E+00
   0.5000000000000000E+00
   0.5000000000000001E+00
   0.5000000000000000E+00
   0.5000000000000000E+00
   0.5000000000000001E+00
   0.5000000000000000E+00
   0.5000000000000000E+00
   0.5000000000000000E+00
   0.5000000000000000E+00
   0.4999999999999999E+00
   0.5000000000000000E+00
   0.4999999999999998E+00
   0.5000000000000000E+00
   0.4999999999999998E+00
   0.4999999999999998E+00
   0.4999999999999992E+00
   0.5000000000000001E+00
   0.4999999999999999E+00
   0.5000000000000000E+00
   0.5000000000000000E+00
   0.5000000000000002E+00
   0.5000000000000004E+00
   0.4999999999999999E+00
   0.5000000000000003E+00
   0.5000000000000004E+00
   0.5000000000000001E+00
   0.5000000000000001E+00
   0.4999999999999996E+00
   0.5000000000000000E+00
   0.5000000000000010E+00
   0.5000000000000000E+00
   0.5000000000000004E+00
   0.5000000000000002E+00
   0.4999999999999998E+00
   0.5000000000000004E+00
   0.5000000000000001E+00
   0.5000000000000001E+00
   0.5000000000000001E+00
   0.5000000000000000E+00
   0.4999999999999998E+00
   0.5000000000000002E+00
   0.4999999999999999E+00
   0.5000000000000001E+00
   0.5000000000000001E+00
   0.5000000000000001E+00
   0.5000000000000003E+00
   0.4999999999999997E+00
   0.4999999999999999E+00
   0.5000000000000000E+00
   0.4999999999999999E+00
   0.5000000000000001E+00
   0.5000000000000003E+00
   0.5000000000000001E+00
   0.5000000000000000E+00
   0.5000000000000000E+00
   0.5000000000000001E+00
   0.5000000000000001E+00
   0.5000000000000001E+00
   0.4999999999999999E+00
   0.5000000000000001E+00
   0.4999999999999999E+00
   0.5000000000000000E+00
   0.4999999999999999E+00
   0.5000000000000000E+00
   0.5000000000000000E+00
   0.5000000000000000E+00
   0.5000000000000000E+00
   0.5000000000000001E+00
   0.4999999999999999E+00
   0.5000000000000001E+00
   0.4999999999999999E+00
   0.5000000000000000E+00
   0.5000000000000000E+00
   0.4999999999999999E+00
   0.5000000000000001E+00
   0.5000000000000001E+00
   0.5000000000000000E+00
   0.5000000000000001E+00
   0.5000000000000000E+00
   0.4999999999999998E+00
   0.5000000000000001E+00
   0.5000000000000000E+00
   0.5000000000000000E+00
   0.4999999999999999E+00
   0.5000000000000000E+00
   0.5000000000000001E+00
   0.5000000000000003E+00
   0.5000000000000000E+00
   0.4999999999999999E+00
   0.5000000000000002E+00
   0.4999999999999999E+00
   0.5000000000000000E+00
   0.5000000000000001E+00
   0.5000000000000000E+00
   0.4999999999999999E+00
   0.4999999999999999E+00
   0.5000000000000000E+00
   0.5000000000000000E+00
   0.4999999999999999E+00
   0.4999999999999999E+00
   0.5000000000000000E+00
   0.4999999999999999E+00
   0.5000000000000000E+00
   0.5000000000000001E+00
   0.5000000000000001E+00
   0.4999999999999999E+00
   0.4999999999999999E+00
   0.5000000000000001E+00
   0.4999999999999999E+00
   0.5000000000000000E+00
   0.5000000000000000E+00
   0.5000000000000000E+00
   0.5000000000000000E+00
   0.5000000000000001E+00
   0.5000000000000001E+00
   0.5000000000000000E+00
   0.5000000000000001E+00
   0.5000000000000001E+00
   0.4999999999999999E+00
SCALARS temperature double 1
LOOKUP_TABLE default
   0.1000000000000000E+01
   0.9999999999999999E+00
   0.1000000000000000E+01
   0.9999999999999997E+00
   0.9999999999999998E+00
   0.9999999999999997E+00
   0.9999999999999999E+00
   0.9999999999999998E+00
   0.9999999999999996E+00
   0.1000000000000000E+01
   0.9999999999999999E+00
   0.9999999999999999E+00
   0.1000000000000000E+01
   0.9999999999999998E+00
   0.1000000000000000E+01
   0.1000000000000000E+01
   0.1000000000000000E+01
   0.1000000000000000E+01
   0.9999999999999998E+00
   0.1000000000000000E+01
   0.1000000000000000E+01
   0.1000000000000000E+01
   0.9999999999999998E+00
   0.1000000000000000E+01
   0.1000000000000000E+01
   0.9999999999999998E+00
   0.9999999999999998E+00
   0.9999999999999998E+00
   0.9999999999999998E+00
   0.1000000000000000E+01
   0.9999999999999997E+00
   0.1000000000000000E+01
   0.9999999999999998E+00
   0.1000000000000000E+01
   0.9999999999999998E+00
   0.9999999999999994E+00
   0.9999999999999998E+00
   0.9999999999999997E+00
   0.9999999999999996E+00
   0.1000000000000000E+01
   0.9999999999999998E+00
   0.9999999999999996E+00
   0.9999999999999996E+00
   0.1000000000000000E+01
   0.1000000000000000E+01
   0.1000000000000000E+01
   0.9999999999999998E+00
   0.1000000000000000E+01
   0.1000000000000000E+01
   0.1000000000000000E+01
   0.1000000000000000E+01
   0.1000000000000000E+01
   0.9999999999999999E+00
   0.9999999999999999E+00
   0.1000000000000000E+01
   0.1000000000000000E+01
   0.9999999999999999E+00
   0.1000000000000000E+01
   0.1000000000000000E+01
   0.1000000000000000E+01
   0.1000000000000000E+01
   0.9999999999999999E+00
   0.9999999999999999E+00
   0.9999999999999998E+00
   0.9999999999999998E+00
   0.9999999999999998E+00
   0.1000000000000000E+01
   0.1000000000000000E+01
   0.1000000000000000E+01
   0.9999999999999998E+00
   0.1000000000000000E+01
   0.1000000000000000E+01
   0.1000000000000000E+01
   0.9999999999999997E+00
   0.9999999999999999E+00
   0.9999999999999998E+00
   0.9999999999999998E+00
   0.9999999999999999E+00
   0.1000000000000000E+01
   0.9999999999999996E+00
   0.1000000000000000E+01
   0.1000000000000000E+01
   0.1000000000000000E+01
   0.9999999999999999E+00
   0.1000000000000000E+01
   0.9999999999999998E+00
   0.9999999999999996E+00
   0.1000000000000000E+01
   0.9999999999999998E+00
   0.1000000000000000E+01
   0.9999999999999998E+00
   0.9999999999999997E+00
   0.9999999999999997E+00
   0.1000000000000000E+01
   0.9999999999999998E+00
   0.1000000000000000E+01
   0.1000000000000000E+01
   0.9999999999999998E+00
   0.9999999999999997E+00
   0.9999999999999999E+00
   0.1000000000000000E+01
   0.1000000000000000E+01
   0.9999999999999999E+00
   0.9999999999999998E+00
   0.9999999999999999E+00
   0.9999999999999998E+00
   0.9999999999999998E+00
   0.1000000000000000E+01
   0.1000000000000000E+01
   0.1000000000000000E+01
   0.1000000000000000E+01
   0.1000000000000000E+01
   0.1000000000000000E+01
   0.9999999999999996E+00
   0.9999999999999999E+00
   0.9999999999999997E+00
   0.1000000000000000E+01
   0.9999999999999998E+00
   0.9999999999999999E+00
   0.1000000000000000E+01
   0.1000000000000000E+01
   0.1000000000000000E+01
   0.1000000000000000E+01
   0.9999999999999999E+00
   0.9999999999999998E+00
   0.9999999999999999E+00
   0.9999999999999999E+00
   0.1000000000000000E+01
   0.9999999999999996E+00
   0.1000000000000000E+01
   0.1000000000000000E+01
   0.1000000000000000E+01
   0.9999999999999998E+00
   0.9999999999999997E+00
   0.1000000000000000E+01
   0.1000000000000000E+01
   0.1000000000000000E+01
   0.1000000000000000E+01
   0.1000000000000000E+01
   0.9999999999999999E+00
   0.1000000000000000E+01
   0.1000000000000000E+01
   0.1000000000000000E+01
   0.1000000000000000E+01
   0.1000000000000000E+01
   0.9999999999999998E+00
   0.1000000000000000E+01
   0.1000000000000000E+01
   0.1000000000000000E+01
   0.1000000000000000E+01
   0.1000000000000000E+01
   0.1000000000000000E+01
   0.1000000000000000E+01
   0.1000000000000000E+01
   0.1000000000000000E+01
   0.1000000000000000E+01
   0.1000000000000000E+01
   0.1000000000000000E+01
   0.1000000000000000E+01
   0.9999999999999999E+00
   0.1000000000000000E+01
   0.9999999999999998E+00
   0.1000000000000000E+01
   0.1000000000000000E+01
   0.1000000000000000E+01
   0.9999999999999999E+00
   0.1000000000000000E+01
   0.1000000000000000E+01
   0.9999999999999998E+00
   0.1000000000000000E+01
   0.1000000000000000E+01
   0.1000000000000000E+01
   0.1000000000000000E+01
   0.1000000000000000E+01
   0.1000000000000000E+01
   0.1000000000000000E+01
   0.1000000000000000E+01
   0.1000000000000000E+01
   0.1000000000000000E+01
   0.1000000000000000E+01
   0.1000000000000000E+01
   0.9999999999999998E+00
   0.1000000000000000E+01
   0.9999999999999996E+00
   0.1000000000000000E+01
   0.1000000000000000E+01
   0.1000000000000000E+01
   0.1000000000000000E+01
   0.1000000000000000E+01
   0.1000000000000000E+01
   0.1000000000000000E+01
   0.1000000000000000E+01
   0.9999999999999998E+00
   0.1000000000000000E+01
   0.1000000000000000E+01
   0.1000000000000000E+01
   0.1000000000000000E+01
   0.1000000000000000E+01
   0.1000000000000000E+01
   0.1000000000000000E+01
   0.1000000000000000E+01
   0.1000000000000000E+01
   0.1000000000000000E+01
   0.1000000000000000E+01
   0.1000000000000000E+01
   0.9999999999999999E+00
   0.9999999999999999E+00
   0.1000000000000000E+01
   0.1000000000000000E+01
   0.9999999999999998E+00
   0.1000000000000000E+01
   0.1000000000000000E+01
   0.1000000000000000E+01
SCALARS lambda1 double 1
LOOKUP_TABLE default
  -0.1198438439316890E-01
  -0.1639479835453897E-01
  -0.1657059083704120E-01
  -0.1660363172501418E-01
  -0.1429651096837288E-03
  -0.1749624328790039E-02
  -0.2186754630828724E-02
  -0.9889280509914476E-03
   0.4560084894684562E-03
  -0.8619945846940027E-02
  -0.2457389844381389E-01
  -0.3001563047449125E-01
  -0.1678900052846797E-01
  -0.1846472714165632E-01
  -0.2510908401199611E-01
  -0.1809728850874224E-01
  -0.2770580786832793E-01
  -0.7829801369756964E-02
  -0.3990935831803958E-02
  -0.8049677475678267E-02
  -0.1159242913545756E-01
  -0.2258526703628771E-01
  -0.1256791831791195E-01
  -0.7926693146013146E-02
  -0.5601222954990374E-02
  -0.9486656731643983E-02
  -0.4874875280968663E-02
  -0.7216994211413772E-02
  -0.3760724078630354E-02
  -0.1636902486017076E-01
  -0.9283283507024558E-02
  -0.7775457384358757E-02
  -0.1538322757402001E-01
  -0.3104850107787253E-03
  -0.2923057783957012E-04
  -0.1772390692034163E-04
  -0.1605968823115549E-04
  -0.1865913000021667E-04
  -0.2562550374948472E-05
  -0.3248397771061858E-04
   0.4000304429298736E-04
  -0.6192788025675514E-03
   0.1836928810329572E-02
   0.3643262824176058E-02
   0.2808002001513668E-02
  -0.1489410373829619E-04
   0.4120656165768810E-02
  -0.1631865018748433E-03
   0.9973081063619151E-04
   0.6244623923564629E-04
   0.2331206510189344E-02
  -0.9306424064092411E-04
  -0.6154955964892128E-05
   0.2159736981154571E-04
   0.7694224498981887E-06
   0.4159333660319277E-03
  -0.7983431526106116E-04
   0.3412921428587558E-02
   0.7980484138153859E-02
   0.4525542304706443E-02
  -0.3774585920327752E-03
  -0.9211663934334698E-05
  -0.9575580092708223E-05
  -0.1693584786645928E-04
  -0.1299701316814396E-04
  -0.1270462069208545E-04
  -0.2455441611000290E-04
   0.1956081413502853E-04
  -0.3185290004885620E-03
  -0.1063954448859041E-04
  -0.1361903311125359E-04
   0.1178653685098303E-02
   0.7536755688849867E-03
   0.1088367588571271E-02
   0.6289919831481948E-05
  -0.4039982428503596E-04
  -0.1271878277481535E-04
  -0.2256072609306876E-04
  -0.1383228163548578E-04
  -0.1839118838458799E-04
  -0.1459783819715542E-04
  -0.1612554324858624E-04
  -0.7944924784141408E-05
   0.8108269815021678E-04
  -0.3332453394792647E-06
   0.1429078778924101E-04
   0.3473021599994067E-04
  -0.2368545385805156E-04
  -0.1340390578221154E-03
  -0.2768334099856985E-04
  -0.2108205518624986E-04
  -0.1562863330119756E-04
  -0.1090267478846975E-04
  -0.1579701915080605E-04
   0.5312645419380782E-04
  -0.1562233995502938E-04
  -0.9813856862094264E-05
  -0.7643857031095388E-05
  -0.5760766002090567E-05
  -0.1603213194994742E-04
   0.1127506757266347E-03
  -0.6391880475929423E-04
  -0.3571072823984195E-04
   0.1154241012433482E-03
  -0.1452045670568446E-04
   0.3400292994416186E-05
  -0.2667436314295678E-04
  -0.5231906651348511E-05
   0.3960550710360522E-02
   0.1510223746253425E-02
  -0.2436318749552074E-03
  -0.3719517371210739E-03
   0.6489633327591416E-02
   0.4876559734983432E-02
  -0.2117189691099001E-03
  -0.3489392396089618E-03
  -0.3447302258725198E-03
  -0.4171880746307541E-04
   0.4659741950086728E-03
   0.5009573114549126E-02
   0.3175200523618728E-02
   0.2586081124715028E-02