title="tecplot geometry and solution file"
variables = x y z mach temperature lambda1 lambda2 lambda3 lambda4 lambda5
zone t="boundary 1 bc-1", solutiontime= 0.4000000E+02, strandid=1001, i=32, j=46, f=feblock
 -0.547472452772E-02  0.000000000000E+00 -0.567610116354E-02  0.000000000000E+00  0.000000000000E+00  0.000000000000E+00 -0.525162568575E-02
 -0.425778988008E-02  0.000000000000E+00  0.000000000000E+00  0.000000000000E+00  0.000000000000E+00  0.000000000000E+00  0.000000000000E+00
  0.000000000000E+00  0.000000000000E+00 -0.338396965251E-02  0.000000000000E+00  0.000000000000E+00  0.000000000000E+00  0.000000000000E+00
  0.000000000000E+00  0.000000000000E+00  0.000000000000E+00  0.000000000000E+00  0.000000000000E+00  0.000000000000E+00  0.000000000000E+00
  0.000000000000E+00  0.000000000000E+00  0.000000000000E+00  0.000000000000E+00
  0.250494200518E+01  0.250494200518E+01  0.127822174353E+01  0.146289271009E+01  0.157686156160E+01  0.308372018325E+00  0.261950149565E-01
 -0.122573467301E+01 -0.600232012419E+00  0.250494200518E+01  0.477386199275E+00  0.742988685424E+00 -0.739814786992E+00  0.177790177481E+01
  0.155830813274E+01  0.250494200518E+01 -0.249658901620E+01 -0.154800130438E+01 -0.487811078581E+00  0.250494200518E+01  0.627766083140E+00
 -0.345533899378E+00 -0.178862290564E+01 -0.158811787973E+01  0.125000000000E+01 -0.249658901620E+01 -0.144524380962E+01  0.000000000000E+00
 -0.125000000000E+01 -0.249658901620E+01 -0.249658901620E+01 -0.249658901620E+01
  0.803216924785E-04  0.125000000000E+01  0.822205278517E-04  0.103724302461E+01  0.219251206392E+01  0.922061490191E+00  0.103877881505E-03
  0.341876513122E-04  0.715990576545E+00  0.250000000000E+01  0.202479342020E+01  0.324151231464E+01  0.175434191980E+01  0.310152362409E+01
  0.404200324774E+01  0.375000000000E+01  0.811362586350E-04  0.930412228790E+00  0.299062775774E+01  0.500000000000E+01  0.429310310915E+01
  0.409252726285E+01  0.187029682677E+01  0.284428995242E+01  0.500000000000E+01  0.125000000000E+01  0.394624082883E+01  0.500000000000E+01
  0.500000000000E+01  0.250000000000E+01  0.375000000000E+01  0.500000000000E+01
  0.499981206172E+00  0.499991118348E+00  0.499981230533E+00  0.499988898606E+00  0.499994293982E+00  0.499986890137E+00  0.499980034591E+00
  0.499978035812E+00  0.499984817147E+00  0.499995300091E+00  0.499993474129E+00  0.499996491933E+00  0.499991673269E+00  0.499996421204E+00
  0.499997489029E+00  0.499997301467E+00  0.499982049496E+00  0.499985451310E+00  0.499995812565E+00  0.499998204572E+00  0.499997804495E+00
  0.499997536087E+00  0.499993011081E+00  0.499995350029E+00  0.499998439681E+00  0.499989731792E+00  0.499997291580E+00  0.499998469765E+00
  0.499998327883E+00  0.499994947581E+00  0.499997102831E+00  0.499998157431E+00
  0.100000535959E+01  0.100000311693E+01  0.100000597590E+01  0.100000364217E+01  0.100000195380E+01  0.100000402884E+01  0.100000822559E+01
  0.100001092492E+01  0.100000511527E+01  0.100000165055E+01  0.100000226103E+01  0.100000124782E+01  0.100000270965E+01  0.100000128260E+01
  0.100000084133E+01  0.100000095003E+01  0.100000836147E+01  0.100000449886E+01  0.100000143616E+01  0.100000057268E+01  0.100000077696E+01
  0.100000086546E+01  0.100000257771E+01  0.100000151568E+01  0.100000054456E+01  0.100000370047E+01  0.100000091472E+01  0.100000053273E+01
  0.100000055921E+01  0.100000176985E+01  0.100000100452E+01  0.100000058992E+01
  0.231469866640E+02  0.166580843941E+02  0.237765593030E+02  0.175572291759E+02  0.955625625731E+01  0.186926312178E+02  0.244889307128E+02
  0.243089829775E+02  0.200470007055E+02  0.455115951305E+01  0.108836906587E+02  0.499478873652E+01  0.123057534135E+02  0.206627304354E+01
  0.219236365556E+02  0.165791246196E+02  0.232106023037E+02  0.187768994936E+02  0.463097738703E+01  0.119815614165E+03  0.334226933468E+02
  0.185420694974E+02  0.118302398601E+02  0.435933747013E+01  0.123489138681E+03  0.175875987296E+02  0.158499340997E+02  0.136443567984E+03
  0.119973928551E+03  0.478130874167E+01  0.150266204505E+02  0.111779963117E+03
  0.869799508114E+01  0.559414698139E+01  0.898901932628E+01  0.597035317839E+01  0.326264879843E+01  0.646314586433E+01  0.921250559457E+01
  0.922940116946E+01  0.701883620188E+01  0.205392204632E+01  0.365490948111E+01  0.175398279661E+01  0.413067535365E+01  0.131162091784E+01
  0.456139612014E+01  0.375542408089E+01  0.865575841590E+01  0.638092348713E+01  0.176762598019E+01  0.248883721828E+02  0.694118468564E+01
  0.388852354652E+01  0.404633259368E+01  0.168334847742E+01  0.259822033539E+02  0.572555903044E+01  0.337770538452E+01  0.286846211547E+02
  0.251745805059E+02  0.208144934050E+01  0.364627267211E+01  0.234066845921E+02
 -0.104934845460E-01  0.774827068552E-02 -0.141222628769E+00  0.453217203711E-01 -0.107743514796E+00 -0.467111192874E-01 -0.443344280748E-01
  0.795005482464E-01 -0.547160818811E-01 -0.113541792620E-01  0.550670745168E-01 -0.758820988633E-02  0.783441038677E-01 -0.216308235976E-01
  0.136467948166E+00  0.174736782912E-02 -0.718877153914E-02  0.183773054279E-01 -0.481830491196E-01 -0.982516692036E-02  0.190062228792E-01
 -0.472495042810E-01 -0.537123721543E-01  0.952435937788E-01 -0.272130604769E+00 -0.190836521342E-01  0.404462492802E-01  0.723967928766E-01
  0.150777351217E+00 -0.397828917291E-02 -0.221831694485E-01 -0.126835701052E-01
 -0.838019604079E+01 -0.809880737290E+01 -0.847014719333E+01 -0.806686536372E+01 -0.724984084213E+01 -0.821736618450E+01 -0.857327861116E+01
 -0.849925541858E+01 -0.850151664801E+01 -0.693933850624E+01 -0.735912815050E+01 -0.547184198335E+01 -0.766453307882E+01 -0.581801460415E+01
 -0.395138819011E+01 -0.422186836947E+01 -0.842519972069E+01 -0.817715319755E+01 -0.595606589225E+01 -0.179338147881E+01 -0.369727505035E+01
 -0.428607290168E+01 -0.755915854839E+01 -0.595991372814E+01 -0.176272933371E+01 -0.813549717293E+01 -0.416220419087E+01 -0.163134724788E+01
 -0.192810994383E+01 -0.672474953063E+01 -0.434133860198E+01 -0.195048048429E+01
 -0.933367619210E+01 -0.645063854284E+01 -0.959849069656E+01 -0.678809868605E+01 -0.342561076435E+01 -0.724549126760E+01 -0.991905714338E+01
 -0.985982840233E+01 -0.782595665927E+01 -0.136339609293E+01 -0.400582943290E+01 -0.161961840893E+01 -0.458736813622E+01 -0.374885304009E+00
 -0.859978267970E+01 -0.646879387717E+01 -0.934759972352E+01 -0.728740870825E+01 -0.145050628683E+01 -0.498931499415E+02 -0.134262535881E+02
 -0.719127035768E+01 -0.439030251054E+01 -0.127850591364E+01 -0.514822643179E+02 -0.679242347037E+01 -0.604704115632E+01 -0.570125779201E+02
 -0.500363018189E+02 -0.145505308071E+01 -0.582502386606E+01 -0.465160688754E+02
        12        19        11        11
        11         5        12        12
        10        14         5         5
        19        13        11        11
        19        24        13        13
        30        23        24        24
        19        12        22        22
        28        22        21        21
        11        13         6         6
         7         6         9         9
        15        12        14        14
        18        13        23        23
        15        25        21        21
        27        19        22        22
        18         8         9         9
        27        31        24        24
         4        11         6         6
         5        14        12        12
         4         2         5         5
        21        12        15        15
        14        16        15        15
        24        19        27        27
        22        29        27        27
        23        26        18        18
        17         8        18        18
         5        11         4         4
         6         3         4         4
        26        23        30        30
         5         2        10        10
        16        14        10        10
         3         6         7         7
        21        25        28        28
        29        22        28        28
         6        13         9         9
         2         4         1         1
        31        27        32        32
        25        15        20        20
        24        23        13        13
         8         7         9         9
        13        18         9         9
        31        30        24        24
        12        21        22        22
        29        32        27        27
         3         1         4         4
        26        17        18        18
        16        20        15        15
zone t="boundary 2 bc-2", solutiontime= 0.4000000E+02, strandid=1002, i=33, j=48, f=feblock
  0.500195255313E+01  0.375034812201E+01  0.249861146354E+01  0.288036675733E+01  0.124717526151E+01  0.190856699606E+01  0.326577190793E+01
  0.201394857590E+01 -0.338396965251E-02  0.962374261034E+00  0.500000000000E+01  0.403430190133E+01  0.423029563300E+01  0.500000000000E+01
  0.385439188555E+01  0.500000000000E+01  0.398133432910E+01  0.315200081434E+01  0.266958029510E+01  0.154798030854E+01  0.218327860925E+01
  0.893688451288E+00  0.000000000000E+00  0.699009769630E+00  0.964460904435E+00  0.310303671669E+01  0.000000000000E+00  0.000000000000E+00
  0.125000000000E+01  0.500000000000E+01  0.375000000000E+01  0.250000000000E+01  0.000000000000E+00
 -0.249658901620E+01 -0.249658901620E+01 -0.249658901620E+01 -0.249658901620E+01 -0.249658901620E+01 -0.249658901620E+01 -0.249658901620E+01
 -0.249658901620E+01 -0.249658901620E+01 -0.249658901620E+01 -0.249658901620E+01 -0.249658901620E+01 -0.249658901620E+01 -0.249658901620E+01
 -0.249658901620E+01 -0.249658901620E+01 -0.249658901620E+01 -0.249658901620E+01 -0.249658901620E+01 -0.249658901620E+01 -0.249658901620E+01
 -0.249658901620E+01 -0.249658901620E+01 -0.249658901620E+01 -0.249658901620E+01 -0.249658901620E+01 -0.249658901620E+01 -0.249658901620E+01
 -0.249658901620E+01 -0.249658901620E+01 -0.249658901620E+01 -0.249658901620E+01 -0.249658901620E+01
  0.108209237191E-03  0.145875487893E-03  0.100909957516E-03  0.901663357824E+00  0.110895828141E-03  0.714928325670E+00  0.188140643916E+01
  0.175892163457E+01  0.811362586350E-04  0.957504305816E+00  0.125000000000E+01  0.100596693416E+01  0.191313516265E+01  0.250000000000E+01
  0.292898094244E+01  0.375000000000E+01  0.406883368474E+01  0.363389287837E+01  0.284756858001E+01  0.292582306272E+01  0.395754053293E+01
  0.205027256174E+01  0.125000000000E+01  0.306703271839E+01  0.397155765835E+01  0.433068621090E+01  0.250000000000E+01  0.375000000000E+01
  0.500000000000E+01  0.500000000000E+01  0.500000000000E+01  0.500000000000E+01  0.500000000000E+01
  0.500013676998E+00  0.500030724005E+00  0.500027799541E+00  0.500017522361E+00  0.500015385480E+00  0.500014538827E+00  0.500007342474E+00
  0.500003664484E+00  0.499982049496E+00  0.499999307946E+00  0.500004491847E+00  0.500015759779E+00  0.500005777901E+00  0.500001474538E+00
  0.500001734294E+00  0.500000427033E+00  0.499999911699E+00  0.500000045460E+00  0.500001223002E+00  0.499998439589E+00  0.499998537069E+00
  0.499997005536E+00  0.499989731792E+00  0.499996821482E+00  0.499997507780E+00  0.499998949588E+00  0.499994947581E+00  0.499997102831E+00
  0.499997349625E+00  0.500000070105E+00  0.499998661549E+00  0.499997668322E+00  0.499998157431E+00
  0.999999642210E+00  0.999998314080E+00  0.999997764198E+00  0.999999289128E+00  0.999999767276E+00  0.100000001676E+01  0.999999818206E+00
  0.100000065162E+01  0.100000836147E+01  0.100000218891E+01  0.100000090483E+01  0.999999460288E+00  0.100000019693E+01  0.100000061226E+01
  0.100000032385E+01  0.100000038408E+01  0.100000041917E+01  0.100000048659E+01  0.100000053264E+01  0.100000096943E+01  0.100000070526E+01
  0.100000163250E+01  0.100000370047E+01  0.100000126750E+01  0.100000090728E+01  0.100000055815E+01  0.100000176985E+01  0.100000100452E+01
  0.100000073887E+01  0.100000029407E+01  0.100000050089E+01  0.100000068226E+01  0.100000058992E+01
  0.327161635694E+02  0.283154957542E+02  0.263521501432E+02  0.207578928853E+02  0.249229273710E+02  0.211730043888E+02  0.157477225923E+02
  0.148292890748E+02  0.232106023037E+02  0.185023013052E+02  0.206289402184E+02  0.214424885653E+02  0.168502100990E+02  0.144989331760E+02
  0.111375427516E+02  0.100371512026E+02  0.749205867532E+01  0.888804014047E+01  0.106686939562E+02  0.550080993192E+01  0.110748149677E+02
  0.123369512916E+02  0.175875987296E+02  0.502718492251E+01  0.171665973997E+02  0.135777480470E+02  0.478130874167E+01  0.150266204505E+02
  0.989834914022E+02  0.111520186299E+02  0.427322255455E+02  0.842928067748E+02  0.111779963117E+03
 -0.735716984770E+01  0.235046144554E+01  0.666420560175E+01  0.159367380989E+01  0.832440442281E+01  0.460379488581E+01 -0.139382651298E+01
  0.115590973727E+01  0.865575841590E+01  0.509517288796E+01 -0.495088844933E+01 -0.122697405698E+01 -0.274798448608E+01 -0.346222131238E+01
 -0.282851561207E+01 -0.222899679775E+01 -0.303895974810E+01 -0.262520894272E+01 -0.181679634971E+01 -0.108499511230E+01 -0.145612128457E+01
  0.211931292695E+01  0.572555903044E+01  0.685113966021E-01  0.155774435252E+01 -0.169723371584E+01  0.208144934050E+01  0.364627267211E+01
  0.176943118401E+02 -0.587257292867E+00  0.411438187980E+01  0.128819162791E+02  0.234066845921E+02
 -0.459171529483E+00 -0.291964394244E+00 -0.651872600533E-01 -0.343747361053E-01 -0.224795783533E-01 -0.130795795296E-01  0.294420959583E-01
  0.469433502101E-01 -0.718877153914E-02 -0.634437894628E-02 -0.860078423278E-01 -0.322198606880E-01 -0.231574126548E-01 -0.471866094621E-01
 -0.467142306886E-01  0.379023184299E-01 -0.390357114852E-01  0.164227093523E-01  0.414881331012E-01  0.806138607930E-01  0.807835868898E-02
 -0.477786584480E-01 -0.190836521342E-01 -0.260647139375E-01 -0.423294664302E-01  0.834583042394E-02 -0.397828917291E-02 -0.221831694485E-01
 -0.498445622622E-03  0.697521065504E-02  0.828440318391E-02 -0.110601454084E-01 -0.126835701052E-01
 -0.278369185124E+01 -0.629051904850E+01 -0.787831023521E+01 -0.614016681126E+01 -0.788070860975E+01 -0.696583613689E+01 -0.407325847534E+01
 -0.560820549659E+01 -0.842519972069E+01 -0.723126494804E+01 -0.197849414064E+01 -0.462991747099E+01 -0.248921834502E+01 -0.672572043979E+00
 -0.231290936427E+01 -0.608730561113E+00 -0.201040044582E+01 -0.310811089321E+01 -0.395677273316E+01 -0.477952427024E+01 -0.362535324221E+01
 -0.618732967890E+01 -0.813549717293E+01 -0.510716090956E+01 -0.394708094705E+01 -0.303271163697E+01 -0.672474953063E+01 -0.434133860198E+01
 -0.265995336407E+01 -0.118586844606E+01 -0.263703791575E+01 -0.303126884134E+01 -0.195048048429E+01
 -0.652893436971E+01 -0.869323978740E+01 -0.960853589769E+01 -0.636536467847E+01 -0.972396060591E+01 -0.742441134769E+01 -0.396274568841E+01
 -0.446694890775E+01 -0.934759972352E+01 -0.680490302555E+01 -0.420711941050E+01 -0.589458132464E+01 -0.394059081814E+01 -0.297829413966E+01
 -0.213336956492E+01 -0.213983505468E+01 -0.100686530342E+01 -0.157973393451E+01 -0.233222812138E+01 -0.794329838550E+00 -0.279780952262E+01
 -0.408598361393E+01 -0.679242347037E+01 -0.111413951924E+01 -0.598728675526E+01 -0.364436145994E+01 -0.145505308071E+01 -0.582502386606E+01
 -0.402158030045E+02 -0.335333093954E+01 -0.159545487082E+02 -0.334464426253E+02 -0.465160688754E+02
        15         7        19        19
         8        20        19        19
        18        19        21        21
         7         4         8         8
         3         6         4         4
        19         7         8         8
        19        18        15        15
        14        13        15        15
         8        22        20        20
        27        24        22        22
        19        20        21        21
        32        26        21        21
        17        18        26        26
        17        16        15        15
        25        29        21        21
        12         7        13        13
        10         8         6         6
        25        20        24        24
         4         6         8         8
        12         2         4         4
        10        23        22        22
        26        31        17        17
        30        16        17        17
         4         7        12        12
        13        11        12        12
        21        20        25        25
        24        28        25        25
        22         8        10        10
         6         5        10        10
        31        26        32        32
         4         2         3         3
         5         6         3         3
        11        13        14        14
        22        23        27        27
        28        24        27        27
        15        13         7         7
         2        12         1         1
        29        25        33        33
        23        10         9         9
        21        26        18        18
        16        14        15        15
        18        17        15        15
        29        32        21        21
        22        24        20        20
        28        33        25        25
        11         1        12        12
        31        30        17        17
         5         9        10        10
zone t="boundary 3 bc-3", solutiontime= 0.4000000E+02, strandid=1003, i=33, j=48, f=feblock
  0.375059100022E+01  0.249769609016E+01  0.500322139356E+01  0.403612222763E+01  0.287976775181E+01  0.124541907693E+01  0.190552236756E+01
  0.500000000000E+01  0.326671106333E+01  0.423253756071E+01  0.201271138087E+01 -0.547472452772E-02  0.958895628158E+00  0.500000000000E+01
  0.266968148532E+01  0.385584487668E+01  0.890374213116E+00  0.154654014519E+01  0.000000000000E+00  0.500000000000E+01  0.315261137241E+01
  0.218304200095E+01  0.398195307874E+01  0.000000000000E+00  0.697379955531E+00  0.963757281441E+00  0.125000000000E+01  0.000000000000E+00
  0.500000000000E+01  0.310330738720E+01  0.250000000000E+01  0.375000000000E+01  0.000000000000E+00
  0.250494200518E+01  0.250494200518E+01  0.250494200518E+01  0.250494200518E+01  0.250494200518E+01  0.250494200518E+01  0.250494200518E+01
  0.250494200518E+01  0.250494200518E+01  0.250494200518E+01  0.250494200518E+01  0.250494200518E+01  0.250494200518E+01  0.250494200518E+01
  0.250494200518E+01  0.250494200518E+01  0.250494200518E+01  0.250494200518E+01  0.250494200518E+01  0.250494200518E+01  0.250494200518E+01
  0.250494200518E+01  0.250494200518E+01  0.250494200518E+01  0.250494200518E+01  0.250494200518E+01  0.250494200518E+01  0.250494200518E+01
  0.250494200518E+01  0.250494200518E+01  0.250494200518E+01  0.250494200518E+01  0.250494200518E+01
  0.135457002285E-03  0.109983637804E-03  0.964506780631E-04  0.101756739734E+01  0.908094462101E+00  0.103842397884E-03  0.722629008326E+00
  0.125000000000E+01  0.188965653795E+01  0.191862692309E+01  0.176708233165E+01  0.803216924785E-04  0.969652538178E+00  0.250000000000E+01
  0.285339429033E+01  0.293325055335E+01  0.205656222194E+01  0.293157014693E+01  0.125000000000E+01  0.375000000000E+01  0.363766836446E+01
  0.396069443367E+01  0.407056384269E+01  0.250000000000E+01  0.307031994182E+01  0.397359819531E+01  0.500000000000E+01  0.375000000000E+01
  0.500000000000E+01  0.433260780167E+01  0.500000000000E+01  0.500000000000E+01  0.500000000000E+01
  0.500026428483E+00  0.500032419246E+00  0.500006862582E+00  0.500012675829E+00  0.500016790694E+00  0.500005515514E+00  0.500011116478E+00
  0.500003733998E+00  0.500006808641E+00  0.500005363108E+00  0.500002980941E+00  0.499981206172E+00  0.499995995245E+00  0.500001545865E+00
  0.500001067063E+00  0.500001776043E+00  0.499997120852E+00  0.499998507319E+00  0.499991118348E+00  0.500000541056E+00  0.499999909999E+00
  0.499998556582E+00  0.499999838719E+00  0.499995300091E+00  0.499997100276E+00  0.499997636821E+00  0.499997394909E+00  0.499997301467E+00
  0.500000060877E+00  0.499998929370E+00  0.499997760436E+00  0.499998686680E+00  0.499998204572E+00
  0.999997964296E+00  0.999995086830E+00  0.100000150102E+01  0.999999543333E+00  0.999999196217E+00  0.100000275892E+01  0.100000006398E+01
  0.100000070756E+01  0.999999894343E+00  0.100000004711E+01  0.100000060249E+01  0.100000535959E+01  0.100000239388E+01  0.100000049308E+01
  0.100000047118E+01  0.100000028575E+01  0.100000141342E+01  0.100000097400E+01  0.100000311693E+01  0.100000033967E+01  0.100000046231E+01
  0.100000068491E+01  0.100000038434E+01  0.100000165055E+01  0.100000115855E+01  0.100000085007E+01  0.100000071260E+01  0.100000095003E+01
  0.100000027348E+01  0.100000053168E+01  0.100000066520E+01  0.100000047449E+01  0.100000057268E+01
  0.280454188320E+02  0.258015977115E+02  0.330861029633E+02  0.212185185107E+02  0.211176730528E+02  0.254536056206E+02  0.209674082842E+02
  0.209899222549E+02  0.156280198432E+02  0.160194167523E+02  0.150407675713E+02  0.231469866640E+02  0.182180190564E+02  0.138271821989E+02
  0.112369491999E+02  0.123707540806E+02  0.111378189205E+02  0.677304992795E+01  0.166580843941E+02  0.102339295494E+02  0.872544370694E+01
  0.953384052726E+01  0.787157797010E+01  0.455115951305E+01  0.353126337515E+01  0.233422063242E+02  0.865804292223E+02  0.165791246196E+02
  0.934726121311E+01  0.121701122222E+02  0.783181719736E+02  0.412543790859E+02  0.119815614165E+03
  0.318479019681E+01  0.658765639341E+01 -0.766041833462E+01 -0.947880221439E+00  0.209848506085E+01  0.880195629670E+01  0.462836538077E+01
 -0.511465627952E+01 -0.157548166564E+01 -0.288862660917E+01  0.998223768690E+00  0.869799508114E+01  0.507416204601E+01 -0.333799821744E+01
 -0.153018992337E+01 -0.256852146657E+01  0.180519817613E+01 -0.748740018259E+00  0.559414698139E+01 -0.239889253787E+01 -0.256875795933E+01
 -0.178469447721E+01 -0.288425777099E+01  0.205392204632E+01 -0.273446784753E+00  0.290809610726E+01  0.151508498537E+02  0.375542408089E+01
 -0.905164839265E+00 -0.195526817438E+01  0.117952823142E+02  0.393322511323E+01  0.248883721828E+02
  0.141858047681E+00  0.410063492211E-01  0.273250578431E+00 -0.205318833590E+00 -0.220801279076E+00  0.721891308630E-02 -0.177411266544E-02
  0.787774920847E-01  0.451393931708E-01  0.316682335041E-01 -0.340589124557E-01 -0.104934845460E-01  0.242834802882E-01 -0.567628608642E-01
 -0.692382279011E-01  0.113630611936E-01  0.205174806816E-01 -0.662680464495E-01  0.774827068552E-02 -0.434990109005E-01 -0.154887231437E-01
 -0.285121601444E-01  0.832270908301E-03 -0.113541792620E-01  0.279346437063E-01  0.533199813753E-01 -0.332385105727E-01  0.174736782912E-02
 -0.224439827351E-01 -0.180383074285E-02 -0.828008485515E-02 -0.525340401497E-02 -0.982516692036E-02
 -0.665252167405E+01 -0.776404685151E+01 -0.312825603190E+01 -0.511830590643E+01 -0.638472234988E+01 -0.776030946700E+01 -0.710473439848E+01
 -0.196979410406E+01 -0.408440982193E+01 -0.238123260681E+01 -0.558418011303E+01 -0.838019604079E+01 -0.716313698896E+01 -0.726165399249E+00
 -0.393101216195E+01 -0.231543141373E+01 -0.619771745801E+01 -0.485474238530E+01 -0.809880737290E+01 -0.778491497779E+00 -0.300610666854E+01
 -0.370281124206E+01 -0.208533116735E+01 -0.693933850624E+01 -0.506004323401E+01 -0.396594490685E+01 -0.273462152951E+01 -0.422186836947E+01
 -0.108608405744E+01 -0.290071217811E+01 -0.302763947561E+01 -0.261738208515E+01 -0.179338147881E+01
 -0.870941360750E+01 -0.935926310248E+01 -0.636805041453E+01 -0.588633298983E+01 -0.667240297327E+01 -0.100611958280E+02 -0.738103751211E+01
 -0.426481224919E+01 -0.388660631331E+01 -0.362594077990E+01 -0.450311858100E+01 -0.933367619210E+01 -0.673827793540E+01 -0.281368687499E+01
 -0.260524361792E+01 -0.266506581437E+01 -0.356146271518E+01 -0.131659125182E+01 -0.645063854284E+01 -0.211766537762E+01 -0.153170646669E+01
 -0.214209082711E+01 -0.120443964263E+01 -0.136339609293E+01 -0.529234568096E+00 -0.860127364323E+01 -0.349633808844E+02 -0.646879387717E+01
 -0.262197701428E+01 -0.307920047585E+01 -0.309744687701E+02 -0.153572575926E+02 -0.498931499415E+02
        15         9        16        16
        15        18        11        11
        22        15        21        21
        11         5         9         9
         5         7         2         2
        11         9        15        15
        16        21        15        15
        16        10        14        14
        18        17        11        11
        17        25        24        24
        22        18        15        15
        22        30        31        31
        30        21        23        23
        16        20        23        23
        22        27        26        26
        10         9         4         4
         7        11        13        13
        25        18        26        26
        11         7         5         5
         5         1         4         4
        17        19        13        13
        23        32        30        30
        23        20        29        29
         4         9         5         5
         4         8        10        10
        26        18        22        22
        26        28        25        25
        13        11        17        17
        13         6         7         7
        31        30        32        32
         2         1         5         5
         2         7         6         6
        14        10         8         8
        24        19        17        17
        24        25        28        28
         9        10        16        16
         3         4         1         1
        33        26        27        27
        12        13        19        19
        21        30        22        22
        16        14        20        20
        16        23        21        21
        22        31        27        27
        18        25        17        17
        26        33        28        28
         4         3         8         8
        23        29        32        32
        13        12         6         6
zone t="boundary 4 bc-4", solutiontime= 0.4000000E+02, strandid=1004, i=32, j=46, f=feblock
  0.125000000000E+01  0.219251206392E+01  0.103724302461E+01  0.500000000000E+01  0.250000000000E+01  0.375000000000E+01  0.404200324774E+01
  0.500000000000E+01  0.000000000000E+00  0.310152362409E+01  0.202479342020E+01  0.324151231464E+01  0.922061490191E+00  0.000000000000E+00
  0.299062775774E+01  0.394624082883E+01  0.500000000000E+01  0.409252726285E+01  0.500000000000E+01  0.429310310915E+01  0.175434191980E+01
  0.284428995242E+01  0.000000000000E+00  0.000000000000E+00  0.715990576545E+00  0.930412228790E+00  0.125000000000E+01  0.187029682677E+01
  0.500000000000E+01  0.375000000000E+01  0.250000000000E+01  0.000000000000E+00
  0.250494200518E+01  0.157686156160E+01  0.146289271009E+01  0.250494200518E+01  0.250494200518E+01  0.250494200518E+01  0.155830813274E+01
  0.125000000000E+01  0.250494200518E+01  0.177790177481E+01  0.477386199275E+00  0.742988685424E+00  0.308372018325E+00  0.125000000000E+01
 -0.487811078581E+00 -0.144524380962E+01 -0.125000000000E+01 -0.345533899378E+00  0.000000000000E+00  0.627766083140E+00 -0.739814786992E+00
 -0.158811787973E+01  0.000000000000E+00 -0.125000000000E+01 -0.600232012419E+00 -0.154800130438E+01 -0.249658901620E+01 -0.178862290564E+01
 -0.249658901620E+01 -0.249658901620E+01 -0.249658901620E+01 -0.249658901620E+01
  0.500000000000E+01  0.500000000000E+01  0.500000000000E+01  0.500000000000E+01  0.500000000000E+01  0.500000000000E+01  0.500000000000E+01
  0.500000000000E+01  0.500000000000E+01  0.500000000000E+01  0.500000000000E+01  0.500000000000E+01  0.500000000000E+01  0.500000000000E+01
  0.500000000000E+01  0.500000000000E+01  0.500000000000E+01  0.500000000000E+01  0.500000000000E+01  0.500000000000E+01  0.500000000000E+01
  0.500000000000E+01  0.500000000000E+01  0.500000000000E+01  0.500000000000E+01  0.500000000000E+01  0.500000000000E+01  0.500000000000E+01
  0.500000000000E+01  0.500000000000E+01  0.500000000000E+01  0.500000000000E+01
  0.499997394909E+00  0.499997614018E+00  0.499997613608E+00  0.500000060877E+00  0.499997760436E+00  0.499998686680E+00  0.499998898069E+00
  0.500000080922E+00  0.499998204572E+00  0.499998161846E+00  0.499997546137E+00  0.499998205093E+00  0.499997811256E+00  0.499998439681E+00
  0.499998038958E+00  0.499998859625E+00  0.499999940624E+00  0.499998892092E+00  0.500000071183E+00  0.499999108849E+00  0.499997426388E+00
  0.499997927732E+00  0.499998469765E+00  0.499998327883E+00  0.499997933909E+00  0.499997665118E+00  0.499997349625E+00  0.499997387404E+00
  0.500000070105E+00  0.499998661549E+00  0.499997668322E+00  0.499998157431E+00
  0.100000071260E+01  0.100000069159E+01  0.100000065448E+01  0.100000027348E+01  0.100000066520E+01  0.100000047449E+01  0.100000043275E+01
  0.100000026682E+01  0.100000057268E+01  0.100000057562E+01  0.100000070766E+01  0.100000057291E+01  0.100000062178E+01  0.100000054456E+01
  0.100000061871E+01  0.100000044943E+01  0.100000026416E+01  0.100000044976E+01  0.100000026532E+01  0.100000040564E+01  0.100000075001E+01
  0.100000064330E+01  0.100000053273E+01  0.100000055921E+01  0.100000060264E+01  0.100000065382E+01  0.100000073887E+01  0.100000074438E+01
  0.100000029407E+01  0.100000050089E+01  0.100000068226E+01  0.100000058992E+01
  0.865804292223E+02  0.826665790259E+02  0.878370440019E+02  0.934726121311E+01  0.783181719736E+02  0.412543790859E+02  0.287936389373E+02
  0.924328569863E+01  0.119815614165E+03  0.640549041307E+02  0.883595645750E+02  0.604954967705E+02  0.107980827396E+03  0.123489138681E+03
  0.687840006514E+02  0.280816806122E+02  0.107389988575E+02  0.357655607095E+02  0.872340600789E+01  0.357071178018E+02  0.110737802523E+03
  0.650398034932E+02  0.136443567984E+03  0.119973928551E+03  0.126910496013E+03  0.996112603469E+02  0.989834914022E+02  0.102915643497E+03
  0.111520186299E+02  0.427322255455E+02  0.842928067748E+02  0.111779963117E+03