title="tecplot geometry and solution file"
variables = x y z mach temperature lambda1 lambda2 lambda3 lambda4 lambda5
zone t="boundary 1 bc-1", solutiontime= 0.5000000E+02, strandid=1001, i=32, j=46, f=feblock
 -0.547472452772E-02  0.000000000000E+00 -0.567610116354E-02  0.000000000000E+00  0.000000000000E+00  0.000000000000E+00 -0.525162568575E-02
 -0.425778988008E-02  0.000000000000E+00  0.000000000000E+00  0.000000000000E+00  0.000000000000E+00  0.000000000000E+00  0.000000000000E+00
  0.000000000000E+00  0.000000000000E+00 -0.338396965251E-02  0.000000000000E+00  0.000000000000E+00  0.000000000000E+00  0.000000000000E+00
  0.000000000000E+00  0.000000000000E+00  0.000000000000E+00  0.000000000000E+00  0.000000000000E+00  0.000000000000E+00  0.000000000000E+00
  0.000000000000E+00  0.000000000000E+00  0.000000000000E+00  0.000000000000E+00
  0.250494200518E+01  0.250494200518E+01  0.127822174353E+01  0.146289271009E+01  0.157686156160E+01  0.308372018325E+00  0.261950149565E-01
 -0.122573467301E+01 -0.600232012419E+00  0.250494200518E+01  0.477386199275E+00  0.742988685424E+00 -0.739814786992E+00  0.177790177481E+01
  0.155830813274E+01  0.250494200518E+01 -0.249658901620E+01 -0.154800130438E+01 -0.487811078581E+00  0.250494200518E+01  0.627766083140E+00
 -0.345533899378E+00 -0.178862290564E+01 -0.158811787973E+01  0.125000000000E+01 -0.249658901620E+01 -0.144524380962E+01  0.000000000000E+00
 -0.125000000000E+01 -0.249658901620E+01 -0.249658901620E+01 -0.249658901620E+01
  0.803216924785E-04  0.125000000000E+01  0.822205278517E-04  0.103724302461E+01  0.219251206392E+01  0.922061490191E+00  0.103877881505E-03
  0.341876513122E-04  0.715990576545E+00  0.250000000000E+01  0.202479342020E+01  0.324151231464E+01  0.175434191980E+01  0.310152362409E+01
  0.404200324774E+01  0.375000000000E+01  0.811362586350E-04  0.930412228790E+00  0.299062775774E+01  0.500000000000E+01  0.429310310915E+01
  0.409252726285E+01  0.187029682677E+01  0.284428995242E+01  0.500000000000E+01  0.125000000000E+01  0.394624082883E+01  0.500000000000E+01
  0.500000000000E+01  0.250000000000E+01  0.375000000000E+01  0.500000000000E+01
  0.499981206172E+00  0.499991118348E+00  0.499981230533E+00  0.499988898606E+00  0.499994293982E+00  0.499986890137E+00  0.499980034591E+00
  0.499978035812E+00  0.499984817147E+00  0.499995300091E+00  0.499993474129E+00  0.499996491933E+00  0.499991673269E+00  0.499996421204E+00
  0.499997489029E+00  0.499997301467E+00  0.499982049496E+00  0.499985451310E+00  0.499995812565E+00  0.499998204572E+00  0.499997804495E+00
  0.499997536087E+00  0.499993011081E+00  0.499995350029E+00  0.499998439681E+00  0.499989731792E+00  0.499997291580E+00  0.499998469765E+00
  0.499998327883E+00  0.499994947581E+00  0.499997102831E+00  0.499998157431E+00
  0.100000535959E+01  0.100000311693E+01  0.100000597590E+01  0.100000364217E+01  0.100000195380E+01  0.100000402884E+01  0.100000822559E+01
  0.100001092492E+01  0.100000511527E+01  0.100000165055E+01  0.100000226103E+01  0.100000124782E+01  0.100000270965E+01  0.100000128260E+01
  0.100000084133E+01  0.100000095003E+01  0.100000836147E+01  0.100000449886E+01  0.100000143616E+01  0.100000057268E+01  0.100000077696E+01
  0.100000086546E+01  0.100000257771E+01  0.100000151568E+01  0.100000054456E+01  0.100000370047E+01  0.100000091472E+01  0.100000053273E+01
  0.100000055921E+01  0.100000176985E+01  0.100000100452E+01  0.100000058992E+01
  0.231469969788E+02  0.166580986524E+02  0.237764854073E+02  0.175572645987E+02  0.955622833434E+01  0.186926965710E+02  0.244888727487E+02
  0.243088961694E+02  0.200470175643E+02  0.455113916881E+01  0.108836679733E+02  0.499476731948E+01  0.123057127766E+02  0.206627866744E+01
  0.219237007744E+02  0.165791870705E+02  0.232105838658E+02  0.187769747854E+02  0.463093548230E+01  0.119815476179E+03  0.334228662885E+02
  0.185423476448E+02  0.118302068556E+02  0.435931647912E+01  0.123488909244E+03  0.175875897081E+02  0.158499835253E+02  0.136443131120E+03
  0.119973776675E+03  0.478132037429E+01  0.150266497466E+02  0.111779877631E+03
  0.869799758670E+01  0.559414907752E+01  0.898900986363E+01  0.597035985443E+01  0.326264229034E+01  0.646315579461E+01  0.921250423764E+01
  0.922938439837E+01  0.701883667403E+01  0.205391744971E+01  0.365490553191E+01  0.175398007854E+01  0.413066550470E+01  0.131162119233E+01
  0.456140124789E+01  0.375543731998E+01  0.865574146621E+01  0.638094378299E+01  0.176761817853E+01  0.248883584694E+02  0.694121913445E+01
  0.388858800373E+01  0.404632756474E+01  0.168334119493E+01  0.259821672396E+02  0.572556501551E+01  0.337770675921E+01  0.286845405446E+02
  0.251745561141E+02  0.208145328173E+01  0.364627470008E+01  0.234066827170E+02
 -0.104935337455E-01  0.774834251668E-02 -0.141224405613E+00  0.453227633708E-01 -0.107743600601E+00 -0.467104222817E-01 -0.443360200723E-01
  0.795037606332E-01 -0.547182239837E-01 -0.113542567454E-01  0.550665699652E-01 -0.758645505283E-02  0.783441286146E-01 -0.216316756732E-01
  0.136469182384E+00  0.174784011237E-02 -0.718886912275E-02  0.183747543694E-01 -0.481834043352E-01 -0.982493395255E-02  0.190163088179E-01
 -0.472464167198E-01 -0.537116995422E-01  0.952447410203E-01 -0.272134319260E+00 -0.190836807251E-01  0.404448205418E-01  0.723859886695E-01
  0.150770640587E+00 -0.397816519587E-02 -0.221834823087E-01 -0.126836362383E-01
 -0.838019751502E+01 -0.809880658312E+01 -0.847015175890E+01 -0.806686666990E+01 -0.724983938874E+01 -0.821737026956E+01 -0.857327677811E+01
 -0.849925678022E+01 -0.850152198437E+01 -0.693933765750E+01 -0.735912586665E+01 -0.547185040712E+01 -0.766453089768E+01 -0.581801850916E+01
 -0.395138628044E+01 -0.422186267644E+01 -0.842520630255E+01 -0.817715299540E+01 -0.595607124378E+01 -0.179338406672E+01 -0.369726103181E+01
 -0.428606218296E+01 -0.755915850411E+01 -0.595991807140E+01 -0.176272607934E+01 -0.813549230245E+01 -0.416220575687E+01 -0.163133987079E+01
 -0.192810710817E+01 -0.672475248906E+01 -0.434133524409E+01 -0.195048044748E+01
 -0.933368072834E+01 -0.645064461291E+01 -0.959846026323E+01 -0.678811368258E+01 -0.342559890426E+01 -0.724551885657E+01 -0.991903397561E+01
 -0.985979192035E+01 -0.782596396992E+01 -0.136338741501E+01 -0.400582013300E+01 -0.161960926370E+01 -0.458735040504E+01 -0.374887694857E+00
 -0.859980940637E+01 -0.646882143757E+01 -0.934758966192E+01 -0.728744163303E+01 -0.145048856784E+01 -0.498930925739E+02 -0.134263290052E+02
 -0.719139197574E+01 -0.439028905090E+01 -0.127849664822E+01 -0.514821689637E+02 -0.679242068782E+01 -0.604706096359E+01 -0.570123940280E+02
 -0.500362374719E+02 -0.145505816612E+01 -0.582503648363E+01 -0.465160344156E+02
        12        19        11        11
        11         5        12        12
        10        14         5         5
        19        13        11        11
        19        24        13        13
        30        23        24        24
        19        12        22        22
        28        22        21        21
        11        13         6         6
         7         6         9         9
        15        12        14        14
        18        13        23        23
        15        25        21        21
        27        19        22        22
        18         8         9         9
        27        31        24        24
         4        11         6         6
         5        14        12        12
         4         2         5         5
        21        12        15        15
        14        16        15        15
        24        19        27        27
        22        29        27        27
        23        26        18        18
        17         8        18        18
         5        11         4         4
         6         3         4         4
        26        23        30        30
         5         2        10        10
        16        14        10        10
         3         6         7         7
        21        25        28        28
        29        22        28        28
         6        13         9         9
         2         4         1         1
        31        27        32        32
        25        15        20        20
        24        23        13        13
         8         7         9         9
        13        18         9         9
        31        30        24        24
        12        21        22        22
        29        32        27        27
         3         1         4         4
        26        17        18        18
        16        20        15        15
zone t="boundary 2 bc-2", solutiontime= 0.5000000E+02, strandid=1002, i=33, j=48, f=feblock
  0.500195255313E+01  0.375034812201E+01  0.249861146354E+01  0.288036675733E+01  0.124717526151E+01  0.190856699606E+01  0.326577190793E+01
  0.201394857590E+01 -0.338396965251E-02  0.962374261034E+00  0.500000000000E+01  0.403430190133E+01  0.423029563300E+01  0.500000000000E+01
  0.385439188555E+01  0.500000000000E+01  0.398133432910E+01  0.315200081434E+01  0.266958029510E+01  0.154798030854E+01  0.218327860925E+01
  0.893688451288E+00  0.000000000000E+00  0.699009769630E+00  0.964460904435E+00  0.310303671669E+01  0.000000000000E+00  0.000000000000E+00
  0.125000000000E+01  0.500000000000E+01  0.375000000000E+01  0.250000000000E+01  0.000000000000E+00
 -0.249658901620E+01 -0.249658901620E+01 -0.249658901620E+01 -0.249658901620E+01 -0.249658901620E+01 -0.249658901620E+01 -0.249658901620E+01
 -0.249658901620E+01 -0.249658901620E+01 -0.249658901620E+01 -0.249658901620E+01 -0.249658901620E+01 -0.249658901620E+01 -0.249658901620E+01
 -0.249658901620E+01 -0.249658901620E+01 -0.249658901620E+01 -0.249658901620E+01 -0.249658901620E+01 -0.249658901620E+01 -0.249658901620E+01
 -0.249658901620E+01 -0.249658901620E+01 -0.249658901620E+01 -0.249658901620E+01 -0.249658901620E+01 -0.249658901620E+01 -0.249658901620E+01
 -0.249658901620E+01 -0.249658901620E+01 -0.249658901620E+01 -0.249658901620E+01 -0.249658901620E+01
  0.108209237191E-03  0.145875487893E-03  0.100909957516E-03  0.901663357824E+00  0.110895828141E-03  0.714928325670E+00  0.188140643916E+01
  0.175892163457E+01  0.811362586350E-04  0.957504305816E+00  0.125000000000E+01  0.100596693416E+01  0.191313516265E+01  0.250000000000E+01
  0.292898094244E+01  0.375000000000E+01  0.406883368474E+01  0.363389287837E+01  0.284756858001E+01  0.292582306272E+01  0.395754053293E+01
  0.205027256174E+01  0.125000000000E+01  0.306703271839E+01  0.397155765835E+01  0.433068621090E+01  0.250000000000E+01  0.375000000000E+01
  0.500000000000E+01  0.500000000000E+01  0.500000000000E+01  0.500000000000E+01  0.500000000000E+01
  0.500013676998E+00  0.500030724005E+00  0.500027799541E+00  0.500017522361E+00  0.500015385480E+00  0.500014538827E+00  0.500007342474E+00
  0.500003664484E+00  0.499982049496E+00  0.499999307946E+00  0.500004491847E+00  0.500015759779E+00  0.500005777901E+00  0.500001474538E+00
  0.500001734294E+00  0.500000427033E+00  0.499999911699E+00  0.500000045460E+00  0.500001223002E+00  0.499998439589E+00  0.499998537069E+00
  0.499997005536E+00  0.499989731792E+00  0.499996821482E+00  0.499997507780E+00  0.499998949588E+00  0.499994947581E+00  0.499997102831E+00
  0.499997349625E+00  0.500000070105E+00  0.499998661549E+00  0.499997668322E+00  0.499998157431E+00
  0.999999642210E+00  0.999998314080E+00  0.999997764198E+00  0.999999289128E+00  0.999999767276E+00  0.100000001676E+01  0.999999818206E+00
  0.100000065162E+01  0.100000836147E+01  0.100000218891E+01  0.100000090483E+01  0.999999460288E+00  0.100000019693E+01  0.100000061226E+01
  0.100000032385E+01  0.100000038408E+01  0.100000041917E+01  0.100000048659E+01  0.100000053264E+01  0.100000096943E+01  0.100000070526E+01
  0.100000163250E+01  0.100000370047E+01  0.100000126750E+01  0.100000090728E+01  0.100000055815E+01  0.100000176985E+01  0.100000100452E+01
  0.100000073887E+01  0.100000029407E+01  0.100000050089E+01  0.100000068226E+01  0.100000058992E+01
  0.327161644809E+02  0.283155035801E+02  0.263520663280E+02  0.207579120897E+02  0.249231363755E+02  0.211729586465E+02  0.157477217285E+02
  0.148292842862E+02  0.232105838658E+02  0.185022688538E+02  0.206289407474E+02  0.214424827905E+02  0.168502107322E+02  0.144989327516E+02
  0.111375394524E+02  0.100371519286E+02  0.749205715332E+01  0.888804613227E+01  0.106686867545E+02  0.550082145440E+01  0.110748382664E+02
  0.123369653266E+02  0.175875897081E+02  0.502719877533E+01  0.171665938180E+02  0.135777585287E+02  0.478132037429E+01  0.150266497466E+02
  0.989833969798E+02  0.111520169747E+02  0.427322198922E+02  0.842928064541E+02  0.111779877631E+03
 -0.735716981213E+01  0.235046402526E+01  0.666418443717E+01  0.159367797321E+01  0.832446232021E+01  0.460378678851E+01 -0.139382637466E+01
  0.115590939365E+01  0.865574146621E+01  0.509516662781E+01 -0.495088795704E+01 -0.122697536018E+01 -0.274798406082E+01 -0.346222116269E+01
 -0.282851598045E+01 -0.222899669478E+01 -0.303896028748E+01 -0.262520843204E+01 -0.181679508617E+01 -0.108498867466E+01 -0.145612041216E+01
  0.211932290623E+01  0.572556501551E+01  0.685159405289E-01  0.155773703061E+01 -0.169723454527E+01  0.208145328173E+01  0.364627470008E+01
  0.176942966098E+02 -0.587257393429E+00  0.411438240812E+01  0.128819234728E+02  0.234066827170E+02
 -0.459171495861E+00 -0.291964464606E+00 -0.651871439317E-01 -0.343747662107E-01 -0.224792851275E-01 -0.130792889766E-01  0.294420632938E-01
  0.469431970174E-01 -0.718886912275E-02 -0.634405670258E-02 -0.860078365189E-01 -0.322198615705E-01 -0.231574204593E-01 -0.471865979772E-01
 -0.467142578443E-01  0.379023450875E-01 -0.390357561174E-01  0.164228007274E-01  0.414882188423E-01  0.806139450434E-01  0.807855791735E-02
 -0.477788305225E-01 -0.190836807251E-01 -0.260646296651E-01 -0.423296746184E-01  0.834579654195E-02 -0.397816519587E-02 -0.221834823087E-01
 -0.498751009637E-03  0.697521506821E-02  0.828437885941E-02 -0.110600863683E-01 -0.126836362383E-01
 -0.278369191438E+01 -0.629051841049E+01 -0.787831362331E+01 -0.614016757238E+01 -0.788070149880E+01 -0.696583643240E+01 -0.407325828677E+01
 -0.560820634631E+01 -0.842520630255E+01 -0.723126430865E+01 -0.197849424554E+01 -0.462991741042E+01 -0.248921845394E+01 -0.672572035025E+00
 -0.231290896910E+01 -0.608730630165E+00 -0.201040063868E+01 -0.310811043080E+01 -0.395677272804E+01 -0.477952252346E+01 -0.362535414661E+01
 -0.618732805409E+01 -0.813549230245E+01 -0.510715988767E+01 -0.394707987461E+01 -0.303271289928E+01 -0.672475248906E+01 -0.434133524409E+01
 -0.265995340554E+01 -0.118586827755E+01 -0.263703760360E+01 -0.303126805787E+01 -0.195048044748E+01
 -0.652893480323E+01 -0.869324324800E+01 -0.960849994930E+01 -0.636537291430E+01 -0.972405162133E+01 -0.742439247491E+01 -0.396274548568E+01
 -0.446694706303E+01 -0.934758966192E+01 -0.680488920483E+01 -0.420711980112E+01 -0.589457894436E+01 -0.394059121599E+01 -0.297829406745E+01
 -0.213336833680E+01 -0.213983535262E+01 -0.100686462597E+01 -0.157973647944E+01 -0.233222566901E+01 -0.794335892294E+00 -0.279781873155E+01
 -0.408599113978E+01 -0.679242068782E+01 -0.111414579847E+01 -0.598728406370E+01 -0.364436523656E+01 -0.145505816612E+01 -0.582503648363E+01
 -0.402157634820E+02 -0.335333037129E+01 -0.159545468598E+02 -0.334464443190E+02 -0.465160344156E+02
        15         7        19        19
         8        20        19        19
        18        19        21        21
         7         4         8         8
         3         6         4         4
        19         7         8         8
        19        18        15        15
        14        13        15        15
         8        22        20        20
        27        24        22        22
        19        20        21        21
        32        26        21        21
        17        18        26        26
        17        16        15        15
        25        29        21        21
        12         7        13        13
        10         8         6         6
        25        20        24        24
         4         6         8         8
        12         2         4         4
        10        23        22        22
        26        31        17        17
        30        16        17        17
         4         7        12        12
        13        11        12        12
        21        20        25        25
        24        28        25        25
        22         8        10        10
         6         5        10        10
        31        26        32        32
         4         2         3         3
         5         6         3         3
        11        13        14        14
        22        23        27        27
        28        24        27        27
        15        13         7         7
         2        12         1         1
        29        25        33        33
        23        10         9         9
        21        26        18        18
        16        14        15        15
        18        17        15        15
        29        32        21        21
        22        24        20        20
        28        33        25        25
        11         1        12        12
        31        30        17        17
         5         9        10        10
zone t="boundary 3 bc-3", solutiontime= 0.5000000E+02, strandid=1003, i=33, j=48, f=feblock
  0.375059100022E+01  0.249769609016E+01  0.500322139356E+01  0.403612222763E+01  0.287976775181E+01  0.124541907693E+01  0.190552236756E+01
  0.500000000000E+01  0.326671106333E+01  0.423253756071E+01  0.201271138087E+01 -0.547472452772E-02  0.958895628158E+00  0.500000000000E+01
  0.266968148532E+01  0.385584487668E+01  0.890374213116E+00  0.154654014519E+01  0.000000000000E+00  0.500000000000E+01  0.315261137241E+01
  0.218304200095E+01  0.398195307874E+01  0.000000000000E+00  0.697379955531E+00  0.963757281441E+00  0.125000000000E+01  0.000000000000E+00
  0.500000000000E+01  0.310330738720E+01  0.250000000000E+01  0.375000000000E+01  0.000000000000E+00
  0.250494200518E+01  0.250494200518E+01  0.250494200518E+01  0.250494200518E+01  0.250494200518E+01  0.250494200518E+01  0.250494200518E+01
  0.250494200518E+01  0.250494200518E+01  0.250494200518E+01  0.250494200518E+01  0.250494200518E+01  0.250494200518E+01  0.250494200518E+01
  0.250494200518E+01  0.250494200518E+01  0.250494200518E+01  0.250494200518E+01  0.250494200518E+01  0.250494200518E+01  0.250494200518E+01
  0.250494200518E+01  0.250494200518E+01  0.250494200518E+01  0.250494200518E+01  0.250494200518E+01  0.250494200518E+01  0.250494200518E+01
  0.250494200518E+01  0.250494200518E+01  0.250494200518E+01  0.250494200518E+01  0.250494200518E+01
  0.135457002285E-03  0.109983637804E-03  0.964506780631E-04  0.101756739734E+01  0.908094462101E+00  0.103842397884E-03  0.722629008326E+00
  0.125000000000E+01  0.188965653795E+01  0.191862692309E+01  0.176708233165E+01  0.803216924785E-04  0.969652538178E+00  0.250000000000E+01
  0.285339429033E+01  0.293325055335E+01  0.205656222194E+01  0.293157014693E+01  0.125000000000E+01  0.375000000000E+01  0.363766836446E+01
  0.396069443367E+01  0.407056384269E+01  0.250000000000E+01  0.307031994182E+01  0.397359819531E+01  0.500000000000E+01  0.375000000000E+01
  0.500000000000E+01  0.433260780167E+01  0.500000000000E+01  0.500000000000E+01  0.500000000000E+01
  0.500026428483E+00  0.500032419246E+00  0.500006862582E+00  0.500012675829E+00  0.500016790694E+00  0.500005515514E+00  0.500011116478E+00
  0.500003733998E+00  0.500006808641E+00  0.500005363108E+00  0.500002980941E+00  0.499981206172E+00  0.499995995245E+00  0.500001545865E+00
  0.500001067063E+00  0.500001776043E+00  0.499997120852E+00  0.499998507319E+00  0.499991118348E+00  0.500000541056E+00  0.499999909999E+00
  0.499998556582E+00  0.499999838719E+00  0.499995300091E+00  0.499997100276E+00  0.499997636821E+00  0.499997394909E+00  0.499997301467E+00
  0.500000060877E+00  0.499998929370E+00  0.499997760436E+00  0.499998686680E+00  0.499998204572E+00
  0.999997964296E+00  0.999995086830E+00  0.100000150102E+01  0.999999543333E+00  0.999999196217E+00  0.100000275892E+01  0.100000006398E+01
  0.100000070756E+01  0.999999894343E+00  0.100000004711E+01  0.100000060249E+01  0.100000535959E+01  0.100000239388E+01  0.100000049308E+01
  0.100000047118E+01  0.100000028575E+01  0.100000141342E+01  0.100000097400E+01  0.100000311693E+01  0.100000033967E+01  0.100000046231E+01
  0.100000068491E+01  0.100000038434E+01  0.100000165055E+01  0.100000115855E+01  0.100000085007E+01  0.100000071260E+01  0.100000095003E+01
  0.100000027348E+01  0.100000053168E+01  0.100000066520E+01  0.100000047449E+01  0.100000057268E+01
  0.280454194856E+02  0.258015917834E+02  0.330861027127E+02  0.212185144566E+02  0.211176719479E+02  0.254536137168E+02  0.209674061405E+02
  0.209899224139E+02  0.156280160282E+02  0.160194145662E+02  0.150407767862E+02  0.231469969788E+02  0.182179913008E+02  0.138271809885E+02
  0.112369505823E+02  0.123707576426E+02  0.111378211943E+02  0.677304395590E+01  0.166580986524E+02  0.102339294269E+02  0.872544324553E+01
  0.953383989939E+01  0.787157434293E+01  0.455113916881E+01  0.353124482585E+01  0.233422090963E+02  0.865804281981E+02  0.165791870705E+02
  0.934725964689E+01  0.121701242599E+02  0.783181509163E+02  0.412543807224E+02  0.119815476179E+03
  0.318479130098E+01  0.658765477474E+01 -0.766041756504E+01 -0.947882099057E+00  0.209848350981E+01  0.880196296103E+01  0.462836232146E+01
 -0.511465591276E+01 -0.157548246646E+01 -0.288862691110E+01  0.998224891365E+00  0.869799758670E+01  0.507415269509E+01 -0.333799824444E+01
 -0.153018877167E+01 -0.256852008367E+01  0.180519705611E+01 -0.748742445411E+00  0.559414907752E+01 -0.239889239896E+01 -0.256875765350E+01
 -0.178469596524E+01 -0.288425849833E+01  0.205391744971E+01 -0.273450476572E+00  0.290809636659E+01  0.151508407384E+02  0.375543731998E+01
 -0.905164906930E+00 -0.195526628108E+01  0.117952841465E+02  0.393322582550E+01  0.248883584694E+02
  0.141858007471E+00  0.410062800705E-01  0.273250528939E+00 -0.205318800738E+00 -0.220801331257E+00  0.721881839563E-02 -0.177418388321E-02
  0.787774751103E-01  0.451393421431E-01  0.316682324700E-01 -0.340589361625E-01 -0.104935337455E-01  0.242836689437E-01 -0.567628693561E-01
 -0.692382400458E-01  0.113630079676E-01  0.205178175218E-01 -0.662676671533E-01  0.774834251668E-02 -0.434990166370E-01 -0.154887488239E-01
 -0.285121349964E-01  0.832258804067E-03 -0.113542567454E-01  0.279346281472E-01  0.533203396047E-01 -0.332384273058E-01  0.174784011237E-02
 -0.224439881500E-01 -0.180382499114E-02 -0.828026286200E-02 -0.525337601630E-02 -0.982493395255E-02
 -0.665252149727E+01 -0.776404780009E+01 -0.312825608949E+01 -0.511830562073E+01 -0.638472210656E+01 -0.776030562873E+01 -0.710473549688E+01
 -0.196979394826E+01 -0.408441002436E+01 -0.238123279184E+01 -0.558418053462E+01 -0.838019751502E+01 -0.716313670759E+01 -0.726165413538E+00
 -0.393101215354E+01 -0.231543131431E+01 -0.619771595714E+01 -0.485474256552E+01 -0.809880658312E+01 -0.778491556328E+00 -0.300610650364E+01
 -0.370281149755E+01 -0.208533103335E+01 -0.693933765750E+01 -0.506004295432E+01 -0.396594508594E+01 -0.273461962442E+01 -0.422186267644E+01
 -0.108608400456E+01 -0.290071286895E+01 -0.302763960098E+01 -0.261738164138E+01 -0.179338406672E+01
 -0.870941414550E+01 -0.935926074590E+01 -0.636805066149E+01 -0.588633107077E+01 -0.667240232767E+01 -0.100611999350E+02 -0.738103624553E+01
 -0.426481245143E+01 -0.388660477502E+01 -0.362593996199E+01 -0.450312241960E+01 -0.933368072834E+01 -0.673826548079E+01 -0.281368647237E+01
 -0.260524441287E+01 -0.266506757204E+01 -0.356146338737E+01 -0.131658851999E+01 -0.645064461291E+01 -0.211766540859E+01 -0.153170644514E+01
 -0.214209031163E+01 -0.120443816162E+01 -0.136338741501E+01 -0.529226376013E+00 -0.860127499554E+01 -0.349633787659E+02 -0.646882143757E+01
 -0.262197645405E+01 -0.307920557971E+01 -0.309744609364E+02 -0.153572585797E+02 -0.498930925739E+02
        15         9        16        16
        15        18        11        11
        22        15        21        21
        11         5         9         9
         5         7         2         2
        11         9        15        15
        16        21        15        15
        16        10        14        14
        18        17        11        11
        17        25        24        24
        22        18        15        15
        22        30        31        31
        30        21        23        23
        16        20        23        23
        22        27        26        26
        10         9         4         4
         7        11        13        13
        25        18        26        26
        11         7         5         5
         5         1         4         4
        17        19        13        13
        23        32        30        30
        23        20        29        29
         4         9         5         5
         4         8        10        10
        26        18        22        22
        26        28        25        25
        13        11        17        17
        13         6         7         7
        31        30        32        32
         2         1         5         5
         2         7         6         6
        14        10         8         8
        24        19        17        17
        24        25        28        28
         9        10        16        16
         3         4         1         1
        33        26        27        27
        12        13        19        19
        21        30        22        22
        16        14        20        20
        16        23        21        21
        22        31        27        27
        18        25        17        17
        26        33        28        28
         4         3         8         8
        23        29        32        32
        13        12         6         6
zone t="boundary 4 bc-4", solutiontime= 0.5000000E+02, strandid=1004, i=32, j=46, f=feblock
  0.125000000000E+01  0.219251206392E+01  0.103724302461E+01  0.500000000000E+01  0.250000000000E+01  0.375000000000E+01  0.404200324774E+01
  0.500000000000E+01  0.000000000000E+00  0.310152362409E+01  0.202479342020E+01  0.324151231464E+01  0.922061490191E+00  0.000000000000E+00
  0.299062775774E+01  0.394624082883E+01  0.500000000000E+01  0.409252726285E+01  0.500000000000E+01  0.429310310915E+01  0.175434191980E+01
  0.284428995242E+01  0.000000000000E+00  0.000000000000E+00  0.715990576545E+00  0.930412228790E+00  0.125000000000E+01  0.187029682677E+01
  0.500000000000E+01  0.375000000000E+01  0.250000000000E+01  0.000000000000E+00
  0.250494200518E+01  0.157686156160E+01  0.146289271009E+01  0.250494200518E+01  0.250494200518E+01  0.250494200518E+01  0.155830813274E+01
  0.125000000000E+01  0.250494200518E+01  0.177790177481E+01  0.477386199275E+00  0.742988685424E+00  0.308372018325E+00  0.125000000000E+01
 -0.487811078581E+00 -0.144524380962E+01 -0.125000000000E+01 -0.345533899378E+00  0.000000000000E+00  0.627766083140E+00 -0.739814786992E+00
 -0.158811787973E+01  0.000000000000E+00 -0.125000000000E+01 -0.600232012419E+00 -0.154800130438E+01 -0.249658901620E+01 -0.178862290564E+01
 -0.249658901620E+01 -0.249658901620E+01 -0.249658901620E+01 -0.249658901620E+01
  0.500000000000E+01  0.500000000000E+01  0.500000000000E+01  0.500000000000E+01  0.500000000000E+01  0.500000000000E+01  0.500000000000E+01
  0.500000000000E+01  0.500000000000E+01  0.500000000000E+01  0.500000000000E+01  0.500000000000E+01  0.500000000000E+01  0.500000000000E+01
  0.500000000000E+01  0.500000000000E+01  0.500000000000E+01  0.500000000000E+01  0.500000000000E+01  0.500000000000E+01  0.500000000000E+01
  0.500000000000E+01  0.500000000000E+01  0.500000000000E+01  0.500000000000E+01  0.500000000000E+01  0.500000000000E+01  0.500000000000E+01
  0.500000000000E+01  0.500000000000E+01  0.500000000000E+01  0.500000000000E+01
  0.499997394909E+00  0.499997614018E+00  0.499997613608E+00  0.500000060877E+00  0.499997760436E+00  0.499998686680E+00  0.499998898069E+00
  0.500000080922E+00  0.499998204572E+00  0.499998161846E+00  0.499997546137E+00  0.499998205093E+00  0.499997811256E+00  0.499998439681E+00
  0.499998038958E+00  0.499998859625E+00  0.499999940624E+00  0.499998892092E+00  0.500000071183E+00  0.499999108849E+00  0.499997426388E+00
  0.499997927732E+00  0.499998469765E+00  0.499998327883E+00  0.499997933909E+00  0.499997665118E+00  0.499997349625E+00  0.499997387404E+00
  0.500000070105E+00  0.499998661549E+00  0.499997668322E+00  0.499998157431E+00
  0.100000071260E+01  0.100000069159E+01  0.100000065448E+01  0.100000027348E+01  0.100000066520E+01  0.100000047449E+01  0.100000043275E+01
  0.100000026682E+01  0.100000057268E+01  0.100000057562E+01  0.100000070766E+01  0.100000057291E+01  0.100000062178E+01  0.100000054456E+01
  0.100000061871E+01  0.100000044943E+01  0.100000026416E+01  0.100000044976E+01  0.100000026532E+01  0.100000040564E+01  0.100000075001E+01
  0.100000064330E+01  0.100000053273E+01  0.100000055921E+01  0.100000060264E+01  0.100000065382E+01  0.100000073887E+01  0.100000074438E+01
  0.100000029407E+01  0.100000050089E+01  0.100000068226E+01  0.100000058992E+01
  0.865804281981E+02  0.826665587924E+02  0.878370244051E+02  0.934725964689E+01  0.783181509163E+02  0.412543807224E+02  0.287936430503E+02
  0.924328492438E+01  0.119815476179E+03  0.640548731841E+02  0.883595729530E+02  0.604954875882E+02  0.107980653091E+03  0.123488909244E+03
  0.687839811346E+02  0.280816811570E+02  0.107389987118E+02  0.357655557499E+02  0.872340801484E+01  0.357071147025E+02  0.110737814346E+03
  0.650397595211E+02  0.136443131120E+03  0.119973776675E+03  0.126910404676E+03  0.996112533973E+02  0.989833969798E+02  0.102915591716E+03
  0.111520169747E+02  0.427322198922E+02  0.842928064541E+02  0.111779877631E+03