# vtk DataFile Version 2.0
FUN3D:global_image_vtk
ASCII
DATASET UNSTRUCTURED_GRID
POINTS 213 double
    0.0000000000000000E+00    0.2500000000000000E+01    0.0000000000000000E+00
    0.1250000000000000E+01    0.2500000000000000E+01    0.0000000000000000E+00
    0.2500000000000000E+01    0.2500000000000000E+01    0.0000000000000000E+00
    0.3750000000000000E+01    0.2500000000000000E+01    0.0000000000000000E+00
    0.5000000000000000E+01    0.2500000000000000E+01    0.0000000000000000E+00
    0.5000000000000000E+01    0.1250000000000000E+01    0.0000000000000000E+00
    0.5000000000000000E+01    0.0000000000000000E+00    0.0000000000000000E+00
    0.5000000000000000E+01   -0.1250000000000000E+01    0.0000000000000000E+00
    0.5000000000000000E+01   -0.2500000000000000E+01    0.0000000000000000E+00
    0.3750000000000000E+01   -0.2500000000000000E+01    0.0000000000000000E+00
    0.2500000000000000E+01   -0.2500000000000000E+01    0.0000000000000000E+00
    0.1250000000000000E+01   -0.2500000000000000E+01    0.0000000000000000E+00
    0.0000000000000000E+00   -0.2500000000000000E+01    0.0000000000000000E+00
    0.0000000000000000E+00   -0.1250000000000000E+01    0.0000000000000000E+00
    0.0000000000000000E+00    0.0000000000000000E+00    0.0000000000000000E+00
    0.0000000000000000E+00    0.1250000000000000E+01    0.0000000000000000E+00
    0.9058375365086910E+00    0.1578994732800803E+01    0.0000000000000000E+00
    0.3982050490726493E+01   -0.1583989954232354E+01    0.0000000000000000E+00
    0.4033849428301197E+01    0.1453322699199022E+01    0.0000000000000000E+00
    0.1040505887381675E+01   -0.1479596339503735E+01    0.0000000000000000E+00
    0.1099454400140349E+01   -0.3227322616384110E+00    0.0000000000000000E+00
    0.7354504170366591E+00    0.6593508822075582E+00    0.0000000000000000E+00
    0.1622302608453282E+01    0.8256214013940779E+00    0.0000000000000000E+00
    0.2145871574390382E+01   -0.1650070333782557E+01    0.0000000000000000E+00
    0.4086422318222992E+01   -0.4612828702537229E+00    0.0000000000000000E+00
    0.2979540174134984E+01   -0.8579242121530853E+00    0.0000000000000000E+00
    0.3045064261640043E+01   -0.1836846154397680E+01    0.0000000000000000E+00
    0.3428197553792836E+01    0.3508002863614053E+00    0.0000000000000000E+00
    0.4309693860063405E+01    0.5185680230613409E+00    0.0000000000000000E+00
    0.1827272193562204E+01    0.1738996113203182E+01    0.0000000000000000E+00
    0.2808563282768077E+01    0.1325493893339706E+01    0.0000000000000000E+00
    0.1895995683864404E+01   -0.8731419609589618E+00    0.0000000000000000E+00
    0.2273179336307740E+01    0.4906150219227333E-01    0.0000000000000000E+00
    0.5000000000000000E+01    0.2500000000000000E+01    0.1250000000000000E+01
    0.5000000000000000E+01    0.2500000000000000E+01    0.2500000000000000E+01
    0.5000000000000000E+01    0.2500000000000000E+01    0.3750000000000000E+01
    0.5000000000000000E+01    0.2500000000000000E+01    0.5000000000000000E+01
    0.3750000000000000E+01    0.2500000000000000E+01    0.5000000000000000E+01
    0.2500000000000000E+01    0.2500000000000000E+01    0.5000000000000000E+01
    0.1250000000000000E+01    0.2500000000000000E+01    0.5000000000000000E+01
    0.0000000000000000E+00    0.2500000000000000E+01    0.5000000000000000E+01
    0.0000000000000000E+00    0.2500000000000000E+01    0.3750000000000000E+01
    0.0000000000000000E+00    0.2500000000000000E+01    0.2500000000000000E+01
    0.0000000000000000E+00    0.2500000000000000E+01    0.1250000000000000E+01
    0.9631080833812172E+00    0.2500000000000000E+01    0.9613285771248219E+00
    0.3981732467264904E+01    0.2500000000000000E+01    0.4069753913607991E+01
    0.4035525118777670E+01    0.2500000000000000E+01    0.1012015867579395E+01
    0.9641717640894248E+00    0.2500000000000000E+01    0.3972455192261839E+01
    0.1547743040396780E+01    0.2500000000000000E+01    0.2928177746738678E+01
    0.6985170616192014E+00    0.2500000000000000E+01    0.3068281976055466E+01
    0.8931277594515110E+00    0.2500000000000000E+01    0.2052465503257726E+01
    0.2183293750162785E+01    0.2500000000000000E+01    0.3959073795658649E+01
    0.3855333506014705E+01    0.2500000000000000E+01    0.2931218481500625E+01
    0.3152495579421047E+01    0.2500000000000000E+01    0.3635850502723324E+01
    0.3103247580566054E+01    0.2500000000000000E+01    0.4331682712472464E+01
    0.3266837581688852E+01    0.2500000000000000E+01    0.1886092433583972E+01
    0.4231539241296245E+01    0.2500000000000000E+01    0.1915865356532799E+01
    0.1909741006522088E+01    0.2500000000000000E+01    0.7170024419130505E+00
    0.2880784107213163E+01    0.2500000000000000E+01    0.9046598906449592E+00
    0.2014316024535771E+01    0.2500000000000000E+01    0.1762464314805728E+01
    0.2670003247036656E+01    0.2500000000000000E+01    0.2850479545835163E+01
    0.5000000000000000E+01    0.1250000000000000E+01    0.5000000000000000E+01
    0.5000000000000000E+01    0.0000000000000000E+00    0.5000000000000000E+01
    0.5000000000000000E+01   -0.1250000000000000E+01    0.5000000000000000E+01
    0.5000000000000000E+01   -0.2500000000000000E+01    0.5000000000000000E+01
    0.5000000000000000E+01   -0.2500000000000000E+01    0.3750000000000000E+01
    0.5000000000000000E+01   -0.2500000000000000E+01    0.2500000000000000E+01
    0.5000000000000000E+01   -0.2500000000000000E+01    0.1250000000000000E+01
    0.5000000000000000E+01    0.1578994732800803E+01    0.9058375365086910E+00
    0.5000000000000000E+01   -0.1583989954232354E+01    0.3982050490726493E+01
    0.5000000000000000E+01    0.1453322699199022E+01    0.4033849428301197E+01
    0.5000000000000000E+01   -0.1479596339503735E+01    0.1040505887381675E+01
    0.5000000000000000E+01   -0.3227322616384110E+00    0.1099454400140349E+01
    0.5000000000000000E+01    0.6593508822075582E+00    0.7354504170366591E+00
    0.5000000000000000E+01    0.8256214013940779E+00    0.1622302608453282E+01
    0.5000000000000000E+01   -0.1650070333782557E+01    0.2145871574390382E+01
    0.5000000000000000E+01   -0.4612828702537229E+00    0.4086422318222992E+01
    0.5000000000000000E+01   -0.8579242121530853E+00    0.2979540174134984E+01
    0.5000000000000000E+01   -0.1836846154397680E+01    0.3045064261640043E+01
    0.5000000000000000E+01    0.3508002863614053E+00    0.3428197553792836E+01
    0.5000000000000000E+01    0.5185680230613409E+00    0.4309693860063405E+01
    0.5000000000000000E+01    0.1738996113203182E+01    0.1827272193562204E+01
    0.5000000000000000E+01    0.1325493893339706E+01    0.2808563282768077E+01
    0.5000000000000000E+01   -0.8731419609589618E+00    0.1895995683864404E+01
    0.5000000000000000E+01    0.4906150219227333E-01    0.2273179336307740E+01
    0.0000000000000000E+00    0.1250000000000000E+01    0.5000000000000000E+01
    0.0000000000000000E+00    0.0000000000000000E+00    0.5000000000000000E+01
    0.0000000000000000E+00   -0.1250000000000000E+01    0.5000000000000000E+01
    0.0000000000000000E+00   -0.2500000000000000E+01    0.5000000000000000E+01
    0.1250000000000000E+01   -0.2500000000000000E+01    0.5000000000000000E+01
    0.2500000000000000E+01   -0.2500000000000000E+01    0.5000000000000000E+01
    0.3750000000000000E+01   -0.2500000000000000E+01    0.5000000000000000E+01
    0.4042003247744892E+01    0.1558308132739014E+01    0.5000000000000000E+01
    0.9304122287900499E+00   -0.1548001304379777E+01    0.5000000000000000E+01
    0.1037243024609388E+01    0.1462892710085612E+01    0.5000000000000000E+01
    0.3946240828834967E+01   -0.1445243809615570E+01    0.5000000000000000E+01
    0.4092527262848217E+01   -0.3455338993778935E+00    0.5000000000000000E+01
    0.4293103109154542E+01    0.6277660831404320E+00    0.5000000000000000E+01
    0.3241512314643519E+01    0.7429886854239611E+00    0.5000000000000000E+01
    0.2844289952419609E+01   -0.1588117879734118E+01    0.5000000000000000E+01
    0.7159905765450471E+00   -0.6002320124191652E+00    0.5000000000000000E+01
    0.1754341919796891E+01   -0.7398147869923652E+00    0.5000000000000000E+01
    0.1870296826774691E+01   -0.1788622905643739E+01    0.5000000000000000E+01
    0.9220614901912976E+00    0.3083720183248586E+00    0.5000000000000000E+01
    0.3101523624086016E+01    0.1777901774806180E+01    0.5000000000000000E+01
    0.2192512063922564E+01    0.1576861561598471E+01    0.5000000000000000E+01
    0.2024793420196460E+01    0.4773861992750707E+00    0.5000000000000000E+01
    0.2990627757741975E+01   -0.4878110785814084E+00    0.5000000000000000E+01
    0.0000000000000000E+00   -0.2500000000000000E+01    0.1250000000000000E+01
    0.0000000000000000E+00   -0.2500000000000000E+01    0.2500000000000000E+01
    0.0000000000000000E+00   -0.2500000000000000E+01    0.3750000000000000E+01
    0.0000000000000000E+00    0.1558308132739014E+01    0.4042003247744892E+01
    0.0000000000000000E+00   -0.1548001304379777E+01    0.9304122287900499E+00
    0.0000000000000000E+00    0.1462892710085612E+01    0.1037243024609388E+01
    0.0000000000000000E+00   -0.1445243809615570E+01    0.3946240828834967E+01
    0.0000000000000000E+00   -0.3455338993778935E+00    0.4092527262848217E+01
    0.0000000000000000E+00    0.6277660831404320E+00    0.4293103109154542E+01
    0.0000000000000000E+00    0.7429886854239611E+00    0.3241512314643519E+01
    0.0000000000000000E+00   -0.1588117879734118E+01    0.2844289952419609E+01
    0.0000000000000000E+00   -0.6002320124191652E+00    0.7159905765450471E+00
    0.0000000000000000E+00   -0.7398147869923652E+00    0.1754341919796891E+01
    0.0000000000000000E+00   -0.1788622905643739E+01    0.1870296826774691E+01
    0.0000000000000000E+00    0.3083720183248586E+00    0.9220614901912976E+00
    0.0000000000000000E+00    0.1777901774806180E+01    0.3101523624086016E+01
    0.0000000000000000E+00    0.1576861561598471E+01    0.2192512063922564E+01
[...]
POINT_DATA 213
SCALARS p double 1
LOOKUP_TABLE default
   0.7142857142857143E+00
   0.7142857142857142E+00
   0.7142857142857143E+00
   0.7142857142857141E+00
   0.7142857142857143E+00
   0.7142857142857141E+00
   0.7142857142857142E+00
   0.7142857142857142E+00
   0.7142857142857139E+00
   0.7142857142857143E+00
   0.7142857142857142E+00
   0.7142857142857141E+00
   0.7142857142857143E+00
   0.7142857142857141E+00
   0.7142857142857143E+00
   0.7142857142857143E+00
   0.7142857142857143E+00
   0.7142857142857142E+00
   0.7142857142857143E+00
   0.7142857142857141E+00
   0.7142857142857144E+00
   0.7142857142857142E+00
   0.7142857142857143E+00
   0.7142857142857143E+00
   0.7142857142857143E+00
   0.7142857142857145E+00
   0.7142857142857143E+00
   0.7142857142857145E+00
   0.7142857142857145E+00
   0.7142857142857143E+00
   0.7142857142857141E+00
   0.7142857142857143E+00
   0.7142857142857144E+00
   0.7142857142857143E+00
   0.7142857142857141E+00
   0.7142857142857139E+00
   0.7142857142857141E+00
   0.7142857142857139E+00
   0.7142857142857142E+00
   0.7142857142857143E+00
   0.7142857142857143E+00
   0.7142857142857143E+00
   0.7142857142857142E+00
   0.7142857142857143E+00
   0.7142857142857143E+00
   0.7142857142857143E+00
   0.7142857142857143E+00
   0.7142857142857143E+00
   0.7142857142857143E+00
   0.7142857142857143E+00
   0.7142857142857143E+00
   0.7142857142857141E+00
   0.7142857142857142E+00
   0.7142857142857141E+00
   0.7142857142857143E+00
   0.7142857142857143E+00
   0.7142857142857142E+00
   0.7142857142857143E+00
   0.7142857142857143E+00
   0.7142857142857143E+00
   0.7142857142857143E+00
   0.7142857142857142E+00
   0.7142857142857141E+00
   0.7142857142857144E+00
   0.7142857142857145E+00
   0.7142857142857143E+00
   0.7142857142857142E+00
   0.7142857142857141E+00
   0.7142857142857143E+00
   0.7142857142857141E+00
   0.7142857142857143E+00
   0.7142857142857143E+00
   0.7142857142857143E+00
   0.7142857142857141E+00
   0.7142857142857137E+00
   0.7142857142857134E+00
   0.7142857142857139E+00
   0.7142857142857137E+00
   0.7142857142857142E+00
   0.7142857142857139E+00
   0.7142857142857143E+00
   0.7142857142857145E+00
   0.7142857142857146E+00
   0.7142857142857139E+00
   0.7142857142857143E+00
   0.7142857142857143E+00
   0.7142857142857143E+00
   0.7142857142857143E+00
   0.7142857142857143E+00
   0.7142857142857143E+00
   0.7142857142857139E+00
   0.7142857142857139E+00
   0.7142857142857139E+00
   0.7142857142857143E+00
   0.7142857142857141E+00
   0.7142857142857142E+00
   0.7142857142857147E+00
   0.7142857142857139E+00
   0.7142857142857139E+00
   0.7142857142857141E+00
   0.7142857142857146E+00
   0.7142857142857142E+00
   0.7142857142857142E+00
   0.7142857142857143E+00
   0.7142857142857142E+00
   0.7142857142857143E+00
   0.7142857142857141E+00
   0.7142857142857147E+00
   0.7142857142857143E+00
   0.7142857142857146E+00
   0.7142857142857142E+00
   0.7142857142857143E+00
   0.7142857142857143E+00
   0.7142857142857143E+00
   0.7142857142857141E+00
   0.7142857142857141E+00
   0.7142857142857143E+00
   0.7142857142857142E+00
   0.7142857142857142E+00
   0.7142857142857143E+00
   0.7142857142857143E+00
   0.7142857142857143E+00
   0.7142857142857143E+00
   0.7142857142857134E+00
   0.7142857142857143E+00
   0.7142857142857137E+00
   0.7142857142857141E+00
   0.7142857142857143E+00
   0.7142857142857143E+00
   0.7142857142857142E+00
   0.7142857142857143E+00
   0.7142857142857143E+00
   0.7142857142857142E+00
   0.7142857142857141E+00
   0.7142857142857143E+00
   0.7142857142857143E+00
   0.7142857142857143E+00
   0.7142857142857143E+00
   0.7142857142857143E+00
   0.7142857142857142E+00
   0.7142857142857143E+00
   0.7142857142857143E+00
   0.7142857142857143E+00
   0.7142857142857143E+00
   0.7142857142857143E+00
   0.7142857142857141E+00
   0.7142857142857143E+00
   0.7142857142857143E+00
   0.7142857142857143E+00
   0.7142857142857143E+00
   0.7142857142857143E+00
   0.7142857142857143E+00
   0.7142857142857143E+00
   0.7142857142857143E+00
   0.7142857142857143E+00
   0.7142857142857143E+00
   0.7142857142857143E+00
   0.7142857142857143E+00
   0.7142857142857143E+00
   0.7142857142857142E+00
   0.7142857142857143E+00
   0.7142857142857143E+00
   0.7142857142857143E+00
   0.7142857142857142E+00
   0.7142857142857143E+00
   0.7142857142857142E+00
   0.7142857142857143E+00
   0.7142857142857143E+00
   0.7142857142857142E+00
   0.7142857142857143E+00
   0.7142857142857143E+00
   0.7142857142857143E+00
   0.7142857142857143E+00
   0.7142857142857143E+00
   0.7142857142857143E+00
   0.7142857142857143E+00
   0.7142857142857143E+00
   0.7142857142857143E+00
   0.7142857142857143E+00
   0.7142857142857143E+00
   0.7142857142857143E+00
   0.7142857142857142E+00
   0.7142857142857143E+00
   0.7142857142857139E+00
   0.7142857142857143E+00
   0.7142857142857143E+00
   0.7142857142857144E+00
   0.7142857142857143E+00
   0.7142857142857143E+00
   0.7142857142857142E+00
   0.7142857142857143E+00
   0.7142857142857143E+00
   0.7142857142857143E+00
   0.7142857142857143E+00
   0.7142857142857143E+00
   0.7142857142857143E+00
   0.7142857142857143E+00
   0.7142857142857144E+00
   0.7142857142857143E+00
   0.7142857142857143E+00
   0.7142857142857143E+00
   0.7142857142857143E+00
   0.7142857142857142E+00
   0.7142857142857143E+00
   0.7142857142857143E+00
   0.7142857142857142E+00
   0.7142857142857142E+00
   0.7142857142857143E+00
   0.7142857142857143E+00
   0.7142857142857142E+00
   0.7142857142857143E+00
   0.7142857142857143E+00
   0.7142857142857143E+00
SCALARS mach double 1
LOOKUP_TABLE default
   0.4999999999999999E+00
   0.5000000000000002E+00
   0.5000000000000002E+00
   0.5000000000000000E+00
   0.4999999999999998E+00
   0.4999999999999995E+00
   0.5000000000000000E+00
   0.5000000000000003E+00
   0.5000000000000000E+00
   0.4999999999999999E+00
   0.5000000000000000E+00
   0.5000000000000001E+00
   0.4999999999999999E+00
   0.5000000000000000E+00
   0.5000000000000008E+00
   0.5000000000000001E+00
   0.5000000000000001E+00
   0.5000000000000002E+00
   0.4999999999999999E+00
   0.5000000000000001E+00
   0.5000000000000001E+00
   0.5000000000000002E+00
   0.5000000000000002E+00
   0.4999999999999999E+00
   0.5000000000000001E+00
   0.5000000000000000E+00
   0.4999999999999999E+00
   0.4999999999999999E+00
   0.5000000000000000E+00
   0.5000000000000002E+00
   0.5000000000000004E+00
   0.4999999999999999E+00
   0.5000000000000001E+00
   0.4999999999999997E+00
   0.5000000000000000E+00
   0.5000000000000001E+00
   0.5000000000000000E+00
   0.5000000000000001E+00
   0.4999999999999999E+00
   0.4999999999999999E+00
   0.5000000000000001E+00
   0.4999999999999997E+00
   0.5000000000000001E+00
   0.5000000000000000E+00
   0.4999999999999999E+00
   0.5000000000000002E+00
   0.5000000000000001E+00
   0.4999999999999999E+00
   0.4999999999999998E+00
   0.4999999999999999E+00
   0.5000000000000001E+00
   0.5000000000000000E+00
   0.5000000000000000E+00
   0.4999999999999999E+00
   0.4999999999999999E+00
   0.4999999999999999E+00
   0.5000000000000000E+00
   0.4999999999999999E+00
   0.4999999999999998E+00
   0.5000000000000000E+00
   0.4999999999999996E+00
   0.5000000000000000E+00
   0.4999999999999995E+00
   0.5000000000000001E+00
   0.5000000000000003E+00
   0.5000000000000002E+00
   0.4999999999999999E+00
   0.5000000000000000E+00
   0.4999999999999999E+00
   0.5000000000000004E+00
   0.5000000000000000E+00
   0.5000000000000001E+00
   0.5000000000000000E+00
   0.4999999999999997E+00
   0.4999999999999995E+00
   0.5000000000000001E+00
   0.5000000000000000E+00
   0.4999999999999999E+00
   0.5000000000000003E+00
   0.5000000000000000E+00
   0.5000000000000001E+00
   0.5000000000000003E+00
   0.5000000000000001E+00
   0.5000000000000000E+00
   0.5000000000000001E+00
   0.5000000000000000E+00
   0.4999999999999999E+00
   0.5000000000000001E+00
   0.5000000000000004E+00
   0.5000000000000001E+00
   0.5000000000000000E+00
   0.5000000000000001E+00
   0.5000000000000001E+00
   0.4999999999999999E+00
   0.5000000000000000E+00
   0.5000000000000001E+00
   0.5000000000000000E+00
   0.5000000000000000E+00
   0.5000000000000001E+00
   0.5000000000000000E+00
   0.5000000000000000E+00
   0.5000000000000000E+00
   0.5000000000000000E+00
   0.4999999999999999E+00
   0.5000000000000000E+00
   0.4999999999999998E+00
   0.5000000000000000E+00
   0.4999999999999998E+00
   0.4999999999999998E+00
   0.4999999999999992E+00
   0.5000000000000001E+00
   0.4999999999999999E+00
   0.5000000000000000E+00
   0.5000000000000000E+00
   0.5000000000000002E+00
   0.5000000000000004E+00
   0.4999999999999999E+00
   0.5000000000000003E+00
   0.5000000000000004E+00
   0.5000000000000001E+00
   0.5000000000000001E+00
   0.4999999999999996E+00
   0.5000000000000000E+00
   0.5000000000000010E+00
   0.5000000000000000E+00
   0.5000000000000004E+00
   0.5000000000000002E+00
   0.4999999999999998E+00
   0.5000000000000004E+00
   0.5000000000000001E+00
   0.5000000000000001E+00
   0.5000000000000001E+00
   0.5000000000000000E+00
   0.4999999999999998E+00
   0.5000000000000002E+00
   0.4999999999999999E+00
   0.5000000000000001E+00
   0.5000000000000001E+00
   0.5000000000000001E+00
   0.5000000000000003E+00
   0.4999999999999997E+00
   0.4999999999999999E+00
   0.5000000000000000E+00
   0.4999999999999999E+00
   0.5000000000000001E+00
   0.5000000000000003E+00
   0.5000000000000001E+00
   0.5000000000000000E+00
   0.5000000000000000E+00
   0.5000000000000001E+00
   0.5000000000000001E+00
   0.5000000000000001E+00
   0.4999999999999999E+00
   0.5000000000000001E+00
   0.4999999999999999E+00
   0.5000000000000000E+00
   0.4999999999999999E+00
   0.5000000000000000E+00
   0.5000000000000000E+00
   0.5000000000000000E+00
   0.5000000000000000E+00
   0.5000000000000001E+00
   0.4999999999999999E+00
   0.5000000000000001E+00
   0.4999999999999999E+00
   0.5000000000000000E+00
   0.5000000000000000E+00
   0.4999999999999999E+00
   0.5000000000000001E+00
   0.5000000000000001E+00
   0.5000000000000000E+00
   0.5000000000000001E+00
   0.5000000000000000E+00
   0.4999999999999998E+00
   0.5000000000000001E+00
   0.5000000000000000E+00
   0.5000000000000000E+00
   0.4999999999999999E+00
   0.5000000000000000E+00
   0.5000000000000001E+00
   0.5000000000000003E+00
   0.5000000000000000E+00
   0.4999999999999999E+00
   0.5000000000000002E+00
   0.4999999999999999E+00
   0.5000000000000000E+00
   0.5000000000000001E+00
   0.5000000000000000E+00
   0.4999999999999999E+00
   0.4999999999999999E+00
   0.5000000000000000E+00
   0.5000000000000000E+00
   0.4999999999999999E+00
   0.4999999999999999E+00
   0.5000000000000000E+00
   0.4999999999999999E+00
   0.5000000000000000E+00
   0.5000000000000001E+00
   0.5000000000000001E+00
   0.4999999999999999E+00
   0.4999999999999999E+00
   0.5000000000000001E+00
   0.4999999999999999E+00
   0.5000000000000000E+00
   0.5000000000000000E+00
   0.5000000000000000E+00
   0.5000000000000000E+00
   0.5000000000000001E+00
   0.5000000000000001E+00
   0.5000000000000000E+00
   0.5000000000000001E+00
   0.5000000000000001E+00
   0.4999999999999999E+00
SCALARS temperature double 1
LOOKUP_TABLE default
   0.1000000000000000E+01
   0.9999999999999999E+00
   0.1000000000000000E+01
   0.9999999999999997E+00
   0.9999999999999998E+00
   0.9999999999999997E+00
   0.9999999999999999E+00
   0.9999999999999998E+00
   0.9999999999999996E+00
   0.1000000000000000E+01
   0.9999999999999999E+00
   0.9999999999999999E+00
   0.1000000000000000E+01
   0.9999999999999998E+00
   0.1000000000000000E+01
   0.1000000000000000E+01
   0.1000000000000000E+01
   0.1000000000000000E+01
   0.9999999999999998E+00
   0.1000000000000000E+01
   0.1000000000000000E+01
   0.1000000000000000E+01
   0.9999999999999998E+00
   0.1000000000000000E+01
   0.1000000000000000E+01
   0.9999999999999998E+00
   0.9999999999999998E+00
   0.9999999999999998E+00
   0.9999999999999998E+00
   0.1000000000000000E+01
   0.9999999999999997E+00
   0.1000000000000000E+01
   0.9999999999999998E+00
   0.1000000000000000E+01
   0.9999999999999998E+00
   0.9999999999999994E+00
   0.9999999999999998E+00
   0.9999999999999997E+00
   0.9999999999999996E+00
   0.1000000000000000E+01
   0.9999999999999998E+00
   0.9999999999999996E+00
   0.9999999999999996E+00
   0.1000000000000000E+01
   0.1000000000000000E+01
   0.1000000000000000E+01
   0.9999999999999998E+00
   0.1000000000000000E+01
   0.1000000000000000E+01
   0.1000000000000000E+01
   0.1000000000000000E+01
   0.1000000000000000E+01
   0.9999999999999999E+00
   0.9999999999999999E+00
   0.1000000000000000E+01
   0.1000000000000000E+01
   0.9999999999999999E+00
   0.1000000000000000E+01
   0.1000000000000000E+01
   0.1000000000000000E+01
   0.1000000000000000E+01
   0.9999999999999999E+00
   0.9999999999999999E+00
   0.9999999999999998E+00
   0.9999999999999998E+00
   0.9999999999999998E+00
   0.1000000000000000E+01
   0.1000000000000000E+01
   0.1000000000000000E+01
   0.9999999999999998E+00
   0.1000000000000000E+01
   0.1000000000000000E+01
   0.1000000000000000E+01
   0.9999999999999997E+00
   0.9999999999999999E+00
   0.9999999999999998E+00
   0.9999999999999998E+00
   0.9999999999999999E+00
   0.1000000000000000E+01
   0.9999999999999996E+00
   0.1000000000000000E+01
   0.1000000000000000E+01
   0.1000000000000000E+01
   0.9999999999999999E+00
   0.1000000000000000E+01
   0.9999999999999998E+00
   0.9999999999999996E+00
   0.1000000000000000E+01
   0.9999999999999998E+00
   0.1000000000000000E+01
   0.9999999999999998E+00
   0.9999999999999997E+00
   0.9999999999999997E+00
   0.1000000000000000E+01
   0.9999999999999998E+00
   0.1000000000000000E+01
   0.1000000000000000E+01
   0.9999999999999998E+00
   0.9999999999999997E+00
   0.9999999999999999E+00
   0.1000000000000000E+01
   0.1000000000000000E+01
   0.9999999999999999E+00
   0.9999999999999998E+00
   0.9999999999999999E+00
   0.9999999999999998E+00
   0.9999999999999998E+00
   0.1000000000000000E+01
   0.1000000000000000E+01
   0.1000000000000000E+01
   0.1000000000000000E+01
   0.1000000000000000E+01
   0.1000000000000000E+01
   0.9999999999999996E+00
   0.9999999999999999E+00
   0.9999999999999997E+00
   0.1000000000000000E+01
   0.9999999999999998E+00
   0.9999999999999999E+00
   0.1000000000000000E+01
   0.1000000000000000E+01
   0.1000000000000000E+01
   0.1000000000000000E+01
   0.9999999999999999E+00
   0.9999999999999998E+00
   0.9999999999999999E+00
   0.9999999999999999E+00
   0.1000000000000000E+01
   0.9999999999999996E+00
   0.1000000000000000E+01
   0.1000000000000000E+01
   0.1000000000000000E+01
   0.9999999999999998E+00
   0.9999999999999997E+00
   0.1000000000000000E+01
   0.1000000000000000E+01
   0.1000000000000000E+01
   0.1000000000000000E+01
   0.1000000000000000E+01
   0.9999999999999999E+00
   0.1000000000000000E+01
   0.1000000000000000E+01
   0.1000000000000000E+01
   0.1000000000000000E+01
   0.1000000000000000E+01
   0.9999999999999998E+00
   0.1000000000000000E+01
   0.1000000000000000E+01
   0.1000000000000000E+01
   0.1000000000000000E+01
   0.1000000000000000E+01
   0.1000000000000000E+01
   0.1000000000000000E+01
   0.1000000000000000E+01
   0.1000000000000000E+01
   0.1000000000000000E+01
   0.1000000000000000E+01
   0.1000000000000000E+01
   0.1000000000000000E+01
   0.9999999999999999E+00
   0.1000000000000000E+01
   0.9999999999999998E+00
   0.1000000000000000E+01
   0.1000000000000000E+01
   0.1000000000000000E+01
   0.9999999999999999E+00
   0.1000000000000000E+01
   0.1000000000000000E+01
   0.9999999999999998E+00
   0.1000000000000000E+01
   0.1000000000000000E+01
   0.1000000000000000E+01
   0.1000000000000000E+01
   0.1000000000000000E+01
   0.1000000000000000E+01
   0.1000000000000000E+01
   0.1000000000000000E+01
   0.1000000000000000E+01
   0.1000000000000000E+01
   0.1000000000000000E+01
   0.1000000000000000E+01
   0.9999999999999998E+00
   0.1000000000000000E+01
   0.9999999999999996E+00
   0.1000000000000000E+01
   0.1000000000000000E+01
   0.1000000000000000E+01
   0.1000000000000000E+01
   0.1000000000000000E+01
   0.1000000000000000E+01
   0.1000000000000000E+01
   0.1000000000000000E+01
   0.9999999999999998E+00
   0.1000000000000000E+01
   0.1000000000000000E+01
   0.1000000000000000E+01
   0.1000000000000000E+01
   0.1000000000000000E+01
   0.1000000000000000E+01
   0.1000000000000000E+01
   0.1000000000000000E+01
   0.1000000000000000E+01
   0.1000000000000000E+01
   0.1000000000000000E+01
   0.1000000000000000E+01
   0.9999999999999999E+00
   0.9999999999999999E+00
   0.1000000000000000E+01
   0.1000000000000000E+01
   0.9999999999999998E+00
   0.1000000000000000E+01
   0.1000000000000000E+01
   0.1000000000000000E+01
SCALARS lambda1 double 1
LOOKUP_TABLE default
  -0.1199152531337524E-01
  -0.1637669227075424E-01
  -0.1657153693454578E-01
  -0.1659704613753141E-01
  -0.1440628304649582E-03
  -0.1749953929092994E-02
  -0.2186136529434393E-02
  -0.9890895119708148E-03
   0.4551902382125558E-03
  -0.8618739442917127E-02
  -0.2457194910472461E-01
  -0.3001888764059159E-01
  -0.1678480173806852E-01
  -0.1841945854789872E-01
  -0.2502838794612416E-01
  -0.1804579600502229E-01
  -0.2771031479826917E-01
  -0.7828832494251330E-02
  -0.3988224965115993E-02
  -0.8075306194316454E-02
  -0.1158051152600714E-01
  -0.2255525031886546E-01
  -0.1255282605346013E-01
  -0.7921321470695864E-02
  -0.5601449708727851E-02
  -0.9487289448374738E-02
  -0.4878046677498167E-02
  -0.7214483140930978E-02
  -0.3764014824267024E-02
  -0.1635770761658251E-01
  -0.9279260909232014E-02
  -0.7775645887050531E-02
  -0.1538219708599894E-01
  -0.3103998895980954E-03
  -0.2914242434151384E-04
  -0.1771569309075863E-04
  -0.1594807592103416E-04
  -0.1844348245481651E-04
  -0.4211172537630517E-05
  -0.3386123278758938E-04
   0.4574097997956358E-04
  -0.6234661853932306E-03
   0.1844195384946611E-02
   0.3633729027766043E-02
   0.2804011891617868E-02
  -0.1509676367559321E-04
   0.4116722452354382E-02
  -0.1635079981619535E-03
   0.9963566108600089E-04
   0.6360310763054014E-04
   0.2336125759552143E-02
  -0.9155015516224753E-04
  -0.6272560341623028E-05
   0.2104165358812455E-04
   0.7976417273449757E-06
   0.4165056435040641E-03
  -0.8030367879698667E-04
   0.3402377459741870E-02
   0.7971709040048694E-02
   0.4517998447732700E-02
  -0.3770112066486591E-03
  -0.9199709099286126E-05
  -0.9639577550442655E-05
  -0.1702164107516593E-04
  -0.1299213123231453E-04
  -0.1276197558580330E-04
  -0.2469103154537970E-04
   0.1953771220910614E-04
  -0.3183616146952287E-03
  -0.1063182125946313E-04
  -0.1366176074040921E-04
   0.1178295223063336E-02
   0.7538034801777866E-03
   0.1088907712718622E-02
   0.6057630758920800E-05
  -0.4032967812176439E-04
  -0.1276804059925832E-04
  -0.2258202699718121E-04
  -0.1396391414237264E-04
  -0.1835295639294005E-04
  -0.1459020290895898E-04
  -0.1652316404197964E-04
  -0.7643887186290447E-05
   0.8117329828025770E-04
  -0.2895299809464279E-06
   0.1987349572006485E-04
   0.4129104570120659E-04
  -0.1673310570609926E-04
  -0.1307859982709936E-03
  -0.2887769017788524E-04
  -0.2061567218190486E-04
  -0.1584403352671815E-04
  -0.1088455419032349E-04
  -0.1477797360692411E-04
   0.5525794903028349E-04
  -0.1549338034389613E-04
  -0.9618511789479909E-05
  -0.7741506695001430E-05
  -0.5298652062851499E-05
  -0.1587771240315702E-04
   0.1190439588839172E-03
  -0.6781280501167513E-04
  -0.3643772992552462E-04
   0.1161289975755238E-03
  -0.1404307413350119E-04
   0.7465357742843315E-06
  -0.2857119951007304E-04
  -0.5139582263383731E-05
   0.3975696862290861E-02
   0.1508019583800215E-02
  -0.2470250043728355E-03
  -0.3753786605849180E-03
   0.6455618799325969E-02
   0.4865062729311492E-02
  -0.2173514335323265E-03
  -0.3538147652935459E-03
  -0.3482439850122594E-03
  -0.4135705925993343E-04
   0.4639359228179930E-03
   0.4965655464041789E-02
   0.3203587056467811E-02
   0.2601573675631702E-02