title="tecplot geometry and solution file"
variables = x y z mach temperature lambda1 lambda2 lambda3 lambda4 lambda5
zone t="boundary 1 bc-1", solutiontime= 0.1000000E+03, strandid=1001, i=32, j=46, f=feblock
 -0.547472452772E-02  0.000000000000E+00 -0.567610116354E-02  0.000000000000E+00  0.000000000000E+00  0.000000000000E+00 -0.525162568575E-02
 -0.425778988008E-02  0.000000000000E+00  0.000000000000E+00  0.000000000000E+00  0.000000000000E+00  0.000000000000E+00  0.000000000000E+00
  0.000000000000E+00  0.000000000000E+00 -0.338396965251E-02  0.000000000000E+00  0.000000000000E+00  0.000000000000E+00  0.000000000000E+00
  0.000000000000E+00  0.000000000000E+00  0.000000000000E+00  0.000000000000E+00  0.000000000000E+00  0.000000000000E+00  0.000000000000E+00
  0.000000000000E+00  0.000000000000E+00  0.000000000000E+00  0.000000000000E+00
  0.250494200518E+01  0.250494200518E+01  0.127822174353E+01  0.146289271009E+01  0.157686156160E+01  0.308372018325E+00  0.261950149565E-01
 -0.122573467301E+01 -0.600232012419E+00  0.250494200518E+01  0.477386199275E+00  0.742988685424E+00 -0.739814786992E+00  0.177790177481E+01
  0.155830813274E+01  0.250494200518E+01 -0.249658901620E+01 -0.154800130438E+01 -0.487811078581E+00  0.250494200518E+01  0.627766083140E+00
 -0.345533899378E+00 -0.178862290564E+01 -0.158811787973E+01  0.125000000000E+01 -0.249658901620E+01 -0.144524380962E+01  0.000000000000E+00
 -0.125000000000E+01 -0.249658901620E+01 -0.249658901620E+01 -0.249658901620E+01
  0.803216924785E-04  0.125000000000E+01  0.822205278517E-04  0.103724302461E+01  0.219251206392E+01  0.922061490191E+00  0.103877881505E-03
  0.341876513122E-04  0.715990576545E+00  0.250000000000E+01  0.202479342020E+01  0.324151231464E+01  0.175434191980E+01  0.310152362409E+01
  0.404200324774E+01  0.375000000000E+01  0.811362586350E-04  0.930412228790E+00  0.299062775774E+01  0.500000000000E+01  0.429310310915E+01
  0.409252726285E+01  0.187029682677E+01  0.284428995242E+01  0.500000000000E+01  0.125000000000E+01  0.394624082883E+01  0.500000000000E+01
  0.500000000000E+01  0.250000000000E+01  0.375000000000E+01  0.500000000000E+01
  0.499981206172E+00  0.499991118348E+00  0.499981230533E+00  0.499988898606E+00  0.499994293982E+00  0.499986890137E+00  0.499980034591E+00
  0.499978035812E+00  0.499984817147E+00  0.499995300091E+00  0.499993474129E+00  0.499996491933E+00  0.499991673269E+00  0.499996421204E+00
  0.499997489029E+00  0.499997301467E+00  0.499982049496E+00  0.499985451310E+00  0.499995812565E+00  0.499998204572E+00  0.499997804495E+00
  0.499997536087E+00  0.499993011081E+00  0.499995350029E+00  0.499998439681E+00  0.499989731792E+00  0.499997291580E+00  0.499998469765E+00
  0.499998327883E+00  0.499994947581E+00  0.499997102831E+00  0.499998157431E+00
  0.100000535959E+01  0.100000311693E+01  0.100000597590E+01  0.100000364217E+01  0.100000195380E+01  0.100000402884E+01  0.100000822559E+01
  0.100001092492E+01  0.100000511527E+01  0.100000165055E+01  0.100000226103E+01  0.100000124782E+01  0.100000270965E+01  0.100000128260E+01
  0.100000084133E+01  0.100000095003E+01  0.100000836147E+01  0.100000449886E+01  0.100000143616E+01  0.100000057268E+01  0.100000077696E+01
  0.100000086546E+01  0.100000257771E+01  0.100000151568E+01  0.100000054456E+01  0.100000370047E+01  0.100000091472E+01  0.100000053273E+01
  0.100000055921E+01  0.100000176985E+01  0.100000100452E+01  0.100000058992E+01
  0.231469975072E+02  0.166580984359E+02  0.237764844959E+02  0.175572644139E+02  0.955622894298E+01  0.186926985390E+02  0.244888690128E+02
  0.243088904001E+02  0.200470189702E+02  0.455113916447E+01  0.108836678090E+02  0.499476513439E+01  0.123057144111E+02  0.206627870420E+01
  0.219237028976E+02  0.165791867684E+02  0.232105877694E+02  0.187769748269E+02  0.463093339537E+01  0.119815473330E+03  0.334228724621E+02
  0.185423513818E+02  0.118302066086E+02  0.435931661988E+01  0.123488903397E+03  0.175875873908E+02  0.158499853714E+02  0.136443120790E+03
  0.119973774979E+03  0.478131987844E+01  0.150266505582E+02  0.111779874482E+03
  0.869799774640E+01  0.559414901329E+01  0.898900976737E+01  0.597035979641E+01  0.326264242683E+01  0.646315628013E+01  0.921250359605E+01
  0.922938307194E+01  0.701883699336E+01  0.205391747939E+01  0.365490552963E+01  0.175397961296E+01  0.413066584310E+01  0.131162123283E+01
  0.456140168663E+01  0.375543734193E+01  0.865574218312E+01  0.638094389739E+01  0.176761772407E+01  0.248883579627E+02  0.694122068266E+01
  0.388858914478E+01  0.404632755199E+01  0.168334121835E+01  0.259821660526E+02  0.572556459517E+01  0.337770699711E+01  0.286845382895E+02
  0.251745559157E+02  0.208145327055E+01  0.364627479558E+01  0.234066823242E+02
 -0.104935422136E-01  0.774834629395E-02 -0.141224562637E+00  0.453228467637E-01 -0.107743533105E+00 -0.467103405571E-01 -0.443360378680E-01
  0.795039007562E-01 -0.547182520046E-01 -0.113542557833E-01  0.550665754563E-01 -0.758649950917E-02  0.783440962140E-01 -0.216316736110E-01
  0.136469212422E+00  0.174786094988E-02 -0.718885789083E-02  0.183746800615E-01 -0.481834548319E-01 -0.982492058475E-02  0.190164509979E-01
 -0.472464396683E-01 -0.537117395472E-01  0.952447023832E-01 -0.272134368640E+00 -0.190836879825E-01  0.404446996509E-01  0.723860795311E-01
  0.150770721486E+00 -0.397816330755E-02 -0.221834977624E-01 -0.126836463405E-01
 -0.838019750404E+01 -0.809880660719E+01 -0.847015181029E+01 -0.806686675200E+01 -0.724983930565E+01 -0.821737036876E+01 -0.857327694189E+01
 -0.849925688201E+01 -0.850152209591E+01 -0.693933755090E+01 -0.735912573896E+01 -0.547185067749E+01 -0.766453088014E+01 -0.581801857311E+01
 -0.395138630374E+01 -0.422186257583E+01 -0.842520620932E+01 -0.817715304696E+01 -0.595607136905E+01 -0.179338405389E+01 -0.369726079287E+01
 -0.428606203235E+01 -0.755915854651E+01 -0.595991819287E+01 -0.176272590472E+01 -0.813549216484E+01 -0.416220569027E+01 -0.163133957077E+01
 -0.192810701217E+01 -0.672475258595E+01 -0.434133510663E+01 -0.195048040823E+01
 -0.933368096834E+01 -0.645064453335E+01 -0.959845987437E+01 -0.678811360895E+01 -0.342559916505E+01 -0.724551973746E+01 -0.991903244068E+01
 -0.985978947029E+01 -0.782596459560E+01 -0.136338742113E+01 -0.400582007276E+01 -0.161960832915E+01 -0.458735109155E+01 -0.374887722998E+00
 -0.859981034992E+01 -0.646882134541E+01 -0.934759130483E+01 -0.728744168878E+01 -0.145048767479E+01 -0.498930913578E+02 -0.134263317582E+02
 -0.719139370161E+01 -0.439028895613E+01 -0.127849670361E+01 -0.514821664943E+02 -0.679241970511E+01 -0.604706174595E+01 -0.570123896287E+02
 -0.500362367560E+02 -0.145505797011E+01 -0.582503684945E+01 -0.465160330987E+02
        12        19        11        11
        11         5        12        12
        10        14         5         5
        19        13        11        11
        19        24        13        13
        30        23        24        24
        19        12        22        22
        28        22        21        21
        11        13         6         6
         7         6         9         9
        15        12        14        14
        18        13        23        23
        15        25        21        21
        27        19        22        22
        18         8         9         9
        27        31        24        24
         4        11         6         6
         5        14        12        12
         4         2         5         5
        21        12        15        15
        14        16        15        15
        24        19        27        27
        22        29        27        27
        23        26        18        18
        17         8        18        18
         5        11         4         4
         6         3         4         4
        26        23        30        30
         5         2        10        10
        16        14        10        10
         3         6         7         7
        21        25        28        28
        29        22        28        28
         6        13         9         9
         2         4         1         1
        31        27        32        32
        25        15        20        20
        24        23        13        13
         8         7         9         9
        13        18         9         9
        31        30        24        24
        12        21        22        22
        29        32        27        27
         3         1         4         4
        26        17        18        18
        16        20        15        15
zone t="boundary 2 bc-2", solutiontime= 0.1000000E+03, strandid=1002, i=33, j=48, f=feblock
  0.500195255313E+01  0.375034812201E+01  0.249861146354E+01  0.288036675733E+01  0.124717526151E+01  0.190856699606E+01  0.326577190793E+01
  0.201394857590E+01 -0.338396965251E-02  0.962374261034E+00  0.500000000000E+01  0.403430190133E+01  0.423029563300E+01  0.500000000000E+01
  0.385439188555E+01  0.500000000000E+01  0.398133432910E+01  0.315200081434E+01  0.266958029510E+01  0.154798030854E+01  0.218327860925E+01
  0.893688451288E+00  0.000000000000E+00  0.699009769630E+00  0.964460904435E+00  0.310303671669E+01  0.000000000000E+00  0.000000000000E+00
  0.125000000000E+01  0.500000000000E+01  0.375000000000E+01  0.250000000000E+01  0.000000000000E+00
 -0.249658901620E+01 -0.249658901620E+01 -0.249658901620E+01 -0.249658901620E+01 -0.249658901620E+01 -0.249658901620E+01 -0.249658901620E+01
 -0.249658901620E+01 -0.249658901620E+01 -0.249658901620E+01 -0.249658901620E+01 -0.249658901620E+01 -0.249658901620E+01 -0.249658901620E+01
 -0.249658901620E+01 -0.249658901620E+01 -0.249658901620E+01 -0.249658901620E+01 -0.249658901620E+01 -0.249658901620E+01 -0.249658901620E+01
 -0.249658901620E+01 -0.249658901620E+01 -0.249658901620E+01 -0.249658901620E+01 -0.249658901620E+01 -0.249658901620E+01 -0.249658901620E+01
 -0.249658901620E+01 -0.249658901620E+01 -0.249658901620E+01 -0.249658901620E+01 -0.249658901620E+01
  0.108209237191E-03  0.145875487893E-03  0.100909957516E-03  0.901663357824E+00  0.110895828141E-03  0.714928325670E+00  0.188140643916E+01
  0.175892163457E+01  0.811362586350E-04  0.957504305816E+00  0.125000000000E+01  0.100596693416E+01  0.191313516265E+01  0.250000000000E+01
  0.292898094244E+01  0.375000000000E+01  0.406883368474E+01  0.363389287837E+01  0.284756858001E+01  0.292582306272E+01  0.395754053293E+01
  0.205027256174E+01  0.125000000000E+01  0.306703271839E+01  0.397155765835E+01  0.433068621090E+01  0.250000000000E+01  0.375000000000E+01
  0.500000000000E+01  0.500000000000E+01  0.500000000000E+01  0.500000000000E+01  0.500000000000E+01
  0.500013676998E+00  0.500030724005E+00  0.500027799541E+00  0.500017522361E+00  0.500015385480E+00  0.500014538827E+00  0.500007342474E+00
  0.500003664484E+00  0.499982049496E+00  0.499999307946E+00  0.500004491847E+00  0.500015759779E+00  0.500005777901E+00  0.500001474538E+00
  0.500001734294E+00  0.500000427033E+00  0.499999911699E+00  0.500000045460E+00  0.500001223002E+00  0.499998439589E+00  0.499998537069E+00
  0.499997005536E+00  0.499989731792E+00  0.499996821482E+00  0.499997507780E+00  0.499998949588E+00  0.499994947581E+00  0.499997102831E+00
  0.499997349625E+00  0.500000070105E+00  0.499998661549E+00  0.499997668322E+00  0.499998157431E+00
  0.999999642210E+00  0.999998314080E+00  0.999997764198E+00  0.999999289128E+00  0.999999767276E+00  0.100000001676E+01  0.999999818206E+00
  0.100000065162E+01  0.100000836147E+01  0.100000218891E+01  0.100000090483E+01  0.999999460288E+00  0.100000019693E+01  0.100000061226E+01
  0.100000032385E+01  0.100000038408E+01  0.100000041917E+01  0.100000048659E+01  0.100000053264E+01  0.100000096943E+01  0.100000070526E+01
  0.100000163250E+01  0.100000370047E+01  0.100000126750E+01  0.100000090728E+01  0.100000055815E+01  0.100000176985E+01  0.100000100452E+01
  0.100000073887E+01  0.100000029407E+01  0.100000050089E+01  0.100000068226E+01  0.100000058992E+01
  0.327161646793E+02  0.283155039188E+02  0.263520647110E+02  0.207579125056E+02  0.249231386067E+02  0.211729581604E+02  0.157477216896E+02
  0.148292843698E+02  0.232105877694E+02  0.185022682773E+02  0.206289407155E+02  0.214424828167E+02  0.168502106776E+02  0.144989327527E+02
  0.111375394008E+02  0.100371519915E+02  0.749205700261E+01  0.888804612719E+01  0.106686861608E+02  0.550082124676E+01  0.110748391102E+02
  0.123369656868E+02  0.175875873908E+02  0.502719838124E+01  0.171665944623E+02  0.135777588069E+02  0.478131987844E+01  0.150266505582E+02
  0.989833961767E+02  0.111520169303E+02  0.427322199291E+02  0.842928064399E+02  0.111779874482E+03
 -0.735716976091E+01  0.235046407924E+01  0.666418391203E+01  0.159367813714E+01  0.832446342597E+01  0.460378660708E+01 -0.139382636664E+01
  0.115590948035E+01  0.865574218312E+01  0.509516650339E+01 -0.495088796085E+01 -0.122697534907E+01 -0.274798405903E+01 -0.346222115899E+01
 -0.282851599381E+01 -0.222899668336E+01 -0.303896033270E+01 -0.262520845052E+01 -0.181679515697E+01 -0.108498861739E+01 -0.145612028399E+01
  0.211932327919E+01  0.572556459517E+01  0.685158973058E-01  0.155773706311E+01 -0.169723452284E+01  0.208145327055E+01  0.364627479558E+01
  0.176942964160E+02 -0.587257395945E+00  0.411438244766E+01  0.128819235816E+02  0.234066823242E+02
 -0.459171496234E+00 -0.291964462701E+00 -0.651871456549E-01 -0.343747685137E-01 -0.224792743502E-01 -0.130792862522E-01  0.294420630774E-01
  0.469432001237E-01 -0.718885789083E-02 -0.634403588345E-02 -0.860078366495E-01 -0.322198613987E-01 -0.231574217297E-01 -0.471865975704E-01
 -0.467142594891E-01  0.379023457918E-01 -0.390357598664E-01  0.164227991845E-01  0.414882179790E-01  0.806139489367E-01  0.807856693074E-02
 -0.477788151136E-01 -0.190836879825E-01 -0.260646179149E-01 -0.423296783854E-01  0.834579505480E-02 -0.397816330755E-02 -0.221834977624E-01
 -0.498753547987E-03  0.697521464353E-02  0.828437763481E-02 -0.110600812464E-01 -0.126836463405E-01
 -0.278369191562E+01 -0.629051838525E+01 -0.787831374244E+01 -0.614016756242E+01 -0.788070119829E+01 -0.696583651162E+01 -0.407325828035E+01
 -0.560820637327E+01 -0.842520620932E+01 -0.723126438381E+01 -0.197849424243E+01 -0.462991742192E+01 -0.248921845903E+01 -0.672572033771E+00
 -0.231290896242E+01 -0.608730631258E+00 -0.201040064786E+01 -0.310811043360E+01 -0.395677274077E+01 -0.477952249676E+01 -0.362535414659E+01
 -0.618732799629E+01 -0.813549216484E+01 -0.510715987594E+01 -0.394707981912E+01 -0.303271290616E+01 -0.672475258595E+01 -0.434133510663E+01
 -0.265995341869E+01 -0.118586827604E+01 -0.263703759732E+01 -0.303126804977E+01 -0.195048040823E+01
 -0.652893489022E+01 -0.869324338296E+01 -0.960849924674E+01 -0.636537310668E+01 -0.972405267797E+01 -0.742439225451E+01 -0.396274547525E+01
 -0.446694711250E+01 -0.934759130483E+01 -0.680488896858E+01 -0.420711978888E+01 -0.589457895878E+01 -0.394059119700E+01 -0.297829406979E+01
 -0.213336831668E+01 -0.213983537873E+01 -0.100686455847E+01 -0.157973647506E+01 -0.233222542633E+01 -0.794335829455E+00 -0.279781908533E+01
 -0.408599136201E+01 -0.679241970511E+01 -0.111414563325E+01 -0.598728432272E+01 -0.364436534904E+01 -0.145505797011E+01 -0.582503684945E+01
 -0.402157631263E+02 -0.335333035581E+01 -0.159545468845E+02 -0.334464443362E+02 -0.465160330987E+02
        15         7        19        19
         8        20        19        19
        18        19        21        21
         7         4         8         8
         3         6         4         4
        19         7         8         8
        19        18        15        15
        14        13        15        15
         8        22        20        20
        27        24        22        22
        19        20        21        21
        32        26        21        21
        17        18        26        26
        17        16        15        15
        25        29        21        21
        12         7        13        13
        10         8         6         6
        25        20        24        24
         4         6         8         8
        12         2         4         4
        10        23        22        22
        26        31        17        17
        30        16        17        17
         4         7        12        12
        13        11        12        12
        21        20        25        25
        24        28        25        25
        22         8        10        10
         6         5        10        10
        31        26        32        32
         4         2         3         3
         5         6         3         3
        11        13        14        14
        22        23        27        27
        28        24        27        27
        15        13         7         7
         2        12         1         1
        29        25        33        33
        23        10         9         9
        21        26        18        18
        16        14        15        15
        18        17        15        15
        29        32        21        21
        22        24        20        20
        28        33        25        25
        11         1        12        12
        31        30        17        17
         5         9        10        10
zone t="boundary 3 bc-3", solutiontime= 0.1000000E+03, strandid=1003, i=33, j=48, f=feblock
  0.375059100022E+01  0.249769609016E+01  0.500322139356E+01  0.403612222763E+01  0.287976775181E+01  0.124541907693E+01  0.190552236756E+01
  0.500000000000E+01  0.326671106333E+01  0.423253756071E+01  0.201271138087E+01 -0.547472452772E-02  0.958895628158E+00  0.500000000000E+01
  0.266968148532E+01  0.385584487668E+01  0.890374213116E+00  0.154654014519E+01  0.000000000000E+00  0.500000000000E+01  0.315261137241E+01
  0.218304200095E+01  0.398195307874E+01  0.000000000000E+00  0.697379955531E+00  0.963757281441E+00  0.125000000000E+01  0.000000000000E+00
  0.500000000000E+01  0.310330738720E+01  0.250000000000E+01  0.375000000000E+01  0.000000000000E+00
  0.250494200518E+01  0.250494200518E+01  0.250494200518E+01  0.250494200518E+01  0.250494200518E+01  0.250494200518E+01  0.250494200518E+01
  0.250494200518E+01  0.250494200518E+01  0.250494200518E+01  0.250494200518E+01  0.250494200518E+01  0.250494200518E+01  0.250494200518E+01
  0.250494200518E+01  0.250494200518E+01  0.250494200518E+01  0.250494200518E+01  0.250494200518E+01  0.250494200518E+01  0.250494200518E+01
  0.250494200518E+01  0.250494200518E+01  0.250494200518E+01  0.250494200518E+01  0.250494200518E+01  0.250494200518E+01  0.250494200518E+01
  0.250494200518E+01  0.250494200518E+01  0.250494200518E+01  0.250494200518E+01  0.250494200518E+01
  0.135457002285E-03  0.109983637804E-03  0.964506780631E-04  0.101756739734E+01  0.908094462101E+00  0.103842397884E-03  0.722629008326E+00
  0.125000000000E+01  0.188965653795E+01  0.191862692309E+01  0.176708233165E+01  0.803216924785E-04  0.969652538178E+00  0.250000000000E+01
  0.285339429033E+01  0.293325055335E+01  0.205656222194E+01  0.293157014693E+01  0.125000000000E+01  0.375000000000E+01  0.363766836446E+01
  0.396069443367E+01  0.407056384269E+01  0.250000000000E+01  0.307031994182E+01  0.397359819531E+01  0.500000000000E+01  0.375000000000E+01
  0.500000000000E+01  0.433260780167E+01  0.500000000000E+01  0.500000000000E+01  0.500000000000E+01
  0.500026428483E+00  0.500032419246E+00  0.500006862582E+00  0.500012675829E+00  0.500016790694E+00  0.500005515514E+00  0.500011116478E+00
  0.500003733998E+00  0.500006808641E+00  0.500005363108E+00  0.500002980941E+00  0.499981206172E+00  0.499995995245E+00  0.500001545865E+00
  0.500001067063E+00  0.500001776043E+00  0.499997120852E+00  0.499998507318E+00  0.499991118348E+00  0.500000541056E+00  0.499999909999E+00
  0.499998556582E+00  0.499999838719E+00  0.499995300091E+00  0.499997100276E+00  0.499997636821E+00  0.499997394909E+00  0.499997301467E+00
  0.500000060877E+00  0.499998929370E+00  0.499997760436E+00  0.499998686680E+00  0.499998204572E+00
  0.999997964296E+00  0.999995086830E+00  0.100000150102E+01  0.999999543333E+00  0.999999196217E+00  0.100000275892E+01  0.100000006398E+01
  0.100000070756E+01  0.999999894343E+00  0.100000004711E+01  0.100000060249E+01  0.100000535959E+01  0.100000239388E+01  0.100000049308E+01
  0.100000047118E+01  0.100000028575E+01  0.100000141342E+01  0.100000097400E+01  0.100000311693E+01  0.100000033967E+01  0.100000046231E+01
  0.100000068491E+01  0.100000038434E+01  0.100000165055E+01  0.100000115855E+01  0.100000085007E+01  0.100000071260E+01  0.100000095003E+01
  0.100000027348E+01  0.100000053168E+01  0.100000066520E+01  0.100000047449E+01  0.100000057268E+01
  0.280454195007E+02  0.258015920394E+02  0.330861026733E+02  0.212185144240E+02  0.211176717448E+02  0.254536123332E+02  0.209674064140E+02
  0.209899224187E+02  0.156280160120E+02  0.160194144984E+02  0.150407767529E+02  0.231469975072E+02  0.182179904607E+02  0.138271809720E+02
  0.112369506796E+02  0.123707576871E+02  0.111378212005E+02  0.677304435528E+01  0.166580984359E+02  0.102339294636E+02  0.872544307935E+01
  0.953384023517E+01  0.787157418947E+01  0.455113916447E+01  0.353124443103E+01  0.233422086005E+02  0.865804284475E+02  0.165791867684E+02
  0.934725957373E+01  0.121701243680E+02  0.783181507928E+02  0.412543809000E+02  0.119815473330E+03
  0.318479132384E+01  0.658765487050E+01 -0.766041755378E+01 -0.947882137864E+00  0.209848342004E+01  0.880196270261E+01  0.462836235677E+01
 -0.511465590606E+01 -0.157548247970E+01 -0.288862692648E+01  0.998224839522E+00  0.869799774640E+01  0.507415247733E+01 -0.333799824317E+01
 -0.153018872415E+01 -0.256852005936E+01  0.180519706133E+01 -0.748742347460E+00  0.559414901329E+01 -0.239889238779E+01 -0.256875767337E+01
 -0.178469586657E+01 -0.288425853319E+01  0.205391747939E+01 -0.273450421542E+00  0.290809630513E+01  0.151508405902E+02  0.375543734193E+01
 -0.905164917325E+00 -0.195526623722E+01  0.117952842014E+02  0.393322587411E+01  0.248883579627E+02
  0.141858006416E+00  0.410062788899E-01  0.273250528299E+00 -0.205318798862E+00 -0.220801330639E+00  0.721881986405E-02 -0.177419006351E-02
  0.787774746667E-01  0.451393419265E-01  0.316682335194E-01 -0.340589408474E-01 -0.104935422136E-01  0.242836626846E-01 -0.567628694553E-01
 -0.692382428188E-01  0.113630072354E-01  0.205178138085E-01 -0.662676636664E-01  0.774834629395E-02 -0.434990169680E-01 -0.154887494917E-01
 -0.285121429917E-01  0.832259135148E-03 -0.113542557833E-01  0.279346248805E-01  0.533203492381E-01 -0.332384336485E-01  0.174786094988E-02
 -0.224439884205E-01 -0.180382381563E-02 -0.828027124065E-02 -0.525337478732E-02 -0.982492058475E-02
 -0.665252149118E+01 -0.776404780002E+01 -0.312825609341E+01 -0.511830561314E+01 -0.638472209336E+01 -0.776030561390E+01 -0.710473551584E+01
 -0.196979394389E+01 -0.408441003040E+01 -0.238123279597E+01 -0.558418054858E+01 -0.838019750404E+01 -0.716313671221E+01 -0.726165413339E+00
 -0.393101216583E+01 -0.231543131212E+01 -0.619771594022E+01 -0.485474257819E+01 -0.809880660719E+01 -0.778491556433E+00 -0.300610651229E+01
 -0.370281147477E+01 -0.208533103614E+01 -0.693933755090E+01 -0.506004288782E+01 -0.396594501763E+01 -0.273461957777E+01 -0.422186257583E+01
 -0.108608400412E+01 -0.290071287123E+01 -0.302763960615E+01 -0.261738163050E+01 -0.179338405389E+01
 -0.870941415716E+01 -0.935926086552E+01 -0.636805065269E+01 -0.588633104993E+01 -0.667240223441E+01 -0.100611993509E+02 -0.738103636045E+01
 -0.426481245538E+01 -0.388660476732E+01 -0.362593993421E+01 -0.450312239985E+01 -0.933368096834E+01 -0.673826512064E+01 -0.281368646766E+01
 -0.260524446118E+01 -0.266506759673E+01 -0.356146338892E+01 -0.131658869370E+01 -0.645064453335E+01 -0.211766542614E+01 -0.153170637853E+01
 -0.214209046444E+01 -0.120443809662E+01 -0.136338742113E+01 -0.529226230529E+00 -0.860127480189E+01 -0.349633788376E+02 -0.646882134541E+01
 -0.262197642508E+01 -0.307920563505E+01 -0.309744608909E+02 -0.153572586616E+02 -0.498930913578E+02
        15         9        16        16
        15        18        11        11
        22        15        21        21
        11         5         9         9
         5         7         2         2
        11         9        15        15
        16        21        15        15
        16        10        14        14
        18        17        11        11
        17        25        24        24
        22        18        15        15
        22        30        31        31
        30        21        23        23
        16        20        23        23
        22        27        26        26
        10         9         4         4
         7        11        13        13
        25        18        26        26
        11         7         5         5
         5         1         4         4
        17        19        13        13
        23        32        30        30
        23        20        29        29
         4         9         5         5
         4         8        10        10
        26        18        22        22
        26        28        25        25
        13        11        17        17
        13         6         7         7
        31        30        32        32
         2         1         5         5
         2         7         6         6
        14        10         8         8
        24        19        17        17
        24        25        28        28
         9        10        16        16
         3         4         1         1
        33        26        27        27
        12        13        19        19
        21        30        22        22
        16        14        20        20
        16        23        21        21
        22        31        27        27
        18        25        17        17
        26        33        28        28
         4         3         8         8
        23        29        32        32
        13        12         6         6
zone t="boundary 4 bc-4", solutiontime= 0.1000000E+03, strandid=1004, i=32, j=46, f=feblock
  0.125000000000E+01  0.219251206392E+01  0.103724302461E+01  0.500000000000E+01  0.250000000000E+01  0.375000000000E+01  0.404200324774E+01
  0.500000000000E+01  0.000000000000E+00  0.310152362409E+01  0.202479342020E+01  0.324151231464E+01  0.922061490191E+00  0.000000000000E+00
  0.299062775774E+01  0.394624082883E+01  0.500000000000E+01  0.409252726285E+01  0.500000000000E+01  0.429310310915E+01  0.175434191980E+01
  0.284428995242E+01  0.000000000000E+00  0.000000000000E+00  0.715990576545E+00  0.930412228790E+00  0.125000000000E+01  0.187029682677E+01
  0.500000000000E+01  0.375000000000E+01  0.250000000000E+01  0.000000000000E+00
  0.250494200518E+01  0.157686156160E+01  0.146289271009E+01  0.250494200518E+01  0.250494200518E+01  0.250494200518E+01  0.155830813274E+01
  0.125000000000E+01  0.250494200518E+01  0.177790177481E+01  0.477386199275E+00  0.742988685424E+00  0.308372018325E+00  0.125000000000E+01
 -0.487811078581E+00 -0.144524380962E+01 -0.125000000000E+01 -0.345533899378E+00  0.000000000000E+00  0.627766083140E+00 -0.739814786992E+00
 -0.158811787973E+01  0.000000000000E+00 -0.125000000000E+01 -0.600232012419E+00 -0.154800130438E+01 -0.249658901620E+01 -0.178862290564E+01
 -0.249658901620E+01 -0.249658901620E+01 -0.249658901620E+01 -0.249658901620E+01
  0.500000000000E+01  0.500000000000E+01  0.500000000000E+01  0.500000000000E+01  0.500000000000E+01  0.500000000000E+01  0.500000000000E+01
  0.500000000000E+01  0.500000000000E+01  0.500000000000E+01  0.500000000000E+01  0.500000000000E+01  0.500000000000E+01  0.500000000000E+01
  0.500000000000E+01  0.500000000000E+01  0.500000000000E+01  0.500000000000E+01  0.500000000000E+01  0.500000000000E+01  0.500000000000E+01
  0.500000000000E+01  0.500000000000E+01  0.500000000000E+01  0.500000000000E+01  0.500000000000E+01  0.500000000000E+01  0.500000000000E+01
  0.500000000000E+01  0.500000000000E+01  0.500000000000E+01  0.500000000000E+01
  0.499997394909E+00  0.499997614018E+00  0.499997613608E+00  0.500000060877E+00  0.499997760436E+00  0.499998686680E+00  0.499998898069E+00
  0.500000080922E+00  0.499998204572E+00  0.499998161846E+00  0.499997546137E+00  0.499998205093E+00  0.499997811256E+00  0.499998439681E+00
  0.499998038958E+00  0.499998859625E+00  0.499999940624E+00  0.499998892092E+00  0.500000071183E+00  0.499999108849E+00  0.499997426388E+00
  0.499997927732E+00  0.499998469765E+00  0.499998327883E+00  0.499997933909E+00  0.499997665118E+00  0.499997349625E+00  0.499997387404E+00
  0.500000070105E+00  0.499998661549E+00  0.499997668322E+00  0.499998157431E+00
  0.100000071260E+01  0.100000069159E+01  0.100000065448E+01  0.100000027348E+01  0.100000066520E+01  0.100000047449E+01  0.100000043275E+01
  0.100000026682E+01  0.100000057268E+01  0.100000057562E+01  0.100000070766E+01  0.100000057291E+01  0.100000062178E+01  0.100000054456E+01
  0.100000061871E+01  0.100000044943E+01  0.100000026416E+01  0.100000044976E+01  0.100000026532E+01  0.100000040564E+01  0.100000075001E+01
  0.100000064330E+01  0.100000053273E+01  0.100000055921E+01  0.100000060264E+01  0.100000065382E+01  0.100000073887E+01  0.100000074438E+01
  0.100000029407E+01  0.100000050089E+01  0.100000068226E+01  0.100000058992E+01
  0.865804284475E+02  0.826665577398E+02  0.878370246057E+02  0.934725957373E+01  0.783181507928E+02  0.412543809000E+02  0.287936432100E+02
  0.924328485486E+01  0.119815473330E+03  0.640548728780E+02  0.883595739920E+02  0.604954870447E+02  0.107980651237E+03  0.123488903397E+03
  0.687839801276E+02  0.280816812219E+02  0.107389986606E+02  0.357655558368E+02  0.872340799298E+01  0.357071146496E+02  0.110737812415E+03
  0.650397584621E+02  0.136443120790E+03  0.119973774979E+03  0.126910406352E+03  0.996112529668E+02  0.989833961767E+02  0.102915589816E+03
  0.111520169303E+02  0.427322199291E+02  0.842928064399E+02  0.111779874482E+03