title="tecplot geometry and solution file"
variables = x y z mach temperature lambda1 lambda2 lambda3 lambda4 lambda5
zone t="boundary 1 bc-1", solutiontime= 0.1000000E+03, strandid=1001, i=32, j=46, f=feblock
  0.000000000000E+00  0.000000000000E+00  0.000000000000E+00  0.000000000000E+00  0.000000000000E+00  0.000000000000E+00  0.000000000000E+00
  0.000000000000E+00  0.000000000000E+00  0.000000000000E+00  0.000000000000E+00  0.000000000000E+00  0.000000000000E+00  0.000000000000E+00
  0.000000000000E+00  0.000000000000E+00  0.000000000000E+00  0.000000000000E+00  0.000000000000E+00  0.000000000000E+00  0.000000000000E+00
  0.000000000000E+00  0.000000000000E+00  0.000000000000E+00  0.000000000000E+00  0.000000000000E+00  0.000000000000E+00  0.000000000000E+00
  0.000000000000E+00  0.000000000000E+00  0.000000000000E+00  0.000000000000E+00
  0.250000000000E+01  0.250000000000E+01  0.125000000000E+01  0.146289271009E+01  0.157686156160E+01  0.308372018325E+00  0.000000000000E+00
 -0.125000000000E+01 -0.600232012419E+00  0.250000000000E+01  0.477386199275E+00  0.742988685424E+00 -0.739814786992E+00  0.177790177481E+01
  0.155830813274E+01  0.250000000000E+01 -0.250000000000E+01 -0.154800130438E+01 -0.487811078581E+00  0.250000000000E+01  0.627766083140E+00
 -0.345533899378E+00 -0.178862290564E+01 -0.158811787973E+01  0.125000000000E+01 -0.250000000000E+01 -0.144524380962E+01  0.000000000000E+00
 -0.125000000000E+01 -0.250000000000E+01 -0.250000000000E+01 -0.250000000000E+01
  0.000000000000E+00  0.125000000000E+01  0.000000000000E+00  0.103724302461E+01  0.219251206392E+01  0.922061490191E+00  0.000000000000E+00
  0.000000000000E+00  0.715990576545E+00  0.250000000000E+01  0.202479342020E+01  0.324151231464E+01  0.175434191980E+01  0.310152362409E+01
  0.404200324774E+01  0.375000000000E+01  0.000000000000E+00  0.930412228790E+00  0.299062775774E+01  0.500000000000E+01  0.429310310915E+01
  0.409252726285E+01  0.187029682677E+01  0.284428995242E+01  0.500000000000E+01  0.125000000000E+01  0.394624082883E+01  0.500000000000E+01
  0.500000000000E+01  0.250000000000E+01  0.375000000000E+01  0.500000000000E+01
  0.500000000000E+00  0.500000000000E+00  0.500000000000E+00  0.500000000000E+00  0.500000000000E+00  0.500000000000E+00  0.500000000000E+00
  0.500000000000E+00  0.500000000000E+00  0.500000000000E+00  0.500000000000E+00  0.500000000000E+00  0.500000000000E+00  0.500000000000E+00
  0.500000000000E+00  0.500000000000E+00  0.500000000000E+00  0.500000000000E+00  0.500000000000E+00  0.500000000000E+00  0.500000000000E+00
  0.500000000000E+00  0.500000000000E+00  0.500000000000E+00  0.500000000000E+00  0.500000000000E+00  0.500000000000E+00  0.500000000000E+00
  0.500000000000E+00  0.500000000000E+00  0.500000000000E+00  0.500000000000E+00
  0.100000000000E+01  0.100000000000E+01  0.100000000000E+01  0.100000000000E+01  0.100000000000E+01  0.100000000000E+01  0.100000000000E+01
  0.100000000000E+01  0.100000000000E+01  0.100000000000E+01  0.100000000000E+01  0.100000000000E+01  0.100000000000E+01  0.100000000000E+01
  0.100000000000E+01  0.100000000000E+01  0.100000000000E+01  0.100000000000E+01  0.100000000000E+01  0.100000000000E+01  0.100000000000E+01
  0.100000000000E+01  0.100000000000E+01  0.100000000000E+01  0.100000000000E+01  0.100000000000E+01  0.100000000000E+01  0.100000000000E+01
  0.100000000000E+01  0.100000000000E+01  0.100000000000E+01  0.100000000000E+01
 -0.119843843932E-01  0.364326282418E-02 -0.180972885087E-01  0.487655973498E-02  0.277324502776E-02  0.760563303556E-02 -0.251090840120E-01
 -0.184647271417E-01  0.500957311455E-02  0.183692881033E-02  0.304417168081E-02 -0.417188074631E-04  0.317520052362E-02  0.318826047522E-03
 -0.371951737121E-03 -0.619278802568E-03 -0.167890005285E-01  0.648963332759E-02  0.239149045539E-03  0.400030442930E-04 -0.344730225873E-03
 -0.348939239609E-03  0.258608112472E-02  0.465974195009E-03  0.142907877892E-04  0.396055071036E-02 -0.211718969110E-03  0.347302159999E-04
 -0.236854538581E-04  0.151022374625E-02 -0.243631874955E-03 -0.134039057822E-03
 -0.233849425374E-02  0.776641477080E-03 -0.353141621538E-02  0.100155676947E-02  0.570078463361E-03  0.157844807480E-02 -0.516976130314E-02
 -0.397866983615E-02  0.117055808198E-02  0.364510132120E-03  0.651443862475E-03 -0.186406009898E-04  0.678712227215E-03  0.503303616799E-04
 -0.814557369658E-04 -0.139353172086E-03 -0.348414376085E-02  0.139782009433E-02  0.478888407197E-04  0.185164141766E-04 -0.726439639787E-04
 -0.763742417781E-04  0.564963153338E-03  0.847308294485E-04  0.970432794281E-05  0.862092271858E-03 -0.496340254554E-04  0.124904459026E-04
  0.292390358360E-05  0.303533586646E-03 -0.612327462438E-04 -0.189717499027E-04
 -0.262607936458E-04 -0.864932292828E-05 -0.979839384078E-04  0.469839814940E-05 -0.283079538986E-05  0.336023546827E-04 -0.142627414485E-03
  0.127402589541E-05  0.271664825804E-04  0.167310386326E-06  0.204530774076E-04  0.771259049273E-05  0.233124835540E-04  0.535267404711E-05
  0.258154034128E-05  0.259754448593E-06 -0.582504357379E-06 -0.184873458430E-05  0.118578236708E-04  0.267962516169E-06  0.193615033165E-05
  0.455275062782E-06 -0.372346644207E-04  0.736527990241E-05  0.260941779480E-05 -0.163369003283E-04  0.227082643616E-05  0.169085807697E-05
  0.104564531702E-05 -0.117666203468E-05 -0.607924807850E-06 -0.386895450486E-06
 -0.297012051572E-03 -0.150971622673E-04 -0.754776255966E-03 -0.206290922132E-04 -0.600547352923E-04 -0.135537016025E-03 -0.960318271017E-03
 -0.823508980498E-03 -0.355528289886E-03 -0.482851329016E-04 -0.212333568947E-04  0.530830576933E-05  0.254389852203E-04 -0.114264870776E-04
  0.485810253826E-05  0.703087141359E-05 -0.628863325918E-03 -0.155996193097E-03 -0.347633522062E-05  0.366593621825E-05  0.761582156755E-05
  0.561053873935E-05 -0.192604013610E-04 -0.662841352711E-05  0.435941300631E-05 -0.547092319508E-04  0.699213425938E-05  0.484036456393E-05
  0.597816300239E-05 -0.178191463743E-04  0.186452696447E-04  0.678217993730E-05
  0.493194476333E-02 -0.151958726079E-02  0.746104907865E-02 -0.200931705931E-02 -0.116749852214E-02 -0.318745741827E-02  0.105703399446E-01
  0.785273456897E-02 -0.217625081109E-02 -0.773223603371E-03 -0.128671822256E-02  0.152403493339E-04 -0.133619398115E-02 -0.131919857662E-03
  0.155623032287E-03  0.259818167924E-03  0.702118394653E-02 -0.276271927087E-02 -0.106149415873E-03 -0.192722361286E-04  0.143666491381E-03
  0.145239415586E-03 -0.108979824178E-02 -0.198234328279E-03 -0.792040285935E-05 -0.164064213559E-02  0.879266200456E-04 -0.161907698474E-04
  0.763030328411E-05 -0.639051747326E-03  0.100796614720E-03  0.537719705961E-04
        12        19        11        11
        11         5        12        12
        10        14         5         5
        19        13        11        11
        19        24        13        13
        30        23        24        24
        19        12        22        22
        28        22        21        21
        11        13         6         6
         7         6         9         9
        15        12        14        14
        18        13        23        23
        15        25        21        21
        27        19        22        22
        18         8         9         9
        27        31        24        24
         4        11         6         6
         5        14        12        12
         4         2         5         5
        21        12        15        15
        14        16        15        15
        24        19        27        27
        22        29        27        27
        23        26        18        18
        17         8        18        18
         5        11         4         4
         6         3         4         4
        26        23        30        30
         5         2        10        10
        16        14        10        10
         3         6         7         7
        21        25        28        28
        29        22        28        28
         6        13         9         9
         2         4         1         1
        31        27        32        32
        25        15        20        20
        24        23        13        13
         8         7         9         9
        13        18         9         9
        31        30        24        24
        12        21        22        22
        29        32        27        27
         3         1         4         4
        26        17        18        18
        16        20        15        15
zone t="boundary 2 bc-2", solutiontime= 0.1000000E+03, strandid=1002, i=33, j=48, f=feblock
  0.500000000000E+01  0.375000000000E+01  0.250000000000E+01  0.288078410721E+01  0.125000000000E+01  0.190974100652E+01  0.326683758169E+01
  0.201431602454E+01  0.000000000000E+00  0.963108083381E+00  0.500000000000E+01  0.403552511878E+01  0.423153924130E+01  0.500000000000E+01
  0.385533350601E+01  0.500000000000E+01  0.398173246726E+01  0.315249557942E+01  0.267000324704E+01  0.154774304040E+01  0.218329375016E+01
  0.893127759452E+00  0.000000000000E+00  0.698517061619E+00  0.964171764089E+00  0.310324758057E+01  0.000000000000E+00  0.000000000000E+00
  0.125000000000E+01  0.500000000000E+01  0.375000000000E+01  0.250000000000E+01  0.000000000000E+00
 -0.250000000000E+01 -0.250000000000E+01 -0.250000000000E+01 -0.250000000000E+01 -0.250000000000E+01 -0.250000000000E+01 -0.250000000000E+01
 -0.250000000000E+01 -0.250000000000E+01 -0.250000000000E+01 -0.250000000000E+01 -0.250000000000E+01 -0.250000000000E+01 -0.250000000000E+01
 -0.250000000000E+01 -0.250000000000E+01 -0.250000000000E+01 -0.250000000000E+01 -0.250000000000E+01 -0.250000000000E+01 -0.250000000000E+01
 -0.250000000000E+01 -0.250000000000E+01 -0.250000000000E+01 -0.250000000000E+01 -0.250000000000E+01 -0.250000000000E+01 -0.250000000000E+01
 -0.250000000000E+01 -0.250000000000E+01 -0.250000000000E+01 -0.250000000000E+01 -0.250000000000E+01
  0.000000000000E+00  0.000000000000E+00  0.000000000000E+00  0.904659890645E+00  0.000000000000E+00  0.717002441913E+00  0.188609243358E+01
  0.176246431481E+01  0.000000000000E+00  0.961328577125E+00  0.125000000000E+01  0.101201586758E+01  0.191586535653E+01  0.250000000000E+01
  0.293121848150E+01  0.375000000000E+01  0.406975391361E+01  0.363585050272E+01  0.285047954584E+01  0.292817774674E+01  0.395907379566E+01
  0.205246550326E+01  0.125000000000E+01  0.306828197606E+01  0.397245519226E+01  0.433168271247E+01  0.250000000000E+01  0.375000000000E+01
  0.500000000000E+01  0.500000000000E+01  0.500000000000E+01  0.500000000000E+01  0.500000000000E+01
  0.500000000000E+00  0.500000000000E+00  0.500000000000E+00  0.500000000000E+00  0.500000000000E+00  0.500000000000E+00  0.500000000000E+00
  0.500000000000E+00  0.500000000000E+00  0.500000000000E+00  0.500000000000E+00  0.500000000000E+00  0.500000000000E+00  0.500000000000E+00
  0.500000000000E+00  0.500000000000E+00  0.500000000000E+00  0.500000000000E+00  0.500000000000E+00  0.500000000000E+00  0.500000000000E+00
  0.500000000000E+00  0.500000000000E+00  0.500000000000E+00  0.500000000000E+00  0.500000000000E+00  0.500000000000E+00  0.500000000000E+00
  0.500000000000E+00  0.500000000000E+00  0.500000000000E+00  0.500000000000E+00  0.500000000000E+00
  0.100000000000E+01  0.100000000000E+01  0.100000000000E+01  0.100000000000E+01  0.100000000000E+01  0.100000000000E+01  0.100000000000E+01
  0.100000000000E+01  0.100000000000E+01  0.100000000000E+01  0.100000000000E+01  0.100000000000E+01  0.100000000000E+01  0.100000000000E+01
  0.100000000000E+01  0.100000000000E+01  0.100000000000E+01  0.100000000000E+01  0.100000000000E+01  0.100000000000E+01  0.100000000000E+01
  0.100000000000E+01  0.100000000000E+01  0.100000000000E+01  0.100000000000E+01  0.100000000000E+01  0.100000000000E+01  0.100000000000E+01
  0.100000000000E+01  0.100000000000E+01  0.100000000000E+01  0.100000000000E+01  0.100000000000E+01
  0.456008489468E-03 -0.861994584694E-02 -0.245738984438E-01  0.547755141637E-02 -0.300156304745E-01  0.619482492057E-02  0.449622301478E-03
  0.321665199848E-02 -0.167890005285E-01  0.335593536131E-02  0.195608141350E-04  0.570417277016E-03 -0.507396248903E-04 -0.245544161100E-04
 -0.394020574484E-04 -0.127046206921E-04 -0.463605906867E-05 -0.529559067199E-04 -0.158639165606E-03  0.290595010231E-05 -0.585092298406E-04
  0.224813275688E-02  0.396055071036E-02  0.238560297964E-03 -0.132818558288E-03 -0.169564254305E-04  0.151022374625E-02 -0.243631874955E-03
 -0.276833409986E-04 -0.129970131681E-04 -0.156286333012E-04 -0.210820551862E-04 -0.134039057822E-03
  0.107836043597E-03 -0.160330011808E-02 -0.513946293782E-02  0.122157736606E-02 -0.637189876776E-02  0.138995638441E-02  0.136703207800E-04
  0.586416508126E-03 -0.348414376085E-02  0.741933351333E-03 -0.131371777680E-04  0.312353860629E-04 -0.479825221574E-04  0.801680223638E-05
 -0.183805050102E-04  0.389004010761E-05 -0.144130152129E-05 -0.990165298860E-05 -0.656509191787E-04 -0.649157630683E-04 -0.889860299746E-05
  0.407855804190E-03  0.862092271858E-03  0.110130528445E-04 -0.328962843277E-04  0.140242725819E-05  0.303533586646E-03 -0.612327462438E-04
  0.602912380871E-05  0.159907795572E-05  0.161541558963E-05  0.404411577460E-05 -0.189717499027E-04
  0.226057013681E-04 -0.515759967355E-04 -0.778322231649E-04  0.212254115636E-04 -0.515176564131E-04  0.192962124541E-04 -0.800938279403E-06
  0.261804572986E-04 -0.582504357379E-06 -0.827880506187E-05 -0.127446450847E-04 -0.519223955757E-04  0.376591762149E-06 -0.791088225252E-06
 -0.154281695410E-05 -0.394446000428E-07 -0.715919922085E-06 -0.667894237568E-06  0.218699004744E-05  0.359451457821E-05 -0.942239039032E-06
 -0.583731442343E-07 -0.163369003283E-04  0.427958855733E-06  0.302349162207E-07 -0.157534922472E-06 -0.117666203468E-05 -0.607924807850E-06
 -0.276903076980E-06 -0.166544414747E-06 -0.992672145373E-07 -0.208474172567E-06 -0.386895450486E-06
 -0.108525612764E-03 -0.712167612682E-03 -0.128100499160E-02 -0.659430339409E-04 -0.117914225679E-02 -0.299828603005E-03  0.953077819670E-04
  0.100032874605E-03 -0.628863325918E-03 -0.182455962285E-03  0.315844706870E-04  0.287661901618E-04 -0.293544043437E-05  0.821827720290E-05
 -0.491549317328E-05  0.422379351548E-05 -0.224885278046E-05 -0.532016707149E-05  0.168962904986E-04  0.291381215729E-04 -0.511075867069E-06
 -0.290654526411E-04 -0.547092319508E-04  0.498833944674E-05  0.649329851232E-05 -0.455901785584E-05 -0.178191463743E-04  0.186452696447E-04
  0.976635138638E-06  0.196470510157E-05  0.102767876550E-05  0.107097614383E-05  0.678217993730E-05
 -0.213461942339E-03  0.366246100536E-02  0.104708541041E-01 -0.236042539830E-02  0.127686833052E-01 -0.266650937205E-02 -0.165450630433E-03
 -0.132801740955E-02  0.702118394653E-02 -0.141057366725E-02 -0.119525622816E-05 -0.196465983022E-03  0.339524548480E-04  0.329767875550E-05
  0.197801521955E-04  0.213753047395E-05  0.183734164655E-05  0.220610135599E-04  0.701644520490E-04  0.943484173642E-05  0.235664013385E-04
 -0.926328329729E-03 -0.164064213559E-02 -0.940589183560E-04  0.558403754123E-04  0.560528477495E-05 -0.639051747326E-03  0.100796614720E-03
  0.851481001633E-05  0.343400774949E-05  0.478852253960E-05  0.634140286732E-05  0.537719705961E-04
        15         7        19        19
         8        20        19        19
        18        19        21        21
         7         4         8         8
         3         6         4         4
        19         7         8         8
        19        18        15        15
        14        13        15        15
         8        22        20        20
        27        24        22        22
        19        20        21        21
        32        26        21        21
        17        18        26        26
        17        16        15        15
        25        29        21        21
        12         7        13        13
        10         8         6         6
        25        20        24        24
         4         6         8         8
        12         2         4         4
        10        23        22        22
        26        31        17        17
        30        16        17        17
         4         7        12        12
        13        11        12        12
        21        20        25        25
        24        28        25        25
        22         8        10        10
         6         5        10        10
        31        26        32        32
         4         2         3         3
         5         6         3         3
        11        13        14        14
        22        23        27        27
        28        24        27        27
        15        13         7         7
         2        12         1         1
        29        25        33        33
        23        10         9         9
        21        26        18        18
        16        14        15        15
        18        17        15        15
        29        32        21        21
        22        24        20        20
        28        33        25        25
        11         1        12        12
        31        30        17        17
         5         9        10        10
zone t="boundary 3 bc-3", solutiontime= 0.1000000E+03, strandid=1003, i=33, j=48, f=feblock
  0.375000000000E+01  0.250000000000E+01  0.500000000000E+01  0.403552511878E+01  0.288078410721E+01  0.125000000000E+01  0.190974100652E+01
  0.500000000000E+01  0.326683758169E+01  0.423153924130E+01  0.201431602454E+01  0.000000000000E+00  0.963108083381E+00  0.500000000000E+01
  0.267000324704E+01  0.385533350601E+01  0.893127759452E+00  0.154774304040E+01  0.000000000000E+00  0.500000000000E+01  0.315249557942E+01
  0.218329375016E+01  0.398173246726E+01  0.000000000000E+00  0.698517061619E+00  0.964171764089E+00  0.125000000000E+01  0.000000000000E+00
  0.500000000000E+01  0.310324758057E+01  0.250000000000E+01  0.375000000000E+01  0.000000000000E+00
  0.250000000000E+01  0.250000000000E+01  0.250000000000E+01  0.250000000000E+01  0.250000000000E+01  0.250000000000E+01  0.250000000000E+01
  0.250000000000E+01  0.250000000000E+01  0.250000000000E+01  0.250000000000E+01  0.250000000000E+01  0.250000000000E+01  0.250000000000E+01
  0.250000000000E+01  0.250000000000E+01  0.250000000000E+01  0.250000000000E+01  0.250000000000E+01  0.250000000000E+01  0.250000000000E+01
  0.250000000000E+01  0.250000000000E+01  0.250000000000E+01  0.250000000000E+01  0.250000000000E+01  0.250000000000E+01  0.250000000000E+01
  0.250000000000E+01  0.250000000000E+01  0.250000000000E+01  0.250000000000E+01  0.250000000000E+01
  0.000000000000E+00  0.000000000000E+00  0.000000000000E+00  0.101201586758E+01  0.904659890645E+00  0.000000000000E+00  0.717002441913E+00
  0.125000000000E+01  0.188609243358E+01  0.191586535653E+01  0.176246431481E+01  0.000000000000E+00  0.961328577125E+00  0.250000000000E+01
  0.285047954584E+01  0.293121848150E+01  0.205246550326E+01  0.292817774674E+01  0.125000000000E+01  0.375000000000E+01  0.363585050272E+01
  0.395907379566E+01  0.406975391361E+01  0.250000000000E+01  0.306828197606E+01  0.397245519226E+01  0.500000000000E+01  0.375000000000E+01
  0.500000000000E+01  0.433168271247E+01  0.500000000000E+01  0.500000000000E+01  0.500000000000E+01
  0.500000000000E+00  0.500000000000E+00  0.500000000000E+00  0.500000000000E+00  0.500000000000E+00  0.500000000000E+00  0.500000000000E+00
  0.500000000000E+00  0.500000000000E+00  0.500000000000E+00  0.500000000000E+00  0.500000000000E+00  0.500000000000E+00  0.500000000000E+00
  0.500000000000E+00  0.500000000000E+00  0.500000000000E+00  0.500000000000E+00  0.500000000000E+00  0.500000000000E+00  0.500000000000E+00
  0.500000000000E+00  0.500000000000E+00  0.500000000000E+00  0.500000000000E+00  0.500000000000E+00  0.500000000000E+00  0.500000000000E+00
  0.500000000000E+00  0.500000000000E+00  0.500000000000E+00  0.500000000000E+00  0.500000000000E+00
  0.100000000000E+01  0.100000000000E+01  0.100000000000E+01  0.100000000000E+01  0.100000000000E+01  0.100000000000E+01  0.100000000000E+01
  0.100000000000E+01  0.100000000000E+01  0.100000000000E+01  0.100000000000E+01  0.100000000000E+01  0.100000000000E+01  0.100000000000E+01
  0.100000000000E+01  0.100000000000E+01  0.100000000000E+01  0.100000000000E+01  0.100000000000E+01  0.100000000000E+01  0.100000000000E+01
  0.100000000000E+01  0.100000000000E+01  0.100000000000E+01  0.100000000000E+01  0.100000000000E+01  0.100000000000E+01  0.100000000000E+01
  0.100000000000E+01  0.100000000000E+01  0.100000000000E+01  0.100000000000E+01  0.100000000000E+01
 -0.166036317250E-01 -0.165705908370E-01 -0.142965109684E-03  0.412065616577E-02  0.798048413815E-02 -0.163947983545E-01  0.341292142859E-02
 -0.310485010779E-03  0.415933366032E-03 -0.798343152611E-04  0.452554230471E-02 -0.119843843932E-01  0.280800200151E-02 -0.292305778396E-04
 -0.377458592033E-03 -0.615495596489E-05  0.233120651019E-02  0.997308106362E-04  0.364326282418E-02 -0.177239069203E-04  0.215973698115E-04
 -0.930642406409E-04 -0.148941037383E-04  0.183692881033E-02  0.624462392356E-04 -0.163186501875E-03 -0.324839777106E-04 -0.619278802568E-03
 -0.160596882312E-04  0.769422449898E-06 -0.256255037495E-05 -0.186591300002E-04  0.400030442930E-04
 -0.366268126655E-02 -0.307802677599E-02 -0.921469797989E-04  0.823007511527E-03  0.172612036500E-02 -0.322437099740E-02  0.798550964574E-03
 -0.686657224650E-04  0.277920841919E-04 -0.246132173489E-04  0.798622802850E-03 -0.233849425374E-02  0.508177379149E-03  0.799943759063E-05
 -0.100797359356E-03 -0.914572619949E-05  0.413654219050E-03 -0.294285962714E-04  0.776641477080E-03  0.268988268789E-05  0.285232111907E-05
 -0.226583222199E-04 -0.326029751002E-05  0.364510132120E-03 -0.349747265613E-04 -0.359248478066E-04  0.117034483969E-05 -0.139353172086E-03
 -0.323156465802E-06 -0.570699374454E-06  0.349070590843E-05 -0.276151611751E-05  0.185164141766E-04
  0.828417689986E-04  0.116946173556E-04 -0.613565245063E-05 -0.264381516043E-04 -0.112253940267E-03 -0.254544160909E-04 -0.166697114098E-04
  0.138974240542E-05 -0.147292879447E-04  0.258519522446E-05 -0.141714235538E-04 -0.262607936458E-04  0.629304272158E-05  0.120782566483E-05
 -0.228257795594E-05  0.809875617503E-06 -0.572392763241E-05 -0.623462698460E-05 -0.864932292828E-05  0.442380103539E-06  0.774064225236E-06
  0.146919863409E-05  0.168226226861E-06  0.167310386326E-06  0.169680926125E-05  0.772235475244E-06  0.147074940742E-06  0.259754448593E-06
  0.333420547147E-07 -0.550307386710E-07  0.118398513665E-06 -0.237155425949E-07  0.267962516169E-06
 -0.126032488624E-02 -0.993248721662E-03 -0.124834954740E-03 -0.117435217470E-03 -0.270785623319E-03 -0.540413218393E-03 -0.266708593832E-03
 -0.849387306326E-07  0.720937416933E-04  0.133566582462E-04  0.102703931831E-03 -0.297012051572E-03 -0.775678709176E-04  0.566904883718E-05
  0.609260191886E-05  0.423695788676E-05 -0.586239011301E-04  0.678486462916E-05 -0.150971622673E-04  0.397793432289E-05  0.835606021833E-06
 -0.447198635600E-05  0.192372322025E-05 -0.482851329016E-04 -0.989392473324E-05 -0.266362636393E-05  0.448993880590E-07  0.703087141359E-05
  0.208006031595E-05 -0.124735289164E-05  0.150237672697E-06  0.136034684219E-05  0.366593621825E-05
  0.722484876793E-02  0.688312229411E-02  0.918509237583E-04 -0.174084566665E-02 -0.345114174638E-02  0.680306529170E-02 -0.146753890235E-02
  0.135075660791E-03 -0.150943435452E-03  0.377700264270E-04 -0.186142581729E-02  0.493194476333E-02 -0.111990698321E-02  0.507910436547E-05
  0.163414414670E-03  0.487099871713E-05 -0.962287624433E-03 -0.314412012892E-04 -0.151958726079E-02  0.421734692266E-05 -0.832759544254E-05
  0.404850434584E-04  0.584610439076E-05 -0.773223603371E-03 -0.161190071094E-04  0.683547298207E-04  0.117078566272E-04  0.259818167924E-03
  0.529505846192E-05 -0.451943444510E-06 -0.353419079262E-06  0.701217575151E-05 -0.192722361286E-04
        15         9        16        16
        15        18        11        11
        22        15        21        21
        11         5         9         9
         5         7         2         2
        11         9        15        15
        16        21        15        15
        16        10        14        14
        18        17        11        11
        17        25        24        24
        22        18        15        15
        22        30        31        31
        30        21        23        23
        16        20        23        23
        22        27        26        26
        10         9         4         4
         7        11        13        13
        25        18        26        26
        11         7         5         5
         5         1         4         4
        17        19        13        13
        23        32        30        30
        23        20        29        29
         4         9         5         5
         4         8        10        10
        26        18        22        22
        26        28        25        25
        13        11        17        17
        13         6         7         7
        31        30        32        32
         2         1         5         5
         2         7         6         6
        14        10         8         8
        24        19        17        17
        24        25        28        28
         9        10        16        16
         3         4         1         1
        33        26        27        27
        12        13        19        19
        21        30        22        22
        16        14        20        20
        16        23        21        21
        22        31        27        27
        18        25        17        17
        26        33        28        28
         4         3         8         8
        23        29        32        32
        13        12         6         6
zone t="boundary 4 bc-4", solutiontime= 0.1000000E+03, strandid=1004, i=32, j=46, f=feblock
  0.125000000000E+01  0.219251206392E+01  0.103724302461E+01  0.500000000000E+01  0.250000000000E+01  0.375000000000E+01  0.404200324774E+01
  0.500000000000E+01  0.000000000000E+00  0.310152362409E+01  0.202479342020E+01  0.324151231464E+01  0.922061490191E+00  0.000000000000E+00
  0.299062775774E+01  0.394624082883E+01  0.500000000000E+01  0.409252726285E+01  0.500000000000E+01  0.429310310915E+01  0.175434191980E+01
  0.284428995242E+01  0.000000000000E+00  0.000000000000E+00  0.715990576545E+00  0.930412228790E+00  0.125000000000E+01  0.187029682677E+01
  0.500000000000E+01  0.375000000000E+01  0.250000000000E+01  0.000000000000E+00
  0.250000000000E+01  0.157686156160E+01  0.146289271009E+01  0.250000000000E+01  0.250000000000E+01  0.250000000000E+01  0.155830813274E+01
  0.125000000000E+01  0.250000000000E+01  0.177790177481E+01  0.477386199275E+00  0.742988685424E+00  0.308372018325E+00  0.125000000000E+01
 -0.487811078581E+00 -0.144524380962E+01 -0.125000000000E+01 -0.345533899378E+00  0.000000000000E+00  0.627766083140E+00 -0.739814786992E+00
 -0.158811787973E+01  0.000000000000E+00 -0.125000000000E+01 -0.600232012419E+00 -0.154800130438E+01 -0.250000000000E+01 -0.178862290564E+01
 -0.250000000000E+01 -0.250000000000E+01 -0.250000000000E+01 -0.250000000000E+01
  0.500000000000E+01  0.500000000000E+01  0.500000000000E+01  0.500000000000E+01  0.500000000000E+01  0.500000000000E+01  0.500000000000E+01
  0.500000000000E+01  0.500000000000E+01  0.500000000000E+01  0.500000000000E+01  0.500000000000E+01  0.500000000000E+01  0.500000000000E+01
  0.500000000000E+01  0.500000000000E+01  0.500000000000E+01  0.500000000000E+01  0.500000000000E+01  0.500000000000E+01  0.500000000000E+01
  0.500000000000E+01  0.500000000000E+01  0.500000000000E+01  0.500000000000E+01  0.500000000000E+01  0.500000000000E+01  0.500000000000E+01
  0.500000000000E+01  0.500000000000E+01  0.500000000000E+01  0.500000000000E+01
  0.500000000000E+00  0.500000000000E+00  0.500000000000E+00  0.500000000000E+00  0.500000000000E+00  0.500000000000E+00  0.500000000000E+00
  0.500000000000E+00  0.500000000000E+00  0.500000000000E+00  0.500000000000E+00  0.500000000000E+00  0.500000000000E+00  0.500000000000E+00
  0.500000000000E+00  0.500000000000E+00  0.500000000000E+00  0.500000000000E+00  0.500000000000E+00  0.500000000000E+00  0.500000000000E+00
  0.500000000000E+00  0.500000000000E+00  0.500000000000E+00  0.500000000000E+00  0.500000000000E+00  0.500000000000E+00  0.500000000000E+00
  0.500000000000E+00  0.500000000000E+00  0.500000000000E+00  0.500000000000E+00
  0.100000000000E+01  0.100000000000E+01  0.100000000000E+01  0.100000000000E+01  0.100000000000E+01  0.100000000000E+01  0.100000000000E+01
  0.100000000000E+01  0.100000000000E+01  0.100000000000E+01  0.100000000000E+01  0.100000000000E+01  0.100000000000E+01  0.100000000000E+01
  0.100000000000E+01  0.100000000000E+01  0.100000000000E+01  0.100000000000E+01  0.100000000000E+01  0.100000000000E+01  0.100000000000E+01
  0.100000000000E+01  0.100000000000E+01  0.100000000000E+01  0.100000000000E+01  0.100000000000E+01  0.100000000000E+01  0.100000000000E+01
  0.100000000000E+01  0.100000000000E+01  0.100000000000E+01  0.100000000000E+01
 -0.324839777106E-04  0.340029299442E-05  0.531264541938E-04 -0.160596882312E-04 -0.256255037495E-05 -0.186591300002E-04 -0.109026747885E-04
 -0.921166393433E-05  0.400030442930E-04 -0.145204567057E-04 -0.266743631430E-04 -0.576076600209E-05  0.115424101243E-03  0.142907877892E-04
 -0.523190665135E-05 -0.156223399550E-04 -0.169358478665E-04 -0.981385686209E-05 -0.957558009271E-05 -0.764385703110E-05 -0.639188047593E-04
 -0.160321319499E-04  0.347302159999E-04 -0.236854538581E-04  0.112750675727E-03 -0.157970191508E-04 -0.276833409986E-04 -0.357107282398E-04
 -0.129970131681E-04 -0.156286333012E-04 -0.210820551862E-04 -0.134039057822E-03