title="tecplot geometry and solution file"
variables = x y z mach temperature lambda1 lambda2 lambda3 lambda4 lambda5
zone t="boundary 1 bc-1", solutiontime= 0.3000000E+02, strandid=1001, i=32, j=46, f=feblock
 -0.547468544169E-02  0.000000000000E+00 -0.567606031243E-02  0.000000000000E+00  0.000000000000E+00  0.000000000000E+00 -0.525159244851E-02
 -0.425776897977E-02  0.000000000000E+00  0.000000000000E+00  0.000000000000E+00  0.000000000000E+00  0.000000000000E+00  0.000000000000E+00
  0.000000000000E+00  0.000000000000E+00 -0.338395986572E-02  0.000000000000E+00  0.000000000000E+00  0.000000000000E+00  0.000000000000E+00
  0.000000000000E+00  0.000000000000E+00  0.000000000000E+00  0.000000000000E+00  0.000000000000E+00  0.000000000000E+00  0.000000000000E+00
  0.000000000000E+00  0.000000000000E+00  0.000000000000E+00  0.000000000000E+00
  0.250494197117E+01  0.250494197117E+01  0.127822156907E+01  0.146289271009E+01  0.157686156160E+01  0.308372018325E+00  0.261948602442E-01
 -0.122573481164E+01 -0.600232012419E+00  0.250494197117E+01  0.477386199275E+00  0.742988685424E+00 -0.739814786992E+00  0.177790177481E+01
  0.155830813274E+01  0.250494197117E+01 -0.249658903664E+01 -0.154800130438E+01 -0.487811078581E+00  0.250494197117E+01  0.627766083140E+00
 -0.345533899378E+00 -0.178862290564E+01 -0.158811787973E+01  0.125000000000E+01 -0.249658903664E+01 -0.144524380962E+01  0.000000000000E+00
 -0.125000000000E+01 -0.249658903664E+01 -0.249658903664E+01 -0.249658903664E+01
  0.803813859866E-04  0.125000000000E+01  0.822460170216E-04  0.103724302461E+01  0.219251206392E+01  0.922061490191E+00  0.103872438719E-03
  0.341545874231E-04  0.715990576545E+00  0.250000000000E+01  0.202479342020E+01  0.324151231464E+01  0.175434191980E+01  0.310152362409E+01
  0.404200324774E+01  0.375000000000E+01  0.810725962649E-04  0.930412228790E+00  0.299062775774E+01  0.500000000000E+01  0.429310310915E+01
  0.409252726285E+01  0.187029682677E+01  0.284428995242E+01  0.500000000000E+01  0.125000000000E+01  0.394624082883E+01  0.500000000000E+01
  0.500000000000E+01  0.250000000000E+01  0.375000000000E+01  0.500000000000E+01
  0.000000000000E+00  0.440672136512E+00  0.000000000000E+00  0.474618025820E+00  0.460125068601E+00  0.468639320143E+00  0.000000000000E+00
  0.000000000000E+00  0.402534623939E+00  0.469886789982E+00  0.464193107367E+00  0.478749739491E+00  0.489555756507E+00  0.483130037990E+00
  0.488002902366E+00  0.489035017215E+00  0.000000000000E+00  0.465237698331E+00  0.473759127176E+00  0.495364848064E+00  0.490293257191E+00
  0.486276632093E+00  0.445850265191E+00  0.464356446519E+00  0.496127940578E+00  0.443891909404E+00  0.486928147025E+00  0.497248366859E+00
  0.496055083747E+00  0.467740399690E+00  0.488187228171E+00  0.495089980244E+00
  0.999990300362E+00  0.102982970104E+01  0.999990762612E+00  0.104241436388E+01  0.101187663318E+01  0.102516400612E+01  0.999991420552E+00
  0.999992171067E+00  0.103882325429E+01  0.100825795511E+01  0.101253536096E+01  0.100301645575E+01  0.102705594255E+01  0.100604114309E+01
  0.100244532432E+01  0.100354817652E+01  0.999992724186E+00  0.103209991946E+01  0.100459425771E+01  0.100178625606E+01  0.100260326526E+01
  0.100234745937E+01  0.101657167924E+01  0.100620610961E+01  0.100168369530E+01  0.104025009063E+01  0.100303477791E+01  0.100118721261E+01
  0.100134451878E+01  0.100976460100E+01  0.100405634212E+01  0.100176433139E+01
  0.610271684523E-02  0.305817142805E-01  0.699744958997E-02  0.492390662430E-01  0.346995264877E-02  0.587780382999E-01  0.512725886652E-02
  0.170403381211E-02  0.582620076521E-01 -0.160704797464E-02  0.387225873865E-02 -0.693811623895E-02  0.322622939477E-02 -0.384123401987E-02
 -0.943726627767E-02 -0.921146109398E-02  0.308624886765E-02  0.385035300065E-01 -0.510237593766E-02 -0.339606019350E-01 -0.122752834043E-01
 -0.807767101601E-02  0.189136507230E-02 -0.443301713153E-02 -0.351072724491E-01  0.249022503108E-01 -0.635373964285E-02 -0.386532959361E-01
 -0.342725918757E-01 -0.356923824682E-02 -0.695994843052E-02 -0.321708569044E-01
  0.239612975469E-03  0.442983658501E-02  0.331757522800E-03  0.628839669743E-02  0.165926213030E-03  0.889298889565E-02  0.362038134584E-03
  0.321678575072E-03  0.867671149042E-02 -0.775435270674E-03  0.345971875796E-03 -0.146704435270E-02 -0.108966789174E-03 -0.113573594360E-02
 -0.186803392526E-02 -0.203624010159E-02  0.284470412610E-03  0.600149765771E-02 -0.102167424478E-02 -0.694851177488E-02 -0.245026513063E-02
 -0.155816149061E-02 -0.203059887357E-03 -0.852575642131E-03 -0.733271332858E-02  0.306805970387E-02 -0.126232846908E-02 -0.809834889718E-02
 -0.715860906883E-02 -0.896304835365E-03 -0.148648117808E-02 -0.668216274503E-02
  0.404752354838E-03  0.128147112826E-03  0.546140211072E-03  0.124443427786E-02  0.147827439592E-03  0.607368993511E-03  0.469014458415E-03
 -0.174509664746E-03 -0.341228863870E-04 -0.135482254198E-04  0.127221517388E-03  0.137597897157E-03 -0.139730101226E-03  0.257502840918E-04
 -0.514194227335E-04 -0.361443086569E-05 -0.245099129677E-03 -0.793309220606E-03  0.166642252566E-04  0.270191030558E-05 -0.292041082722E-04
 -0.341889376133E-04 -0.147774478074E-04 -0.135056730332E-03  0.851398719597E-04 -0.102375812828E-03 -0.750357256361E-04 -0.261160206470E-04
 -0.824431187824E-04 -0.220286285861E-04 -0.785732664663E-05  0.655990045432E-05
 -0.147388257314E-02 -0.135244327285E-02 -0.161008614440E-02 -0.175702996530E-04  0.141277081642E-02  0.153089350378E-02 -0.900887894179E-03
 -0.785887560882E-03  0.108461020251E-02  0.154628891382E-02  0.289968503925E-02  0.159672552211E-02  0.319847666649E-02  0.148285783299E-02
  0.109859864848E-02  0.129755994351E-02 -0.609453914096E-03  0.914918786159E-03  0.183615848106E-02  0.457146149122E-03  0.101742607945E-02
  0.121574262377E-02  0.217733659669E-02  0.148857499414E-02  0.436516946906E-03  0.112462563138E-02  0.111045865331E-02  0.412365564245E-03
  0.497900265567E-03  0.168486135976E-02  0.114020498519E-02  0.489072946849E-03
 -0.487334145195E-02 -0.125950865189E-01 -0.666971574297E-02 -0.197055698392E-01 -0.144253323190E-02 -0.243980045734E-01  0.323043954681E-03
  0.104449050346E-02 -0.242116468778E-01  0.646285105006E-03 -0.169366444986E-02  0.271048059096E-02 -0.139262821847E-02  0.151340763406E-02
  0.377567134624E-02  0.371420996229E-02 -0.101698272891E-02 -0.160969508530E-01  0.188777217487E-02  0.140943789884E-01  0.496446665423E-02
  0.319657440391E-02 -0.908178226497E-03  0.158770224868E-02  0.145984178259E-01 -0.101516134302E-01  0.248060111581E-02  0.161192670656E-01
  0.142608597532E-01  0.129580883219E-02  0.276565238695E-02  0.133518439189E-01
        12        19        11        11
        11         5        12        12
        10        14         5         5
        19        13        11        11
        19        24        13        13
        30        23        24        24
        19        12        22        22
        28        22        21        21
        11        13         6         6
         7         6         9         9
        15        12        14        14
        18        13        23        23
        15        25        21        21
        27        19        22        22
        18         8         9         9
        27        31        24        24
         4        11         6         6
         5        14        12        12
         4         2         5         5
        21        12        15        15
        14        16        15        15
        24        19        27        27
        22        29        27        27
        23        26        18        18
        17         8        18        18
         5        11         4         4
         6         3         4         4
        26        23        30        30
         5         2        10        10
        16        14        10        10
         3         6         7         7
        21        25        28        28
        29        22        28        28
         6        13         9         9
         2         4         1         1
        31        27        32        32
        25        15        20        20
        24        23        13        13
         8         7         9         9
        13        18         9         9
        31        30        24        24
        12        21        22        22
        29        32        27        27
         3         1         4         4
        26        17        18        18
        16        20        15        15
zone t="boundary 2 bc-2", solutiontime= 0.3000000E+02, strandid=1002, i=33, j=48, f=feblock
  0.500195253374E+01  0.375034811161E+01  0.249861146299E+01  0.288036674177E+01  0.124717526933E+01  0.190856698521E+01  0.326577190273E+01
  0.201394856120E+01 -0.338395986572E-02  0.962374249381E+00  0.500000000000E+01  0.403430190008E+01  0.423029563807E+01  0.500000000000E+01
  0.385439188940E+01  0.500000000000E+01  0.398133433176E+01  0.315200081417E+01  0.266958028869E+01  0.154798029824E+01  0.218327860466E+01
  0.893688440338E+00  0.000000000000E+00  0.699009761768E+00  0.964460899052E+00  0.310303671659E+01  0.000000000000E+00  0.000000000000E+00
  0.125000000000E+01  0.500000000000E+01  0.375000000000E+01  0.250000000000E+01  0.000000000000E+00
 -0.249658903664E+01 -0.249658903664E+01 -0.249658903664E+01 -0.249658903664E+01 -0.249658903664E+01 -0.249658903664E+01 -0.249658903664E+01
 -0.249658903664E+01 -0.249658903664E+01 -0.249658903664E+01 -0.249658903664E+01 -0.249658903664E+01 -0.249658903664E+01 -0.249658903664E+01
 -0.249658903664E+01 -0.249658903664E+01 -0.249658903664E+01 -0.249658903664E+01 -0.249658903664E+01 -0.249658903664E+01 -0.249658903664E+01
 -0.249658903664E+01 -0.249658903664E+01 -0.249658903664E+01 -0.249658903664E+01 -0.249658903664E+01 -0.249658903664E+01 -0.249658903664E+01
 -0.249658903664E+01 -0.249658903664E+01 -0.249658903664E+01 -0.249658903664E+01 -0.249658903664E+01
  0.108225889030E-03  0.145875369682E-03  0.100893326425E-03  0.901663374396E+00  0.110858761917E-03  0.714928318829E+00  0.188140648011E+01
  0.175892165504E+01  0.810725962649E-04  0.957504300331E+00  0.125000000000E+01  0.100596698996E+01  0.191313519089E+01  0.250000000000E+01
  0.292898096716E+01  0.375000000000E+01  0.406883369524E+01  0.363389289944E+01  0.284756860985E+01  0.292582308120E+01  0.395754054931E+01
  0.205027256979E+01  0.125000000000E+01  0.306703272692E+01  0.397155766662E+01  0.433068622168E+01  0.250000000000E+01  0.375000000000E+01
  0.500000000000E+01  0.500000000000E+01  0.500000000000E+01  0.500000000000E+01  0.500000000000E+01
  0.000000000000E+00  0.000000000000E+00  0.000000000000E+00  0.380534933893E+00  0.000000000000E+00  0.343213081171E+00  0.585244496925E+00
  0.579499344205E+00  0.000000000000E+00  0.500959578913E+00  0.508769460148E+00  0.434312419771E+00  0.572817919451E+00  0.537160208080E+00
  0.569105645782E+00  0.515014970171E+00  0.508256765061E+00  0.527354036988E+00  0.567656182489E+00  0.531857069084E+00  0.506013391179E+00
  0.521044573739E+00  0.443891909404E+00  0.490703078146E+00  0.492147926412E+00  0.501388000320E+00  0.467740399690E+00  0.488187228171E+00
  0.489959820989E+00  0.491323935798E+00  0.486019442841E+00  0.489980976742E+00  0.495089980244E+00
  0.999993488485E+00  0.999993690942E+00  0.999993544242E+00  0.989596674085E+00  0.999993139053E+00  0.985604091028E+00  0.989839488847E+00
  0.991730617690E+00  0.999992724186E+00  0.984220387528E+00  0.985139981863E+00  0.984817712566E+00  0.990066477090E+00  0.100292374828E+01
  0.999857731400E+00  0.100487268684E+01  0.100122724769E+01  0.100056983810E+01  0.997888256964E+00  0.100350942201E+01  0.100059365414E+01
  0.101090707434E+01  0.104025009063E+01  0.100327959733E+01  0.100254952730E+01  0.100046804572E+01  0.100976460100E+01  0.100405634212E+01
  0.100192626091E+01  0.100045827286E+01  0.100058947226E+01  0.100110091494E+01  0.100176433139E+01
 -0.252079583231E-02 -0.197753519085E-02 -0.121333627375E-02  0.239092488922E-01  0.241375906278E-02  0.782423578732E-01 -0.511856348831E-02
  0.964100795452E-03  0.308624886765E-02  0.364232502941E-01 -0.660206732321E-02 -0.755101192485E-02 -0.518936371038E-02 -0.442207330247E-02
 -0.325729110042E-02 -0.296794447110E-02 -0.218603718890E-02 -0.253402698073E-02 -0.417340558288E-02 -0.499995404400E-02 -0.330552508190E-02
  0.130977782920E-02  0.249022503108E-01 -0.337654347137E-02 -0.606103171806E-02 -0.396173544803E-02 -0.356923824682E-02 -0.695994843052E-02
 -0.289798629034E-01 -0.345871800742E-02 -0.132338761506E-01 -0.254461197706E-01 -0.321708569044E-01
  0.687564659159E-03 -0.191836160688E-03  0.186848900637E-04  0.410755556957E-02 -0.447279371849E-03  0.971830470676E-02 -0.170135819149E-04
 -0.383284205273E-03  0.284470412610E-03  0.430003977118E-02  0.149059788095E-02  0.662760657521E-04  0.754448880693E-03  0.113159814389E-02
  0.752779849863E-03  0.696403768846E-03  0.833475127226E-03  0.694344848450E-03  0.261957087831E-03 -0.421372228749E-03  0.291954882785E-03
 -0.362703091595E-03  0.306805970387E-02 -0.228630189811E-03 -0.699144727524E-03  0.408954938174E-03 -0.896304835365E-03 -0.148648117808E-02
 -0.520579794665E-02  0.174055965467E-03 -0.132897383087E-02 -0.394995009619E-02 -0.668216274503E-02
 -0.155646798850E-03  0.408835943759E-04  0.241449289015E-03  0.558200232664E-03  0.128319031491E-03  0.972806951652E-03 -0.757935275451E-04
  0.876610270521E-05 -0.245099129677E-03  0.373209712569E-03 -0.884622079130E-04 -0.284185953199E-03  0.515115762518E-05  0.834851068127E-05
  0.687819056198E-05 -0.133107110582E-04  0.163031697264E-05 -0.704611195953E-05  0.117826533001E-04  0.277483173178E-04 -0.170605847762E-04
  0.280542003760E-04 -0.102375812828E-03  0.521355836215E-05 -0.277133047466E-05 -0.600947153626E-05 -0.220286285861E-04 -0.785732664663E-05
 -0.284195994063E-05 -0.235642023546E-05  0.474792135351E-06  0.163220110093E-05  0.655990045432E-05
 -0.198473974357E-03 -0.204950365543E-03 -0.309811420211E-03  0.103241612690E-02 -0.716002788427E-03  0.222525179515E-03  0.155876741664E-02
  0.208654779995E-02 -0.609453914096E-03  0.980840898775E-03  0.298727598290E-03  0.108696741373E-02  0.626654524756E-03  0.283276694063E-03
  0.646889955289E-03  0.236897761370E-03  0.628828247849E-03  0.889256939045E-03  0.105475863031E-02  0.109654838951E-02  0.102369594342E-02
  0.165906494743E-02  0.112462563138E-02  0.116484816712E-02  0.102458301032E-02  0.884674583228E-03  0.168486135976E-02  0.114020498519E-02
  0.691625147037E-03  0.368725893480E-03  0.801669353185E-03  0.870278108740E-03  0.489072946849E-03
  0.716966887910E-03  0.197829323738E-02  0.342868717398E-02 -0.108955388140E-01  0.409178458938E-02 -0.335122802708E-01  0.151810652170E-02
 -0.493710467311E-03 -0.101698272891E-02 -0.150928406634E-01  0.142898866571E-02  0.228323103269E-02  0.127765765587E-02  0.847384147543E-03
  0.637145188809E-03  0.599892659931E-03  0.300543356272E-03  0.462003211889E-03  0.114162635694E-02  0.169831291459E-02  0.886543363059E-03
 -0.596875687500E-03 -0.101516134302E-01  0.108733745711E-02  0.221039191060E-02  0.108145890695E-02  0.129580883219E-02  0.276565238695E-02
  0.117735900747E-01  0.104544002751E-02  0.496590315960E-02  0.101162709600E-01  0.133518439189E-01
        15         7        19        19
         8        20        19        19
        18        19        21        21
         7         4         8         8
         3         6         4         4
        19         7         8         8
        19        18        15        15
        14        13        15        15
         8        22        20        20
        27        24        22        22
        19        20        21        21
        32        26        21        21
        17        18        26        26
        17        16        15        15
        25        29        21        21
        12         7        13        13
        10         8         6         6
        25        20        24        24
         4         6         8         8
        12         2         4         4
        10        23        22        22
        26        31        17        17
        30        16        17        17
         4         7        12        12
        13        11        12        12
        21        20        25        25
        24        28        25        25
        22         8        10        10
         6         5        10        10
        31        26        32        32
         4         2         3         3
         5         6         3         3
        11        13        14        14
        22        23        27        27
        28        24        27        27
        15        13         7         7
         2        12         1         1
        29        25        33        33
        23        10         9         9
        21        26        18        18
        16        14        15        15
        18        17        15        15
        29        32        21        21
        22        24        20        20
        28        33        25        25
        11         1        12        12
        31        30        17        17
         5         9        10        10
zone t="boundary 3 bc-3", solutiontime= 0.3000000E+02, strandid=1003, i=33, j=48, f=feblock
  0.375059096892E+01  0.249769609313E+01  0.500322133174E+01  0.403612218725E+01  0.287976772365E+01  0.124541910518E+01  0.190552237404E+01
  0.500000000000E+01  0.326671104552E+01  0.423253755448E+01  0.201271136506E+01 -0.547468544169E-02  0.958895643487E+00  0.500000000000E+01
  0.266968147299E+01  0.385584487271E+01  0.890374214836E+00  0.154654013699E+01  0.000000000000E+00  0.500000000000E+01  0.315261136744E+01
  0.218304199515E+01  0.398195307895E+01  0.000000000000E+00  0.697379952124E+00  0.963757277315E+00  0.125000000000E+01  0.000000000000E+00
  0.500000000000E+01  0.310330738524E+01  0.250000000000E+01  0.375000000000E+01  0.000000000000E+00
  0.250494197117E+01  0.250494197117E+01  0.250494197117E+01  0.250494197117E+01  0.250494197117E+01  0.250494197117E+01  0.250494197117E+01
  0.250494197117E+01  0.250494197117E+01  0.250494197117E+01  0.250494197117E+01  0.250494197117E+01  0.250494197117E+01  0.250494197117E+01
  0.250494197117E+01  0.250494197117E+01  0.250494197117E+01  0.250494197117E+01  0.250494197117E+01  0.250494197117E+01  0.250494197117E+01
  0.250494197117E+01  0.250494197117E+01  0.250494197117E+01  0.250494197117E+01  0.250494197117E+01  0.250494197117E+01  0.250494197117E+01
  0.250494197117E+01  0.250494197117E+01  0.250494197117E+01  0.250494197117E+01  0.250494197117E+01
  0.135649900494E-03  0.110129816467E-03  0.966887303890E-04  0.101756752009E+01  0.908094589218E+00  0.103942505801E-03  0.722629083213E+00
  0.125000000000E+01  0.188965661746E+01  0.191862696980E+01  0.176708239098E+01  0.803813859866E-04  0.969652551954E+00  0.250000000000E+01
  0.285339433501E+01  0.293325058812E+01  0.205656223819E+01  0.293157016932E+01  0.125000000000E+01  0.375000000000E+01  0.363766838842E+01
  0.396069444983E+01  0.407056385475E+01  0.250000000000E+01  0.307031995245E+01  0.397359820314E+01  0.500000000000E+01  0.375000000000E+01
  0.500000000000E+01  0.433260781310E+01  0.500000000000E+01  0.500000000000E+01  0.500000000000E+01
  0.000000000000E+00  0.000000000000E+00  0.000000000000E+00  0.444961626928E+00  0.402838316190E+00  0.000000000000E+00  0.379029001549E+00
  0.508827846411E+00  0.575719767468E+00  0.573484231916E+00  0.562571091033E+00  0.000000000000E+00  0.491643474339E+00  0.534340493553E+00
  0.556353506125E+00  0.564141623675E+00  0.522489639030E+00  0.521815314100E+00  0.440672136512E+00  0.517132480923E+00  0.524064820256E+00
  0.503612613683E+00  0.509416634110E+00  0.469886789982E+00  0.495646532245E+00  0.494503101969E+00  0.488630053423E+00  0.489035017215E+00
  0.492985464012E+00  0.498953669977E+00  0.486505314975E+00  0.484610387305E+00  0.495364848064E+00
  0.999989345567E+00  0.999989414891E+00  0.999989632591E+00  0.981375695393E+00  0.988672653297E+00  0.999989832933E+00  0.982271891095E+00
  0.984075644303E+00  0.990406052732E+00  0.990320090376E+00  0.994390331428E+00  0.999990300362E+00  0.988743428079E+00  0.100365390733E+01
  0.999774597300E+00  0.100117529834E+01  0.100830077599E+01  0.100251293722E+01  0.102982970104E+01  0.100442054131E+01  0.100199281310E+01
  0.100081994749E+01  0.100137956774E+01  0.100825795511E+01  0.100297377722E+01  0.100191712118E+01  0.100214790177E+01  0.100354817652E+01
  0.100047567419E+01  0.100056574043E+01  0.100126719373E+01  0.100066769089E+01  0.100178625606E+01
 -0.170110304251E-02  0.131945147525E-02 -0.282303359685E-02  0.156877159487E-01  0.609433106297E-01  0.384110589785E-02  0.606372581791E-01
 -0.968297001386E-02 -0.489409844957E-02 -0.610766806592E-02  0.101005190266E-01  0.610271684523E-02  0.410991964685E-01 -0.462487131686E-02
 -0.535169624374E-02 -0.380451091391E-02  0.116877702034E-02 -0.518643311174E-02  0.305817142805E-01 -0.315180187010E-02 -0.229979254085E-02
 -0.316445234479E-02 -0.240432285302E-02 -0.160704797464E-02 -0.451039466919E-02 -0.829479550872E-02 -0.257015935246E-01 -0.921146109398E-02
 -0.298745402833E-02 -0.367284761580E-02 -0.239393651109E-01 -0.130069580211E-01 -0.339606019350E-01
 -0.394835180369E-03 -0.382146343927E-03  0.701656510852E-03  0.442892947159E-02  0.840747520731E-02 -0.799762818056E-03  0.748538801752E-02
  0.158132866719E-02 -0.785100479623E-04  0.830466470451E-03  0.180799453810E-03  0.239612975469E-03  0.308080576700E-02  0.121129612304E-02
 -0.757957267581E-04  0.631973113309E-03 -0.115623541361E-02 -0.548261750179E-03  0.442983658501E-02  0.772343963980E-03  0.669603720892E-03
  0.358461097175E-03  0.779808404652E-03 -0.775435270674E-03 -0.106713304400E-02 -0.104198290731E-02 -0.456362371832E-02 -0.203624010159E-02
  0.271784779698E-03  0.428009521362E-03 -0.370387753291E-02 -0.129305979097E-02 -0.694851177488E-02
 -0.746488608721E-04  0.396562449113E-04  0.952508346373E-04 -0.296378083275E-03 -0.856617224708E-03  0.335091280273E-03 -0.119940935951E-04
  0.195014325879E-05 -0.961277396444E-04  0.162454228867E-04 -0.808131017310E-04  0.404752354838E-03  0.466567981372E-03  0.352516406705E-04
 -0.417367160094E-05  0.480685913191E-05 -0.158584900405E-03 -0.592216799293E-04  0.128147112826E-03  0.197003029533E-04  0.958491234172E-05
  0.430568435641E-04  0.808898795036E-06 -0.135482254198E-04 -0.362473568879E-04  0.122161467461E-04  0.178203575462E-04 -0.361443086569E-05
  0.692004755873E-05 -0.197921365595E-06  0.392702331709E-05 -0.933569195319E-06  0.270191030558E-05
 -0.463222519451E-03 -0.864117313876E-03 -0.241688910784E-03  0.649816674259E-03  0.104329879634E-02 -0.833427974888E-03  0.334954945217E-03
  0.375775472232E-03  0.191435006927E-02  0.929811322457E-03  0.277384065641E-02 -0.147388257314E-02  0.915011324196E-03  0.371435793592E-03
  0.986326583974E-03  0.825754737856E-03  0.234205145986E-02  0.104946083302E-02 -0.135244327285E-02  0.329598615020E-03  0.949472643226E-03
  0.979034772317E-03  0.710142604771E-03  0.154628891382E-02  0.151287361992E-02  0.100965063070E-02  0.728162743210E-03  0.129755994351E-02
  0.350551198125E-03  0.920942654009E-03  0.882788107767E-03  0.804608702360E-03  0.457146149122E-03
  0.706146450984E-02  0.301477631990E-02  0.132948474400E-02 -0.815460897219E-02 -0.263870551950E-01  0.193594016976E-03 -0.254629467267E-01
  0.246964880080E-02  0.151546352570E-02  0.158061049571E-02 -0.394504672556E-02 -0.487334145195E-02 -0.161897126347E-01  0.869847938212E-03
  0.169013051957E-02  0.862742086974E-03 -0.347496741103E-03  0.179725244951E-02 -0.125950865189E-01  0.618691278246E-03  0.379294378726E-03
  0.818098836558E-03  0.392338635435E-03  0.646285105006E-03  0.165402824569E-02  0.311942951500E-02  0.103930329899E-01  0.371420996229E-02
  0.846556025388E-03  0.970769631228E-03  0.949688594355E-02  0.486949129211E-02  0.140943789884E-01
        15         9        16        16
        15        18        11        11
        22        15        21        21
        11         5         9         9
         5         7         2         2
        11         9        15        15
        16        21        15        15
        16        10        14        14
        18        17        11        11
        17        25        24        24
        22        18        15        15
        22        30        31        31
        30        21        23        23
        16        20        23        23
        22        27        26        26
        10         9         4         4
         7        11        13        13
        25        18        26        26
        11         7         5         5
         5         1         4         4
        17        19        13        13
        23        32        30        30
        23        20        29        29
         4         9         5         5
         4         8        10        10
        26        18        22        22
        26        28        25        25
        13        11        17        17
        13         6         7         7
        31        30        32        32
         2         1         5         5
         2         7         6         6
        14        10         8         8
        24        19        17        17
        24        25        28        28
         9        10        16        16
         3         4         1         1
        33        26        27        27
        12        13        19        19
        21        30        22        22
        16        14        20        20
        16        23        21        21
        22        31        27        27
        18        25        17        17
        26        33        28        28
         4         3         8         8
        23        29        32        32
        13        12         6         6
zone t="boundary 4 bc-4", solutiontime= 0.3000000E+02, strandid=1004, i=32, j=46, f=feblock
  0.125000000000E+01  0.219251206392E+01  0.103724302461E+01  0.500000000000E+01  0.250000000000E+01  0.375000000000E+01  0.404200324774E+01
  0.500000000000E+01  0.000000000000E+00  0.310152362409E+01  0.202479342020E+01  0.324151231464E+01  0.922061490191E+00  0.000000000000E+00
  0.299062775774E+01  0.394624082883E+01  0.500000000000E+01  0.409252726285E+01  0.500000000000E+01  0.429310310915E+01  0.175434191980E+01
  0.284428995242E+01  0.000000000000E+00  0.000000000000E+00  0.715990576545E+00  0.930412228790E+00  0.125000000000E+01  0.187029682677E+01
  0.500000000000E+01  0.375000000000E+01  0.250000000000E+01  0.000000000000E+00
  0.250494197117E+01  0.157686156160E+01  0.146289271009E+01  0.250494197117E+01  0.250494197117E+01  0.250494197117E+01  0.155830813274E+01
  0.125000000000E+01  0.250494197117E+01  0.177790177481E+01  0.477386199275E+00  0.742988685424E+00  0.308372018325E+00  0.125000000000E+01
 -0.487811078581E+00 -0.144524380962E+01 -0.125000000000E+01 -0.345533899378E+00  0.000000000000E+00  0.627766083140E+00 -0.739814786992E+00
 -0.158811787973E+01  0.000000000000E+00 -0.125000000000E+01 -0.600232012419E+00 -0.154800130438E+01 -0.249658903664E+01 -0.178862290564E+01
 -0.249658903664E+01 -0.249658903664E+01 -0.249658903664E+01 -0.249658903664E+01
  0.500000000000E+01  0.500000000000E+01  0.500000000000E+01  0.500000000000E+01  0.500000000000E+01  0.500000000000E+01  0.500000000000E+01
  0.500000000000E+01  0.500000000000E+01  0.500000000000E+01  0.500000000000E+01  0.500000000000E+01  0.500000000000E+01  0.500000000000E+01
  0.500000000000E+01  0.500000000000E+01  0.500000000000E+01  0.500000000000E+01  0.500000000000E+01  0.500000000000E+01  0.500000000000E+01
  0.500000000000E+01  0.500000000000E+01  0.500000000000E+01  0.500000000000E+01  0.500000000000E+01  0.500000000000E+01  0.500000000000E+01
  0.500000000000E+01  0.500000000000E+01  0.500000000000E+01  0.500000000000E+01
  0.488630053423E+00  0.488907200673E+00  0.490613524454E+00  0.492985464012E+00  0.486505314975E+00  0.484610387305E+00  0.485346346417E+00
  0.494164094826E+00  0.495364848064E+00  0.486544301825E+00  0.487826539497E+00  0.487053944491E+00  0.494057895498E+00  0.496127940578E+00
  0.487590739712E+00  0.483169495133E+00  0.492384717662E+00  0.487198320547E+00  0.494738341209E+00  0.487947262281E+00  0.489650836219E+00
  0.487975047811E+00  0.497248366859E+00  0.496055083747E+00  0.494947818077E+00  0.492777844524E+00  0.489959820989E+00  0.489963118744E+00
  0.491323935798E+00  0.486019442841E+00  0.489980976742E+00  0.495089980244E+00
  0.100214790177E+01  0.100152376261E+01  0.100177920363E+01  0.100047567419E+01  0.100126719373E+01  0.100066769089E+01  0.100025509248E+01
  0.100050308878E+01  0.100178625606E+01  0.100112381228E+01  0.100132857256E+01  0.100072299640E+01  0.100164084009E+01  0.100168369530E+01
  0.100096380429E+01  0.100001109262E+01  0.100083219162E+01  0.100022379580E+01  0.100062130449E+01  0.100023379273E+01  0.100174737467E+01
  0.100099023681E+01  0.100118721261E+01  0.100134451878E+01  0.100132726122E+01  0.100179980273E+01  0.100192626091E+01  0.100163810987E+01
  0.100045827286E+01  0.100058947226E+01  0.100110091494E+01  0.100176433139E+01
 -0.257015935246E-01 -0.248276848435E-01 -0.255770528025E-01 -0.298745402833E-02 -0.239393651109E-01 -0.130069580211E-01 -0.903241367443E-02
 -0.297378910089E-02 -0.339606019350E-01 -0.199492200302E-01 -0.267904191782E-01 -0.187299249313E-01 -0.311862746975E-01 -0.351072724491E-01
 -0.211011028783E-01 -0.870299642811E-02 -0.336922076477E-02 -0.110870458622E-01 -0.275988284145E-02 -0.110653221138E-01 -0.329021693108E-01
 -0.198700315790E-01 -0.386532959361E-01 -0.342725918757E-01 -0.362594771084E-01 -0.289298891904E-01 -0.289798629034E-01 -0.306093550464E-01
 -0.345871800742E-02 -0.132338761506E-01 -0.254461197706E-01 -0.321708569044E-01