title="tecplot geometry and solution file"
variables = x y z rho u v w p mach temperature
zone t="boundary 1 bc-1", solutiontime= 0.1000000E+02, strandid=1001, i=32, j=46, f=feblock
  0.000000000000E+00  0.000000000000E+00  0.000000000000E+00  0.000000000000E+00  0.000000000000E+00  0.000000000000E+00  0.000000000000E+00
  0.000000000000E+00  0.000000000000E+00  0.000000000000E+00  0.000000000000E+00  0.000000000000E+00  0.000000000000E+00  0.000000000000E+00
  0.000000000000E+00  0.000000000000E+00  0.000000000000E+00  0.000000000000E+00  0.000000000000E+00  0.000000000000E+00  0.000000000000E+00
  0.000000000000E+00  0.000000000000E+00  0.000000000000E+00  0.000000000000E+00  0.000000000000E+00  0.000000000000E+00  0.000000000000E+00
  0.000000000000E+00  0.000000000000E+00  0.000000000000E+00  0.000000000000E+00
  0.250000000000E+01  0.250000000000E+01  0.125000000000E+01  0.146289271009E+01  0.157686156160E+01  0.308372018325E+00  0.000000000000E+00
 -0.125000000000E+01 -0.600232012419E+00  0.250000000000E+01  0.477386199275E+00  0.742988685424E+00 -0.739814786992E+00  0.177790177481E+01
  0.155830813274E+01  0.250000000000E+01 -0.250000000000E+01 -0.154800130438E+01 -0.487811078581E+00  0.250000000000E+01  0.627766083140E+00
 -0.345533899378E+00 -0.178862290564E+01 -0.158811787973E+01  0.125000000000E+01 -0.250000000000E+01 -0.144524380962E+01  0.000000000000E+00
 -0.125000000000E+01 -0.250000000000E+01 -0.250000000000E+01 -0.250000000000E+01
  0.000000000000E+00  0.125000000000E+01  0.000000000000E+00  0.103724302461E+01  0.219251206392E+01  0.922061490191E+00  0.000000000000E+00
  0.000000000000E+00  0.715990576545E+00  0.250000000000E+01  0.202479342020E+01  0.324151231464E+01  0.175434191980E+01  0.310152362409E+01
  0.404200324774E+01  0.375000000000E+01  0.000000000000E+00  0.930412228790E+00  0.299062775774E+01  0.500000000000E+01  0.429310310915E+01
  0.409252726285E+01  0.187029682677E+01  0.284428995242E+01  0.500000000000E+01  0.125000000000E+01  0.394624082883E+01  0.500000000000E+01
  0.500000000000E+01  0.250000000000E+01  0.375000000000E+01  0.500000000000E+01
  0.134393726298E+01  0.106288465540E+01  0.142564175476E+01  0.108605470727E+01  0.103189053948E+01  0.120045380199E+01  0.164277129987E+01
  0.149229196394E+01  0.123490158208E+01  0.102374729766E+01  0.102837287887E+01  0.101298352153E+01  0.103297941056E+01  0.101450333314E+01
  0.100651862947E+01  0.100815067644E+01  0.144784338550E+01  0.116337641575E+01  0.101484432440E+01  0.100300437817E+01  0.100671088544E+01
  0.100730178139E+01  0.104658141326E+01  0.101925804496E+01  0.100388244057E+01  0.106492716705E+01  0.100781938204E+01  0.100321489202E+01
  0.100342368720E+01  0.102864922133E+01  0.100953714789E+01  0.100373812975E+01
  0.000000000000E+00  0.446359422998E+00  0.000000000000E+00  0.467564699041E+00  0.463488536612E+00  0.444136787567E+00  0.000000000000E+00
  0.000000000000E+00  0.379423204248E+00  0.472068782020E+00  0.467069434419E+00  0.479431654759E+00  0.489674125888E+00  0.484505519111E+00
  0.488024297858E+00  0.489657577823E+00  0.000000000000E+00  0.450857127780E+00  0.474820436595E+00  0.496308404827E+00  0.491007767092E+00
  0.486785528699E+00  0.449356017344E+00  0.466802339439E+00  0.497492894462E+00  0.445303662478E+00  0.487564642676E+00  0.498116699917E+00
  0.496793788716E+00  0.469846176078E+00  0.489159307237E+00  0.495744652553E+00
  0.000000000000E+00  0.000000000000E+00  0.000000000000E+00  0.175473242145E-01 -0.213765920656E-02  0.327972238875E-01  0.000000000000E+00
  0.000000000000E+00 -0.650250961794E-02  0.000000000000E+00  0.411703993141E-02 -0.522542613352E-02 -0.408033690063E-02  0.339784428557E-04
 -0.824570028268E-03  0.000000000000E+00  0.000000000000E+00 -0.784078547076E-02  0.397632243633E-03  0.000000000000E+00 -0.213217986033E-02
 -0.139201493165E-02  0.163793205204E-02 -0.186745397378E-02 -0.433547975799E-03  0.000000000000E+00 -0.230260196692E-03 -0.412225804224E-03
  0.823781652532E-03  0.000000000000E+00  0.000000000000E+00  0.000000000000E+00
  0.000000000000E+00  0.455564498318E-01  0.000000000000E+00  0.122817554667E+00  0.248509539778E-01  0.165549931622E+00  0.000000000000E+00
  0.000000000000E+00  0.156224556846E+00  0.371051683300E-02  0.269594548173E-01 -0.607280065256E-02  0.753277476603E-01  0.395691672758E-02
  0.296248893466E-03  0.875140155717E-03  0.000000000000E+00  0.140689853433E+00 -0.764479854156E-02  0.449699089373E-02  0.193569474501E-03
 -0.422701433307E-02  0.257863442958E-01 -0.140674273472E-02  0.447975144323E-02  0.843945472945E-01 -0.110399512528E-02  0.318230598933E-02
  0.318133825162E-02  0.268918435664E-02 -0.853254730354E-03  0.445257237575E-02
  0.959955193032E+00  0.781901092790E+00  0.101831555104E+01  0.808256197713E+00  0.745946174714E+00  0.879208782791E+00  0.117340809352E+01
  0.106592285754E+01  0.916227343578E+00  0.737244582475E+00  0.743706856380E+00  0.725750985036E+00  0.757525877341E+00  0.729038636150E+00
  0.720573427063E+00  0.722623714832E+00  0.103417387601E+01  0.857883068123E+00  0.728167145913E+00  0.718030948809E+00  0.721004524901E+00
  0.721150286406E+00  0.759974884725E+00  0.732623122353E+00  0.718476829397E+00  0.791193402183E+00  0.722070972785E+00  0.717593011688E+00
  0.717814053262E+00  0.741825594962E+00  0.723982244663E+00  0.718433141505E+00
  0.000000000000E+00  0.442117908570E+00  0.000000000000E+00  0.473918228953E+00  0.461387702567E+00  0.469209596631E+00  0.000000000000E+00
  0.000000000000E+00  0.402656706555E+00  0.470159556556E+00  0.464976404991E+00  0.478774143278E+00  0.488971746092E+00  0.483059537735E+00
  0.487472269094E+00  0.488805150790E+00  0.000000000000E+00  0.464898751918E+00  0.473811931821E+00  0.495775740087E+00  0.490356413474E+00
  0.486248976872E+00  0.446406192368E+00  0.465346248017E+00  0.497022078475E+00  0.444399574666E+00  0.486822629190E+00  0.497776031070E+00
  0.496429792618E+00  0.467607573214E+00  0.488184693598E+00  0.495254657929E+00
  0.100000000541E+01  0.102989682309E+01  0.100000001171E+01  0.104189841379E+01  0.101204982955E+01  0.102535582283E+01  0.100000001891E+01
  0.100000002454E+01  0.103872106055E+01  0.100820038092E+01  0.101246310587E+01  0.100302853645E+01  0.102667702515E+01  0.100606282629E+01
  0.100226937520E+01  0.100349404549E+01  0.100000002826E+01  0.103237119053E+01  0.100452254574E+01  0.100223224366E+01  0.100267748115E+01
  0.100229188473E+01  0.101660972108E+01  0.100629313290E+01  0.100197744328E+01  0.104013757685E+01  0.100305608318E+01  0.100141078881E+01
  0.100151081481E+01  0.100963069958E+01  0.100399984751E+01  0.100206056570E+01
        12        19        11        11
        11         5        12        12
        10        14         5         5
        19        13        11        11
        19        24        13        13
        30        23        24        24
        19        12        22        22
        28        22        21        21
        11        13         6         6
         7         6         9         9
        15        12        14        14
        18        13        23        23
        15        25        21        21
        27        19        22        22
        18         8         9         9
        27        31        24        24
         4        11         6         6
         5        14        12        12
         4         2         5         5
        21        12        15        15
        14        16        15        15
        24        19        27        27
        22        29        27        27
        23        26        18        18
        17         8        18        18
         5        11         4         4
         6         3         4         4
        26        23        30        30
         5         2        10        10
        16        14        10        10
         3         6         7         7
        21        25        28        28
        29        22        28        28
         6        13         9         9
         2         4         1         1
        31        27        32        32
        25        15        20        20
        24        23        13        13
         8         7         9         9
        13        18         9         9
        31        30        24        24
        12        21        22        22
        29        32        27        27
         3         1         4         4
        26        17        18        18
        16        20        15        15
zone t="boundary 2 bc-2", solutiontime= 0.1000000E+02, strandid=1002, i=33, j=48, f=feblock
  0.500000000000E+01  0.375000000000E+01  0.250000000000E+01  0.288078410721E+01  0.125000000000E+01  0.190974100652E+01  0.326683758169E+01
  0.201431602454E+01  0.000000000000E+00  0.963108083381E+00  0.500000000000E+01  0.403552511878E+01  0.423153924130E+01  0.500000000000E+01
  0.385533350601E+01  0.500000000000E+01  0.398173246726E+01  0.315249557942E+01  0.267000324704E+01  0.154774304040E+01  0.218329375016E+01
  0.893127759452E+00  0.000000000000E+00  0.698517061619E+00  0.964171764089E+00  0.310324758057E+01  0.000000000000E+00  0.000000000000E+00
  0.125000000000E+01  0.500000000000E+01  0.375000000000E+01  0.250000000000E+01  0.000000000000E+00
 -0.250000000000E+01 -0.250000000000E+01 -0.250000000000E+01 -0.250000000000E+01 -0.250000000000E+01 -0.250000000000E+01 -0.250000000000E+01
 -0.250000000000E+01 -0.250000000000E+01 -0.250000000000E+01 -0.250000000000E+01 -0.250000000000E+01 -0.250000000000E+01 -0.250000000000E+01
 -0.250000000000E+01 -0.250000000000E+01 -0.250000000000E+01 -0.250000000000E+01 -0.250000000000E+01 -0.250000000000E+01 -0.250000000000E+01
 -0.250000000000E+01 -0.250000000000E+01 -0.250000000000E+01 -0.250000000000E+01 -0.250000000000E+01 -0.250000000000E+01 -0.250000000000E+01
 -0.250000000000E+01 -0.250000000000E+01 -0.250000000000E+01 -0.250000000000E+01 -0.250000000000E+01
  0.000000000000E+00  0.000000000000E+00  0.000000000000E+00  0.904659890645E+00  0.000000000000E+00  0.717002441913E+00  0.188609243358E+01
  0.176246431481E+01  0.000000000000E+00  0.961328577125E+00  0.125000000000E+01  0.101201586758E+01  0.191586535653E+01  0.250000000000E+01
  0.293121848150E+01  0.375000000000E+01  0.406975391361E+01  0.363585050272E+01  0.285047954584E+01  0.292817774674E+01  0.395907379566E+01
  0.205246550326E+01  0.125000000000E+01  0.306828197606E+01  0.397245519226E+01  0.433168271247E+01  0.250000000000E+01  0.375000000000E+01
  0.500000000000E+01  0.500000000000E+01  0.500000000000E+01  0.500000000000E+01  0.500000000000E+01
  0.831650703337E+00  0.936958676594E+00  0.935433865056E+00  0.968886782011E+00  0.961476095815E+00  0.965357894942E+00  0.983819601334E+00
  0.991385835497E+00  0.144784338550E+01  0.102907028668E+01  0.955959698232E+00  0.962136947423E+00  0.980839918861E+00  0.100469983885E+01
  0.997287172353E+00  0.100954415423E+01  0.100208001151E+01  0.997824557564E+00  0.991303034706E+00  0.100153738844E+01  0.100104725586E+01
  0.101224818550E+01  0.106492716705E+01  0.101060451878E+01  0.100680639233E+01  0.100111595636E+01  0.102864922133E+01  0.100953714789E+01
  0.100528102913E+01  0.100484946959E+01  0.100457962841E+01  0.100326443909E+01  0.100373812975E+01
  0.000000000000E+00  0.000000000000E+00  0.000000000000E+00  0.379920641130E+00  0.000000000000E+00  0.341371776977E+00  0.580278001712E+00
  0.573748762511E+00  0.000000000000E+00  0.489360597526E+00  0.495711024385E+00  0.433928803387E+00  0.567787311833E+00  0.535918438639E+00
  0.567029383977E+00  0.516412772168E+00  0.508659692882E+00  0.528316818315E+00  0.566433884799E+00  0.532986090312E+00  0.506501040706E+00
  0.520722757067E+00  0.445303662478E+00  0.491841544551E+00  0.492648266261E+00  0.501421367889E+00  0.469846176078E+00  0.489159307237E+00
  0.487892611517E+00  0.491895374627E+00  0.485575184429E+00  0.487619654507E+00  0.495744652553E+00
  0.000000000000E+00  0.000000000000E+00  0.000000000000E+00  0.000000000000E+00  0.000000000000E+00  0.000000000000E+00  0.000000000000E+00
  0.000000000000E+00  0.000000000000E+00  0.000000000000E+00  0.000000000000E+00  0.000000000000E+00  0.000000000000E+00  0.000000000000E+00
  0.000000000000E+00  0.000000000000E+00  0.000000000000E+00  0.000000000000E+00  0.000000000000E+00  0.000000000000E+00  0.000000000000E+00
  0.000000000000E+00  0.000000000000E+00  0.000000000000E+00  0.000000000000E+00  0.000000000000E+00  0.000000000000E+00  0.000000000000E+00
  0.000000000000E+00  0.000000000000E+00  0.000000000000E+00  0.000000000000E+00  0.000000000000E+00
  0.000000000000E+00  0.000000000000E+00  0.000000000000E+00 -0.228776113698E-02  0.000000000000E+00  0.184381257570E-01  0.114375126895E-01
  0.449160632005E-01  0.000000000000E+00  0.866334682039E-01 -0.969180783519E-01 -0.217486771925E-01 -0.302183183667E-01 -0.405225797377E-01
 -0.574473591590E-03  0.169049102547E-02  0.185102903141E-02  0.180550263256E-02  0.153236489586E-01  0.288056394259E-01  0.613997696414E-02
  0.554057922318E-01  0.843945472945E-01  0.111767832747E-01  0.660622677869E-02  0.129143555654E-04  0.268918435664E-02 -0.853254730354E-03
  0.370702740205E-02  0.566392452283E-02  0.102359181999E-02  0.913927384509E-03  0.445257237575E-02
  0.594036230744E+00  0.669256215721E+00  0.668167051055E+00  0.684521407679E+00  0.686768652771E+00  0.679274560567E+00  0.695948121524E+00
  0.702389964478E+00  0.103417387601E+01  0.723545205902E+00  0.672748767547E+00  0.676345087859E+00  0.693934108406E+00  0.719881764779E+00
  0.712448858206E+00  0.724516234992E+00  0.716380329530E+00  0.713137339879E+00  0.706611285918E+00  0.717765979780E+00  0.715685448157E+00
  0.730917790960E+00  0.791193402183E+00  0.724240303891E+00  0.721035619452E+00  0.715446772890E+00  0.741825594962E+00  0.723982244663E+00
  0.719780129508E+00  0.717936134009E+00  0.717571793967E+00  0.717292975387E+00  0.718433141505E+00
  0.000000000000E+00  0.000000000000E+00  0.000000000000E+00  0.382014408470E+00  0.000000000000E+00  0.344443230372E+00  0.583211039861E+00
  0.577852095688E+00  0.000000000000E+00  0.500905515866E+00  0.508866344179E+00  0.437959083595E+00  0.571315245891E+00  0.536611824687E+00
  0.566989529774E+00  0.515197660659E+00  0.508446843936E+00  0.528169672138E+00  0.567227141197E+00  0.532877466689E+00  0.506307578642E+00
  0.520830440880E+00  0.444399574666E+00  0.491159524263E+00  0.492047020908E+00  0.501293815607E+00  0.467607573214E+00  0.488184693598E+00
  0.487322626217E+00  0.491864078928E+00  0.485571216306E+00  0.487390845784E+00  0.495254657929E+00
  0.100000002369E+01  0.100000002713E+01  0.100000000686E+01  0.989104184868E+00  0.100000001879E+01  0.985110692912E+00  0.990351654727E+00
  0.991890256105E+00  0.100000002826E+01  0.984348009438E+00  0.985238474286E+00  0.984145890601E+00  0.990485534987E+00  0.100311996849E+01
  0.100014161331E+01  0.100473339847E+01  0.100085068041E+01  0.100056895600E+01  0.997934804646E+00  0.100332986396E+01  0.100091141707E+01
  0.101090317771E+01  0.104013757685E+01  0.100329694417E+01  0.100262560401E+01  0.100050895771E+01  0.100963069958E+01  0.100399984751E+01
  0.100239848571E+01  0.100025985785E+01  0.100002078794E+01  0.100094264923E+01  0.100206056570E+01
        15         7        19        19
         8        20        19        19
        18        19        21        21
         7         4         8         8
         3         6         4         4
        19         7         8         8
        19        18        15        15
        14        13        15        15
         8        22        20        20
        27        24        22        22
        19        20        21        21
        32        26        21        21
        17        18        26        26
        17        16        15        15
        25        29        21        21
        12         7        13        13
        10         8         6         6
        25        20        24        24
         4         6         8         8
        12         2         4         4
        10        23        22        22
        26        31        17        17
        30        16        17        17
         4         7        12        12
        13        11        12        12
        21        20        25        25
        24        28        25        25
        22         8        10        10
         6         5        10        10
        31        26        32        32
         4         2         3         3
         5         6         3         3
        11        13        14        14
        22        23        27        27
        28        24        27        27
        15        13         7         7
         2        12         1         1
        29        25        33        33
        23        10         9         9
        21        26        18        18
        16        14        15        15
        18        17        15        15
        29        32        21        21
        22        24        20        20
        28        33        25        25
        11         1        12        12
        31        30        17        17
         5         9        10        10
zone t="boundary 3 bc-3", solutiontime= 0.1000000E+02, strandid=1003, i=33, j=48, f=feblock
  0.375000000000E+01  0.250000000000E+01  0.500000000000E+01  0.403552511878E+01  0.288078410721E+01  0.125000000000E+01  0.190974100652E+01
  0.500000000000E+01  0.326683758169E+01  0.423153924130E+01  0.201431602454E+01  0.000000000000E+00  0.963108083381E+00  0.500000000000E+01
  0.267000324704E+01  0.385533350601E+01  0.893127759452E+00  0.154774304040E+01  0.000000000000E+00  0.500000000000E+01  0.315249557942E+01
  0.218329375016E+01  0.398173246726E+01  0.000000000000E+00  0.698517061619E+00  0.964171764089E+00  0.125000000000E+01  0.000000000000E+00
  0.500000000000E+01  0.310324758057E+01  0.250000000000E+01  0.375000000000E+01  0.000000000000E+00
  0.250000000000E+01  0.250000000000E+01  0.250000000000E+01  0.250000000000E+01  0.250000000000E+01  0.250000000000E+01  0.250000000000E+01
  0.250000000000E+01  0.250000000000E+01  0.250000000000E+01  0.250000000000E+01  0.250000000000E+01  0.250000000000E+01  0.250000000000E+01
  0.250000000000E+01  0.250000000000E+01  0.250000000000E+01  0.250000000000E+01  0.250000000000E+01  0.250000000000E+01  0.250000000000E+01
  0.250000000000E+01  0.250000000000E+01  0.250000000000E+01  0.250000000000E+01  0.250000000000E+01  0.250000000000E+01  0.250000000000E+01
  0.250000000000E+01  0.250000000000E+01  0.250000000000E+01  0.250000000000E+01  0.250000000000E+01
  0.000000000000E+00  0.000000000000E+00  0.000000000000E+00  0.101201586758E+01  0.904659890645E+00  0.000000000000E+00  0.717002441913E+00
  0.125000000000E+01  0.188609243358E+01  0.191586535653E+01  0.176246431481E+01  0.000000000000E+00  0.961328577125E+00  0.250000000000E+01
  0.285047954584E+01  0.293121848150E+01  0.205246550326E+01  0.292817774674E+01  0.125000000000E+01  0.375000000000E+01  0.363585050272E+01
  0.395907379566E+01  0.406975391361E+01  0.250000000000E+01  0.306828197606E+01  0.397245519226E+01  0.500000000000E+01  0.375000000000E+01
  0.500000000000E+01  0.433168271247E+01  0.500000000000E+01  0.500000000000E+01  0.500000000000E+01
  0.943801135037E+00  0.947735184532E+00  0.844084452275E+00  0.965886855939E+00  0.980207864127E+00  0.957688217116E+00  0.984132875394E+00
  0.964118421564E+00  0.982835945443E+00  0.984086612374E+00  0.990551166896E+00  0.134393726298E+01  0.101910969965E+01  0.100729659532E+01
  0.993499537675E+00  0.997601487680E+00  0.100791781981E+01  0.100077473851E+01  0.106288465540E+01  0.100618502101E+01  0.100059318152E+01
  0.100249345949E+01  0.100182746845E+01  0.102374729766E+01  0.100882632071E+01  0.100540917165E+01  0.100528430110E+01  0.100815067644E+01
  0.100457409340E+01  0.100186459865E+01  0.100460968543E+01  0.100575026196E+01  0.100300437817E+01
  0.000000000000E+00  0.000000000000E+00  0.000000000000E+00  0.440754017993E+00  0.400716279241E+00  0.000000000000E+00  0.373001795699E+00
  0.495611963830E+00  0.571962985471E+00  0.568807332952E+00  0.558798215622E+00  0.000000000000E+00  0.482763211929E+00  0.533601844162E+00
  0.556443484644E+00  0.564021865409E+00  0.522725697473E+00  0.522941786087E+00  0.446359422998E+00  0.518444094783E+00  0.525240040733E+00
  0.503209084692E+00  0.508924226968E+00  0.472068782020E+00  0.496212103712E+00  0.494406734272E+00  0.486390905568E+00  0.489657577823E+00
  0.493313559004E+00  0.498021044752E+00  0.483718261394E+00  0.484199025499E+00  0.496308404827E+00
  0.000000000000E+00  0.000000000000E+00  0.000000000000E+00  0.000000000000E+00  0.000000000000E+00  0.000000000000E+00  0.000000000000E+00
  0.000000000000E+00  0.000000000000E+00  0.000000000000E+00  0.000000000000E+00  0.000000000000E+00  0.000000000000E+00  0.000000000000E+00
  0.000000000000E+00  0.000000000000E+00  0.000000000000E+00  0.000000000000E+00  0.000000000000E+00  0.000000000000E+00  0.000000000000E+00
  0.000000000000E+00  0.000000000000E+00  0.000000000000E+00  0.000000000000E+00  0.000000000000E+00  0.000000000000E+00  0.000000000000E+00
  0.000000000000E+00  0.000000000000E+00  0.000000000000E+00  0.000000000000E+00  0.000000000000E+00
  0.000000000000E+00  0.000000000000E+00  0.000000000000E+00 -0.224701721569E-01  0.108028987397E-01  0.000000000000E+00  0.177284117762E-01
 -0.979376110975E-01  0.370432885667E-02 -0.377272803980E-01  0.330641673321E-01  0.000000000000E+00  0.645426402369E-01 -0.415886350428E-01
  0.829414203196E-02 -0.598459516169E-02  0.483622268753E-01  0.130689778633E-01  0.455564498318E-01 -0.265004427731E-03 -0.367924632846E-03
  0.204149707484E-02  0.141745580235E-02  0.371051683300E-02  0.101467510688E-01  0.438288922193E-02  0.369740996044E-02  0.875140155717E-03
  0.477702856440E-02  0.686023066867E-03  0.206624388018E-02  0.233580895272E-02  0.449699089373E-02
  0.674143673229E+00  0.676953725134E+00  0.602917482004E+00  0.676676762359E+00  0.691681380892E+00  0.684063019395E+00  0.690393728354E+00
  0.677701444946E+00  0.695240398797E+00  0.696245785405E+00  0.703454084988E+00  0.959955193032E+00  0.719436213584E+00  0.722256878639E+00
  0.709527495339E+00  0.713538183319E+00  0.725989182909E+00  0.716688870893E+00  0.781901092790E+00  0.721786642020E+00  0.716088725960E+00
  0.716740885191E+00  0.716386436675E+00  0.737244582475E+00  0.722652317553E+00  0.719585330622E+00  0.719925843040E+00  0.722623714832E+00
  0.717629276664E+00  0.715880964089E+00  0.718220228740E+00  0.718280965879E+00  0.718030948809E+00
  0.000000000000E+00  0.000000000000E+00  0.000000000000E+00  0.445623833757E+00  0.403307946601E+00  0.000000000000E+00  0.376803857402E+00
  0.509262698202E+00  0.574759330809E+00  0.572782492741E+00  0.561397532362E+00  0.000000000000E+00  0.489927153835E+00  0.534196732161E+00
  0.556550405584E+00  0.563671794329E+00  0.522766984726E+00  0.522429563255E+00  0.442117908570E+00  0.517335730612E+00  0.524734074123E+00
  0.502976522319E+00  0.508643597780E+00  0.470159556556E+00  0.495607210835E+00  0.493932604397E+00  0.485774310875E+00  0.488805150790E+00
  0.493310442572E+00  0.497929890452E+00  0.483506471759E+00  0.484242434953E+00  0.495775740087E+00
  0.100000000793E+01  0.100000003235E+01  0.100000002669E+01  0.980805838155E+00  0.987906717225E+00  0.100000001048E+01  0.982134876155E+00
  0.984092826880E+00  0.990334717435E+00  0.990506412048E+00  0.994230032628E+00  0.100000000541E+01  0.988324121892E+00  0.100383505196E+01
  0.999837902088E+00  0.100135521948E+01  0.100840052244E+01  0.100258767597E+01  0.102989682309E+01  0.100428974565E+01  0.100192989004E+01
  0.100094143235E+01  0.100111151165E+01  0.100820038092E+01  0.100286166588E+01  0.100199947571E+01  0.100259814975E+01  0.100349404549E+01
  0.100010640721E+01  0.100036806478E+01  0.100089451138E+01  0.999843987389E+00  0.100223224366E+01
        15         9        16        16
        15        18        11        11
        22        15        21        21
        11         5         9         9
         5         7         2         2
        11         9        15        15
        16        21        15        15
        16        10        14        14
        18        17        11        11
        17        25        24        24
        22        18        15        15
        22        30        31        31
        30        21        23        23
        16        20        23        23
        22        27        26        26
        10         9         4         4
         7        11        13        13
        25        18        26        26
        11         7         5         5
         5         1         4         4
        17        19        13        13
        23        32        30        30
        23        20        29        29
         4         9         5         5
         4         8        10        10
        26        18        22        22
        26        28        25        25
        13        11        17        17
        13         6         7         7
        31        30        32        32
         2         1         5         5
         2         7         6         6
        14        10         8         8
        24        19        17        17
        24        25        28        28
         9        10        16        16
         3         4         1         1
        33        26        27        27
        12        13        19        19
        21        30        22        22
        16        14        20        20
        16        23        21        21
        22        31        27        27
        18        25        17        17
        26        33        28        28
         4         3         8         8
        23        29        32        32
        13        12         6         6
zone t="boundary 4 bc-4", solutiontime= 0.1000000E+02, strandid=1004, i=32, j=46, f=feblock
  0.125000000000E+01  0.219251206392E+01  0.103724302461E+01  0.500000000000E+01  0.250000000000E+01  0.375000000000E+01  0.404200324774E+01
  0.500000000000E+01  0.000000000000E+00  0.310152362409E+01  0.202479342020E+01  0.324151231464E+01  0.922061490191E+00  0.000000000000E+00
  0.299062775774E+01  0.394624082883E+01  0.500000000000E+01  0.409252726285E+01  0.500000000000E+01  0.429310310915E+01  0.175434191980E+01
  0.284428995242E+01  0.000000000000E+00  0.000000000000E+00  0.715990576545E+00  0.930412228790E+00  0.125000000000E+01  0.187029682677E+01
  0.500000000000E+01  0.375000000000E+01  0.250000000000E+01  0.000000000000E+00
  0.250000000000E+01  0.157686156160E+01  0.146289271009E+01  0.250000000000E+01  0.250000000000E+01  0.250000000000E+01  0.155830813274E+01
  0.125000000000E+01  0.250000000000E+01  0.177790177481E+01  0.477386199275E+00  0.742988685424E+00  0.308372018325E+00  0.125000000000E+01
 -0.487811078581E+00 -0.144524380962E+01 -0.125000000000E+01 -0.345533899378E+00  0.000000000000E+00  0.627766083140E+00 -0.739814786992E+00
 -0.158811787973E+01  0.000000000000E+00 -0.125000000000E+01 -0.600232012419E+00 -0.154800130438E+01 -0.250000000000E+01 -0.178862290564E+01
 -0.250000000000E+01 -0.250000000000E+01 -0.250000000000E+01 -0.250000000000E+01
  0.500000000000E+01  0.500000000000E+01  0.500000000000E+01  0.500000000000E+01  0.500000000000E+01  0.500000000000E+01  0.500000000000E+01
  0.500000000000E+01  0.500000000000E+01  0.500000000000E+01  0.500000000000E+01  0.500000000000E+01  0.500000000000E+01  0.500000000000E+01
  0.500000000000E+01  0.500000000000E+01  0.500000000000E+01  0.500000000000E+01  0.500000000000E+01  0.500000000000E+01  0.500000000000E+01
  0.500000000000E+01  0.500000000000E+01  0.500000000000E+01  0.500000000000E+01  0.500000000000E+01  0.500000000000E+01  0.500000000000E+01
  0.500000000000E+01  0.500000000000E+01  0.500000000000E+01  0.500000000000E+01
  0.100528430110E+01  0.100481134522E+01  0.100454594884E+01  0.100457409340E+01  0.100460968543E+01  0.100575026196E+01  0.100519525844E+01
  0.100477747154E+01  0.100300437817E+01  0.100530872610E+01  0.100474091471E+01  0.100468542376E+01  0.100353580229E+01  0.100388244057E+01
  0.100466883188E+01  0.100338492900E+01  0.100511366239E+01  0.100451840292E+01  0.100476650994E+01  0.100579052579E+01  0.100440612065E+01
  0.100395458936E+01  0.100321489202E+01  0.100342368720E+01  0.100313548500E+01  0.100406022807E+01  0.100528102913E+01  0.100421710191E+01
  0.100484946959E+01  0.100457962841E+01  0.100326443909E+01  0.100373812975E+01
  0.486390905568E+00  0.486751543420E+00  0.489156381650E+00  0.493313559004E+00  0.483718261394E+00  0.484199025499E+00  0.486438825663E+00
  0.494607076175E+00  0.496308404827E+00  0.484750075594E+00  0.486075415343E+00  0.486483063322E+00  0.493034152497E+00  0.497492894462E+00
  0.486348400736E+00  0.485257732879E+00  0.493788589687E+00  0.488631221858E+00  0.495402044476E+00  0.489159819961E+00  0.487289497970E+00
  0.486489533890E+00  0.498116699917E+00  0.496793788716E+00  0.494575488799E+00  0.491699142029E+00  0.487892611517E+00  0.487578421890E+00
  0.491895374627E+00  0.485575184429E+00  0.487619654507E+00  0.495744652553E+00
  0.000000000000E+00  0.267004059425E-03 -0.143240565922E-02  0.000000000000E+00  0.000000000000E+00  0.000000000000E+00  0.771264713271E-03
  0.111095124739E-02  0.000000000000E+00  0.657676763625E-03 -0.412204463787E-03  0.156999297404E-03 -0.200977027522E-02 -0.433547975799E-03
 -0.404147370231E-03 -0.183072519868E-03 -0.225658150308E-03 -0.636842551690E-03  0.889153939339E-04  0.123155086770E-06 -0.581250405060E-03
 -0.128141536592E-03 -0.412225804224E-03  0.823781652532E-03 -0.198099812883E-03  0.144681998614E-02  0.000000000000E+00  0.818712781787E-03
  0.000000000000E+00  0.000000000000E+00  0.000000000000E+00  0.000000000000E+00