# vtk DataFile Version 2.0
FUN3D:global_image_vtk
ASCII
DATASET UNSTRUCTURED_GRID
POINTS 213 double
    0.0000000000000000E+00    0.2500000000000000E+01    0.0000000000000000E+00
    0.1250000000000000E+01    0.2500000000000000E+01    0.0000000000000000E+00
    0.2500000000000000E+01    0.2500000000000000E+01    0.0000000000000000E+00
    0.3750000000000000E+01    0.2500000000000000E+01    0.0000000000000000E+00
    0.5000000000000000E+01    0.2500000000000000E+01    0.0000000000000000E+00
    0.5000000000000000E+01    0.1250000000000000E+01    0.0000000000000000E+00
    0.5000000000000000E+01    0.0000000000000000E+00    0.0000000000000000E+00
    0.5000000000000000E+01   -0.1250000000000000E+01    0.0000000000000000E+00
    0.5000000000000000E+01   -0.2500000000000000E+01    0.0000000000000000E+00
    0.3750000000000000E+01   -0.2500000000000000E+01    0.0000000000000000E+00
    0.2500000000000000E+01   -0.2500000000000000E+01    0.0000000000000000E+00
    0.1250000000000000E+01   -0.2500000000000000E+01    0.0000000000000000E+00
    0.0000000000000000E+00   -0.2500000000000000E+01    0.0000000000000000E+00
    0.0000000000000000E+00   -0.1250000000000000E+01    0.0000000000000000E+00
    0.0000000000000000E+00    0.0000000000000000E+00    0.0000000000000000E+00
    0.0000000000000000E+00    0.1250000000000000E+01    0.0000000000000000E+00
    0.9058375365086910E+00    0.1578994732800803E+01    0.0000000000000000E+00
    0.3982050490726493E+01   -0.1583989954232354E+01    0.0000000000000000E+00
    0.4033849428301197E+01    0.1453322699199022E+01    0.0000000000000000E+00
    0.1040505887381675E+01   -0.1479596339503735E+01    0.0000000000000000E+00
    0.1099454400140349E+01   -0.3227322616384110E+00    0.0000000000000000E+00
    0.7354504170366591E+00    0.6593508822075582E+00    0.0000000000000000E+00
    0.1622302608453282E+01    0.8256214013940779E+00    0.0000000000000000E+00
    0.2145871574390382E+01   -0.1650070333782557E+01    0.0000000000000000E+00
    0.4086422318222992E+01   -0.4612828702537229E+00    0.0000000000000000E+00
    0.2979540174134984E+01   -0.8579242121530853E+00    0.0000000000000000E+00
    0.3045064261640043E+01   -0.1836846154397680E+01    0.0000000000000000E+00
    0.3428197553792836E+01    0.3508002863614053E+00    0.0000000000000000E+00
    0.4309693860063405E+01    0.5185680230613409E+00    0.0000000000000000E+00
    0.1827272193562204E+01    0.1738996113203182E+01    0.0000000000000000E+00
    0.2808563282768077E+01    0.1325493893339706E+01    0.0000000000000000E+00
    0.1895995683864404E+01   -0.8731419609589618E+00    0.0000000000000000E+00
    0.2273179336307740E+01    0.4906150219227333E-01    0.0000000000000000E+00
    0.5000000000000000E+01    0.2500000000000000E+01    0.1250000000000000E+01
    0.5000000000000000E+01    0.2500000000000000E+01    0.2500000000000000E+01
    0.5000000000000000E+01    0.2500000000000000E+01    0.3750000000000000E+01
    0.5000000000000000E+01    0.2500000000000000E+01    0.5000000000000000E+01
    0.3750000000000000E+01    0.2500000000000000E+01    0.5000000000000000E+01
    0.2500000000000000E+01    0.2500000000000000E+01    0.5000000000000000E+01
    0.1250000000000000E+01    0.2500000000000000E+01    0.5000000000000000E+01
    0.0000000000000000E+00    0.2500000000000000E+01    0.5000000000000000E+01
    0.0000000000000000E+00    0.2500000000000000E+01    0.3750000000000000E+01
    0.0000000000000000E+00    0.2500000000000000E+01    0.2500000000000000E+01
    0.0000000000000000E+00    0.2500000000000000E+01    0.1250000000000000E+01
    0.9631080833812172E+00    0.2500000000000000E+01    0.9613285771248219E+00
    0.3981732467264904E+01    0.2500000000000000E+01    0.4069753913607991E+01
    0.4035525118777670E+01    0.2500000000000000E+01    0.1012015867579395E+01
    0.9641717640894248E+00    0.2500000000000000E+01    0.3972455192261839E+01
    0.1547743040396780E+01    0.2500000000000000E+01    0.2928177746738678E+01
    0.6985170616192014E+00    0.2500000000000000E+01    0.3068281976055466E+01
    0.8931277594515110E+00    0.2500000000000000E+01    0.2052465503257726E+01
    0.2183293750162785E+01    0.2500000000000000E+01    0.3959073795658649E+01
    0.3855333506014705E+01    0.2500000000000000E+01    0.2931218481500625E+01
    0.3152495579421047E+01    0.2500000000000000E+01    0.3635850502723324E+01
    0.3103247580566054E+01    0.2500000000000000E+01    0.4331682712472464E+01
    0.3266837581688852E+01    0.2500000000000000E+01    0.1886092433583972E+01
    0.4231539241296245E+01    0.2500000000000000E+01    0.1915865356532799E+01
    0.1909741006522088E+01    0.2500000000000000E+01    0.7170024419130505E+00
    0.2880784107213163E+01    0.2500000000000000E+01    0.9046598906449592E+00
    0.2014316024535771E+01    0.2500000000000000E+01    0.1762464314805728E+01
    0.2670003247036656E+01    0.2500000000000000E+01    0.2850479545835163E+01
    0.5000000000000000E+01    0.1250000000000000E+01    0.5000000000000000E+01
    0.5000000000000000E+01    0.0000000000000000E+00    0.5000000000000000E+01
    0.5000000000000000E+01   -0.1250000000000000E+01    0.5000000000000000E+01
    0.5000000000000000E+01   -0.2500000000000000E+01    0.5000000000000000E+01
    0.5000000000000000E+01   -0.2500000000000000E+01    0.3750000000000000E+01
    0.5000000000000000E+01   -0.2500000000000000E+01    0.2500000000000000E+01
    0.5000000000000000E+01   -0.2500000000000000E+01    0.1250000000000000E+01
    0.5000000000000000E+01    0.1578994732800803E+01    0.9058375365086910E+00
    0.5000000000000000E+01   -0.1583989954232354E+01    0.3982050490726493E+01
    0.5000000000000000E+01    0.1453322699199022E+01    0.4033849428301197E+01
    0.5000000000000000E+01   -0.1479596339503735E+01    0.1040505887381675E+01
    0.5000000000000000E+01   -0.3227322616384110E+00    0.1099454400140349E+01
    0.5000000000000000E+01    0.6593508822075582E+00    0.7354504170366591E+00
    0.5000000000000000E+01    0.8256214013940779E+00    0.1622302608453282E+01
    0.5000000000000000E+01   -0.1650070333782557E+01    0.2145871574390382E+01
    0.5000000000000000E+01   -0.4612828702537229E+00    0.4086422318222992E+01
    0.5000000000000000E+01   -0.8579242121530853E+00    0.2979540174134984E+01
    0.5000000000000000E+01   -0.1836846154397680E+01    0.3045064261640043E+01
    0.5000000000000000E+01    0.3508002863614053E+00    0.3428197553792836E+01
    0.5000000000000000E+01    0.5185680230613409E+00    0.4309693860063405E+01
    0.5000000000000000E+01    0.1738996113203182E+01    0.1827272193562204E+01
    0.5000000000000000E+01    0.1325493893339706E+01    0.2808563282768077E+01
    0.5000000000000000E+01   -0.8731419609589618E+00    0.1895995683864404E+01
    0.5000000000000000E+01    0.4906150219227333E-01    0.2273179336307740E+01
    0.0000000000000000E+00    0.1250000000000000E+01    0.5000000000000000E+01
    0.0000000000000000E+00    0.0000000000000000E+00    0.5000000000000000E+01
    0.0000000000000000E+00   -0.1250000000000000E+01    0.5000000000000000E+01
    0.0000000000000000E+00   -0.2500000000000000E+01    0.5000000000000000E+01
    0.1250000000000000E+01   -0.2500000000000000E+01    0.5000000000000000E+01
    0.2500000000000000E+01   -0.2500000000000000E+01    0.5000000000000000E+01
    0.3750000000000000E+01   -0.2500000000000000E+01    0.5000000000000000E+01
    0.4042003247744892E+01    0.1558308132739014E+01    0.5000000000000000E+01
    0.9304122287900499E+00   -0.1548001304379777E+01    0.5000000000000000E+01
    0.1037243024609388E+01    0.1462892710085612E+01    0.5000000000000000E+01
    0.3946240828834967E+01   -0.1445243809615570E+01    0.5000000000000000E+01
    0.4092527262848217E+01   -0.3455338993778935E+00    0.5000000000000000E+01
    0.4293103109154542E+01    0.6277660831404320E+00    0.5000000000000000E+01
    0.3241512314643519E+01    0.7429886854239611E+00    0.5000000000000000E+01
    0.2844289952419609E+01   -0.1588117879734118E+01    0.5000000000000000E+01
    0.7159905765450471E+00   -0.6002320124191652E+00    0.5000000000000000E+01
    0.1754341919796891E+01   -0.7398147869923652E+00    0.5000000000000000E+01
    0.1870296826774691E+01   -0.1788622905643739E+01    0.5000000000000000E+01
    0.9220614901912976E+00    0.3083720183248586E+00    0.5000000000000000E+01
    0.3101523624086016E+01    0.1777901774806180E+01    0.5000000000000000E+01
    0.2192512063922564E+01    0.1576861561598471E+01    0.5000000000000000E+01
    0.2024793420196460E+01    0.4773861992750707E+00    0.5000000000000000E+01
    0.2990627757741975E+01   -0.4878110785814084E+00    0.5000000000000000E+01
    0.0000000000000000E+00   -0.2500000000000000E+01    0.1250000000000000E+01
    0.0000000000000000E+00   -0.2500000000000000E+01    0.2500000000000000E+01
    0.0000000000000000E+00   -0.2500000000000000E+01    0.3750000000000000E+01
    0.0000000000000000E+00    0.1558308132739014E+01    0.4042003247744892E+01
    0.0000000000000000E+00   -0.1548001304379777E+01    0.9304122287900499E+00
    0.0000000000000000E+00    0.1462892710085612E+01    0.1037243024609388E+01
    0.0000000000000000E+00   -0.1445243809615570E+01    0.3946240828834967E+01
    0.0000000000000000E+00   -0.3455338993778935E+00    0.4092527262848217E+01
    0.0000000000000000E+00    0.6277660831404320E+00    0.4293103109154542E+01
    0.0000000000000000E+00    0.7429886854239611E+00    0.3241512314643519E+01
    0.0000000000000000E+00   -0.1588117879734118E+01    0.2844289952419609E+01
    0.0000000000000000E+00   -0.6002320124191652E+00    0.7159905765450471E+00
    0.0000000000000000E+00   -0.7398147869923652E+00    0.1754341919796891E+01
    0.0000000000000000E+00   -0.1788622905643739E+01    0.1870296826774691E+01
    0.0000000000000000E+00    0.3083720183248586E+00    0.9220614901912976E+00
    0.0000000000000000E+00    0.1777901774806180E+01    0.3101523624086016E+01
    0.0000000000000000E+00    0.1576861561598471E+01    0.2192512063922564E+01
[...]
POINT_DATA 213
SCALARS rho double 1
LOOKUP_TABLE default
   0.1344242797902529E+01
   0.9569669093472060E+00
   0.9462868331473603E+00
   0.9418492541492071E+00
   0.8437139247046616E+00
   0.7737844470299272E+00
   0.7629675709547438E+00
   0.7664457515783419E+00
   0.8307766243237465E+00
   0.9352896083417633E+00
   0.9342160015193295E+00
   0.9617131888523012E+00
   0.1449431754933883E+01
   0.1494063302438184E+01
   0.1644628909321653E+01
   0.1425801868102794E+01
   0.1009003203588551E+01
   0.9508731339821963E+00
   0.9436387927955658E+00
   0.9581500295755232E+00
   0.9415792564637483E+00
   0.1036366150625951E+01
   0.9256091512798599E+00
   0.9322292905986287E+00
   0.9537385129606653E+00
   0.9518692520994742E+00
   0.9348513177804137E+00
   0.9563924381301573E+00
   0.9375986719441743E+00
   0.9300585447145945E+00
   0.9445057955384391E+00
   0.8863458402655482E+00
   0.9423502397875672E+00
   0.9634967901158634E+00
   0.1008299033649138E+01
   0.1006735410630373E+01
   0.1001964206776022E+01
   0.1003218948690660E+01
   0.1004131345538978E+01
   0.1005227986546636E+01
   0.1004259910770185E+01
   0.1008307442133892E+01
   0.1023891558252921E+01
   0.1063552932470351E+01
   0.1019178961326970E+01
   0.1001780383126561E+01
   0.9643260209459026E+00
   0.1005282989073133E+01
   0.1000720626389807E+01
   0.1008741143941472E+01
   0.1008077489263729E+01
   0.1002349130199053E+01
   0.9979986324806808E+00
   0.1000583176579244E+01
   0.1001619487102420E+01
   0.9826880199031515E+00
   0.9842426483237059E+00
   0.9833263373238864E+00
   0.9788158039506700E+00
   0.9902628307919720E+00
   0.9934558548063513E+00
   0.1002011387923392E+01
   0.1002134125489733E+01
   0.1002276000472994E+01
   0.1001794353328713E+01
   0.1009778601046480E+01
   0.1006429082467108E+01
   0.9558763680346929E+00
   0.9249340063062499E+00
   0.1007036733583729E+01
   0.1004504888239883E+01
   0.9143606711600553E+00
   0.9089629936590040E+00
   0.8751619070056840E+00
   0.9767255059744561E+00
   0.1000452363636421E+01
   0.1005831152548226E+01
   0.1012883292397306E+01
   0.1011619124187291E+01
   0.1010439188799632E+01
   0.1005468230564617E+01
   0.9907599727075003E+00
   0.1005140627449419E+01
   0.9860562983564184E+00
   0.1005610160298768E+01
   0.1004247500747515E+01
   0.1002887979913512E+01
   0.1003344977748999E+01
   0.1003992271167587E+01
   0.1005101109596249E+01
   0.1003210994803546E+01
   0.1002662603804817E+01
   0.1002585578737468E+01
   0.1004060363247914E+01
   0.1004319807056325E+01
   0.1001641272893966E+01
   0.1002272502102302E+01
   0.1002542883405512E+01
   0.1003468790496725E+01
   0.1003371997963416E+01
   0.1003231755090943E+01
   0.1004423211397641E+01
   0.1004312414486294E+01
   0.1003659380463610E+01
   0.1003722451096610E+01
   0.1004329054624728E+01
   0.1004464272120706E+01
   0.1003622692936023E+01
   0.1064421959631845E+01
   0.1028472078646677E+01
   0.1009585890525626E+01
   0.1006638134464196E+01
   0.1163930985182756E+01
   0.1086087349669588E+01
   0.1007892671445227E+01
   0.1007244807757134E+01
   0.1006797416443808E+01
   0.1013016890000011E+01
   0.1019383214387671E+01
   0.1235194735235050E+01
   0.1032528739187758E+01
   0.1046679009856107E+01
   0.1200946464431198E+01
   0.1014717868971573E+01
   0.1032289303129965E+01
   0.1028093016500628E+01
   0.1014627227542340E+01
   0.1029213871455564E+01
   0.1001994399326251E+01
   0.9606897040262935E+00
   0.1006851869551113E+01
   0.1001326636976236E+01
   0.1010820997104172E+01
   0.1012245402979135E+01
   0.1000945362092692E+01
   0.9979119668609963E+00
   0.9980628000093296E+00
   0.1001183566865732E+01
   0.9841353333713387E+00
   0.9814870823270943E+00
   0.9648448959100882E+00
   0.9680842848827792E+00
   0.9914115418259702E+00
   0.9910854919301085E+00
   0.9925544484710191E+00
   0.1001727099869853E+01
   0.9993407924820726E+00
   0.9941410668524672E+00
   0.1007038765434975E+01
   0.1022538999822535E+01
   0.1001087187987130E+01
   0.1008797640415091E+01
   0.1004773104912752E+01
   0.1009049331715345E+01
   0.9966466268095870E+00
   0.1004983574032170E+01
   0.1003324866198491E+01
   0.9949428519941305E+00
   0.9832675834213105E+00
   0.9943956700498627E+00
   0.9973419482358689E+00
   0.9932190059166733E+00
   0.1001305913805295E+01
   0.1003000989001527E+01
   0.1002183027238132E+01
   0.9947080134983323E+00
   0.9937963966439479E+00
   0.1004867098169158E+01
   0.1020077195644044E+01
   0.1005363934221195E+01
   0.9816993505237287E+00
   0.1004972357503354E+01
   0.1012381459294964E+01
   0.9871382104764529E+00
   0.9551484702528052E+00
   0.9865069320598806E+00
   0.9864526639682841E+00
   0.9918904710628124E+00
   0.9933500273352124E+00
   0.9954361784273678E+00
   0.1037335988301478E+01
   0.1033534212436007E+01
   0.1001443010154067E+01
   0.1001929897308724E+01
   0.9912478162261111E+00
   0.9910918110359573E+00
   0.9648473301105215E+00
   0.9933280293960716E+00
   0.1006058606859912E+01
   0.1001953997440109E+01
   0.9908732368406006E+00
   0.9740921255850000E+00
   0.9418745694996348E+00
   0.9819354003395017E+00
   0.9794798887241092E+00
   0.9704139424240091E+00
   0.9720456855564482E+00
   0.9557335063755122E+00
   0.9496702887068766E+00
   0.9528627249804438E+00
   0.1002658828597179E+01
   0.1002470975273259E+01
   0.1000508943068460E+01
   0.1001677403669517E+01
   0.9607876384554430E+00
   0.9491566531745517E+00
   0.9584460390436176E+00
   0.1001120616283034E+01
   0.1000495665067725E+01
   0.1001156498484739E+01
   0.9807371585326129E+00
   0.9805979978255118E+00
   0.9628434529904214E+00
SCALARS u double 1
LOOKUP_TABLE default
   0.0000000000000000E+00
   0.0000000000000000E+00
   0.0000000000000000E+00
   0.0000000000000000E+00
   0.0000000000000000E+00
   0.0000000000000000E+00
   0.0000000000000000E+00
   0.0000000000000000E+00
   0.0000000000000000E+00
   0.0000000000000000E+00
   0.0000000000000000E+00
   0.0000000000000000E+00
   0.0000000000000000E+00
   0.0000000000000000E+00
   0.0000000000000000E+00
   0.0000000000000000E+00
   0.0000000000000000E+00
   0.0000000000000000E+00
   0.0000000000000000E+00
   0.0000000000000000E+00
   0.0000000000000000E+00
   0.0000000000000000E+00
   0.0000000000000000E+00
   0.0000000000000000E+00
   0.0000000000000000E+00
   0.0000000000000000E+00
   0.0000000000000000E+00
   0.0000000000000000E+00
   0.0000000000000000E+00
   0.0000000000000000E+00
   0.0000000000000000E+00
   0.0000000000000000E+00
   0.0000000000000000E+00
   0.4950206160388436E+00
   0.5338212254137183E+00
   0.5183260317852202E+00
   0.4930649935100776E+00
   0.4847586058704174E+00
   0.4867676183830860E+00
   0.4890772599687067E+00
   0.4957854215364820E+00
   0.4898309960702839E+00
   0.4717403829991182E+00
   0.4454827921648827E+00
   0.4833889453318602E+00
   0.5098397618923169E+00
   0.4390744311416695E+00
   0.4949410995275210E+00
   0.5225332962536945E+00
   0.4962461897872741E+00
   0.5226159038133461E+00
   0.5038887265482619E+00
   0.5646879865148514E+00
   0.5247509811802403E+00
   0.4991471388405879E+00
   0.5730564420816726E+00
   0.5696058320535202E+00
   0.3737932822892730E+00
   0.3998667886931904E+00
   0.5599320189762300E+00
   0.5564586168428827E+00
   0.4942626771732472E+00
   0.4948658499363654E+00
   0.4925734671371608E+00
   0.4914269681895211E+00
   0.5162349669090451E+00
   0.5361791187004528E+00
   0.4947433484881970E+00
   0.4524161241905599E+00
   0.5128770771567743E+00
   0.5117935543251115E+00
   0.4783549929113883E+00
   0.4931733387433690E+00
   0.4603237504625283E+00
   0.5244908223556858E+00
   0.5297431436184846E+00
   0.5129571877267096E+00
   0.5328346144796080E+00
   0.5308931096202704E+00
   0.5309843361221945E+00
   0.5063651059915999E+00
   0.5282467087129221E+00
   0.5410301390234504E+00
   0.5361264997685820E+00
   0.5374096483233749E+00
   0.4965369631343303E+00
   0.4975345315745205E+00
   0.4963847366422633E+00
   0.4955225295215898E+00
   0.4904590716458764E+00
   0.4903053769049215E+00
   0.4862189614985700E+00
   0.4854055674648658E+00
   0.4932171746145648E+00
   0.4909841409470961E+00
   0.4832200659753971E+00
   0.4872627894078464E+00
   0.4880129219488075E+00
   0.4872454569912121E+00
   0.4882705940464346E+00
   0.4952603980544862E+00
   0.4900977032846976E+00
   0.4904009754061452E+00
   0.4944240034838883E+00
   0.4868011257708948E+00
   0.4892395582060405E+00
   0.4881403488486197E+00
   0.4878466932656795E+00
   0.4446877954514696E+00
   0.4700043114631468E+00
   0.4892006919511582E+00
   0.4885255794419583E+00
   0.4506561708499752E+00
   0.4687388752702699E+00
   0.4877018516494563E+00
   0.4868361901661117E+00
   0.4909001463769848E+00
   0.4793564711231655E+00
   0.4658085926144616E+00
   0.3792773282614170E+00
   0.4901600370749171E+00
   0.4486704611614409E+00
   0.4436174716701872E+00
   0.4845157965928674E+00
   0.4621839374772498E+00
   0.4665765165538791E+00
   0.4748154277387912E+00
   0.4894482483841582E+00
   0.5085556787978576E+00
   0.4315098934105103E+00
   0.4927356580145557E+00
   0.5318289254973352E+00
   0.4913406812696082E+00
   0.5207022838774878E+00
   0.5060969237850110E+00
   0.5688793618995940E+00
   0.5273992578024108E+00
   0.5015049443712267E+00
   0.5821794853594267E+00
   0.5689625512585433E+00
   0.3406398316221337E+00
   0.3789883339121830E+00
   0.5751954080297560E+00
   0.5666482543108022E+00
   0.5704107536669011E+00
   0.5291057297595150E+00
   0.5451903588109617E+00
   0.5718802977495643E+00
   0.5389083652496117E+00
   0.5475511931396126E+00
   0.5821710357724479E+00
   0.4925608222155584E+00
   0.5042162988069314E+00
   0.4961742824849510E+00
   0.5565203174668468E+00
   0.4758815628808852E+00
   0.4950275696424550E+00
   0.5498525142705283E+00
   0.5891206312208987E+00
   0.5841955654236116E+00
   0.5469096235688518E+00
   0.5805415787661341E+00
   0.5106255288383590E+00
   0.5030206292810308E+00
   0.5033628370783363E+00
   0.5676441093418643E+00
   0.5563941970311724E+00
   0.4947262744316450E+00
   0.5505241770876304E+00
   0.5510853909110912E+00
   0.5657350925596347E+00
   0.4920077649293212E+00
   0.4927305733159207E+00
   0.3865152513954227E+00
   0.3687765076840225E+00
   0.5574926944403034E+00
   0.5763753064974744E+00
   0.4194303955298137E+00
   0.5824844207739249E+00
   0.4265196481365291E+00
   0.5392800184222301E+00
   0.5012031446941940E+00
   0.5119512304684621E+00
   0.5049124401271964E+00
   0.5751973030723764E+00
   0.5876369306823488E+00
   0.5379922330383947E+00
   0.5677469832474100E+00
   0.5351243136203485E+00
   0.5338051330145942E+00
   0.5580311345572100E+00
   0.5512721803176045E+00
   0.4261891378803923E+00
   0.5273362217678568E+00
   0.5795717087951021E+00
   0.3318704992561343E+00
   0.4760295305526331E+00
   0.5446212699976138E+00
   0.4798358430212402E+00
   0.3005315306045052E+00
   0.5031055758166727E+00
   0.5017121903803125E+00
   0.5129033784175867E+00
   0.5414834519550217E+00
   0.3437625798195229E+00
   0.3397748690328463E+00
   0.3189950934069982E+00
   0.5065940430224819E+00
   0.5123484853324205E+00
   0.5330310737220213E+00
   0.5879307864630142E+00
   0.4644182862973440E+00
   0.3531293187274439E+00
SCALARS v double 1
LOOKUP_TABLE default
   0.0000000000000000E+00
   0.0000000000000000E+00
   0.0000000000000000E+00
   0.0000000000000000E+00
   0.0000000000000000E+00
   0.0000000000000000E+00
   0.0000000000000000E+00
   0.0000000000000000E+00
   0.0000000000000000E+00
   0.0000000000000000E+00
   0.0000000000000000E+00
   0.0000000000000000E+00
   0.0000000000000000E+00
   0.0000000000000000E+00
   0.0000000000000000E+00
   0.0000000000000000E+00
   0.0000000000000000E+00
   0.0000000000000000E+00
   0.0000000000000000E+00
   0.0000000000000000E+00
   0.0000000000000000E+00
   0.0000000000000000E+00
   0.0000000000000000E+00
   0.0000000000000000E+00
   0.0000000000000000E+00
   0.0000000000000000E+00
   0.0000000000000000E+00
   0.0000000000000000E+00
   0.0000000000000000E+00
   0.0000000000000000E+00
   0.0000000000000000E+00
   0.0000000000000000E+00
   0.0000000000000000E+00
   0.0000000000000000E+00
   0.0000000000000000E+00
   0.0000000000000000E+00
   0.0000000000000000E+00
   0.0000000000000000E+00
   0.0000000000000000E+00
   0.0000000000000000E+00
   0.0000000000000000E+00
   0.0000000000000000E+00
   0.0000000000000000E+00
   0.0000000000000000E+00
   0.0000000000000000E+00
   0.0000000000000000E+00
   0.0000000000000000E+00
   0.0000000000000000E+00
   0.0000000000000000E+00
   0.0000000000000000E+00
   0.0000000000000000E+00
   0.0000000000000000E+00
   0.0000000000000000E+00
   0.0000000000000000E+00
   0.0000000000000000E+00
   0.0000000000000000E+00
   0.0000000000000000E+00
   0.0000000000000000E+00
   0.0000000000000000E+00
   0.0000000000000000E+00
   0.0000000000000000E+00
   0.7970113040705547E-03
  -0.1329290703087274E-02
  -0.1332585957155473E-02
   0.0000000000000000E+00
   0.0000000000000000E+00
   0.0000000000000000E+00
   0.0000000000000000E+00
  -0.1922531000553847E-01
   0.4770460859924851E-03
   0.2183390483451832E-02
   0.1427371544825209E-01
  -0.6487544755541200E-02
  -0.7820864057537676E-02
  -0.1327661150561491E-01
   0.4914531592450340E-02
   0.6907141291326770E-03
   0.3434440174384780E-02
   0.1920798961895897E-02
   0.3148094486936048E-02
   0.1704812034057093E-02
  -0.7315911254025509E-02
  -0.7677215590978666E-04
   0.4469039964669534E-02
  -0.4383163193417751E-03
  -0.6380724012492497E-04
  -0.1963349206152621E-03
   0.8070829339588316E-03
   0.0000000000000000E+00
   0.0000000000000000E+00
   0.0000000000000000E+00
   0.0000000000000000E+00
   0.4256455218330804E-03
   0.1616267665811084E-02
  -0.1297512799534524E-02
  -0.1022734147432514E-02
  -0.2134313332328668E-02
  -0.1064028096427960E-02
  -0.8200130135166906E-03
  -0.7616754972754482E-03
   0.5200611478627032E-04
  -0.6243842704892090E-03
   0.7916412890953740E-03
  -0.1745202582649397E-02
   0.2746760685152423E-03
  -0.8940413123004059E-04
  -0.9424108623383255E-03
  -0.1100163033696395E-02
   0.0000000000000000E+00
   0.0000000000000000E+00
   0.0000000000000000E+00
  -0.1061776612419209E-02
  -0.7640967473038842E-02
   0.1860805745027772E-01
  -0.2829518142348476E-04
  -0.1383064843109998E-02
  -0.2035053313441253E-02
  -0.5666323124081964E-02
  -0.1585139773790448E-02
  -0.5946276272268874E-02
  -0.4160242051191340E-02
   0.1565725009938568E-02
   0.3329447846738456E-01
   0.3050351187065611E-04
  -0.2767198246845746E-02
   0.3566285533135146E-02
   0.3597259505975658E-03
   0.0000000000000000E+00
   0.0000000000000000E+00
   0.0000000000000000E+00
   0.0000000000000000E+00
   0.0000000000000000E+00
   0.0000000000000000E+00
   0.0000000000000000E+00
   0.0000000000000000E+00
   0.0000000000000000E+00
   0.0000000000000000E+00
   0.0000000000000000E+00
   0.0000000000000000E+00
   0.0000000000000000E+00
   0.0000000000000000E+00
   0.0000000000000000E+00
   0.0000000000000000E+00
   0.0000000000000000E+00
   0.5047042216781308E-02
   0.3230754810083131E-02
   0.8148946836840098E-02
   0.6168370455369575E-02
   0.1122885236294459E-01
   0.1429254726593672E-01
  -0.2036562704620633E-03
   0.5118090479147850E-02
   0.2914858522855007E-02
   0.3373410051431357E-02
   0.3728267008845153E-02
  -0.1465634444989476E-01
  -0.6159306783250422E-03
   0.6651548317059826E-02
   0.1542345139713704E-02
   0.1969756355704021E-02
   0.4266244346369015E-02
  -0.2790692424728876E-02
   0.1226855347464844E-02
   0.2819099224905682E-02
   0.1497392036801206E-02
   0.2575462951102781E-02
   0.2030660650438190E-02
   0.2117993263974950E-02
   0.8700408359856257E-02
  -0.3733271711132853E-02
   0.6241144004729286E-02
   0.2517955494856725E-04
  -0.3853063177975364E-03
  -0.1674611552732806E-01
  -0.4881647177196831E-02
  -0.4719683427832468E-02
   0.3445317695185289E-02
  -0.6135292257853183E-02
   0.9957900502230836E-04
  -0.3291236891385203E-01
  -0.3046069486361501E-02
   0.4722814906589307E-02
   0.9228252731424152E-03
   0.2112120574420766E-02
   0.4518858926369473E-02
   0.2720430518699785E-02
   0.3212693046324184E-02
   0.5200823895709978E-02
   0.1941853953315039E-02
   0.7316059143849080E-03
  -0.2556114932552358E-04
  -0.5374447826314352E-02
  -0.6959092808575678E-02
  -0.9440657264402626E-03
   0.1105331261480614E-02
  -0.2080298693218532E-02
  -0.3200130086819258E-02
  -0.2527341254495437E-02
  -0.4114846502899148E-02
  -0.7593695774686286E-02
  -0.1985607223912984E-02
   0.6240487108456746E-03
  -0.2238989804608453E-03
   0.1216976142102494E-02
  -0.3483530689320870E-02
   0.5229835878549365E-02
  -0.8487758840931696E-02
   0.2317482335161767E-04
  -0.3395115454904123E-03
   0.2542660262643698E-02
   0.1663406998421597E-02
   0.2021333398180901E-02
  -0.5620355242111717E-02
SCALARS w double 1
LOOKUP_TABLE default
   0.0000000000000000E+00
   0.0000000000000000E+00
   0.0000000000000000E+00
   0.0000000000000000E+00
   0.0000000000000000E+00
   0.0000000000000000E+00
   0.0000000000000000E+00
   0.0000000000000000E+00
   0.0000000000000000E+00
   0.0000000000000000E+00
   0.0000000000000000E+00
   0.0000000000000000E+00
   0.0000000000000000E+00
   0.0000000000000000E+00
   0.0000000000000000E+00
   0.0000000000000000E+00
   0.0000000000000000E+00
   0.0000000000000000E+00
   0.0000000000000000E+00
   0.0000000000000000E+00
   0.0000000000000000E+00
   0.0000000000000000E+00
   0.0000000000000000E+00
   0.0000000000000000E+00
   0.0000000000000000E+00
   0.0000000000000000E+00
   0.0000000000000000E+00
   0.0000000000000000E+00
   0.0000000000000000E+00
   0.0000000000000000E+00
   0.0000000000000000E+00
   0.0000000000000000E+00
   0.0000000000000000E+00
  -0.1007648973165854E+00
  -0.4249506414467007E-01
   0.7364035567251668E-03
   0.5725629849259109E-02
   0.5695152083827551E-03
   0.1609197026950405E-02
   0.3374465795300031E-02
   0.2371488987424225E-02
   0.4590167148187528E-03
   0.3518226683679622E-02
   0.4521680258782989E-01
   0.6522685816793805E-01
   0.8683224668167056E-03
  -0.2261293754336236E-01
   0.4316068473768653E-02
   0.1358667940781851E-01
   0.1039403278089305E-01
   0.4900443985497171E-01
   0.2436793561493016E-02
  -0.6511022274223152E-02
  -0.7019703657558954E-03
   0.3405019044830037E-03
   0.3903214648540458E-02
  -0.3893445411543725E-01
   0.1798125516473920E-01
   0.1119663196742109E-01
   0.3403680186706607E-01
   0.8437978472696152E-02
   0.4937150712280560E-02
   0.4970188376724999E-02
   0.4871289619127713E-02
   0.6027000665897743E-02
   0.2598496533039972E-02
  -0.4144580142759735E-01
  -0.9954509992062220E-01
  -0.1121719867746216E+00
   0.5070302919284721E-02
   0.4230173909003663E-02
  -0.1004760726191072E+00
  -0.9895570534317719E-01
  -0.9875812989502827E-01
  -0.9462831135179091E-01
  -0.6807333100702308E-01
   0.5154379793826623E-02
  -0.1935453315287928E-01
  -0.1575909287319897E-01
  -0.6003863990439369E-02
   0.6818648041569139E-02
  -0.8010348008168616E-01
  -0.2781256972164651E-01
  -0.8096693760501238E-01
  -0.5873495340237385E-01
   0.3083338301316798E-02
   0.2684897073247545E-02
   0.2640169217319420E-02
   0.3449904855417761E-02
   0.4006529799829106E-02
   0.1200624603024629E-02
  -0.1443247391742764E-03
   0.2039650158787377E-02
   0.4895124193480891E-02
   0.3856805478118134E-02
   0.1113947533557548E-02
   0.1182458006086799E-02
   0.1465127323048838E-02
  -0.1694023846261409E-04
   0.8942336947158136E-04
   0.4386141457586227E-02
   0.2715124037794951E-02
   0.2322162859309323E-02
   0.5009993760693028E-02
   0.1071137865549774E-02
   0.2711583048514766E-02
   0.2013420517512906E-02
   0.2830956833002312E-04
   0.8374353020877842E-01
   0.2793780555200504E-02
  -0.8347084602014234E-03
  -0.1494350971725128E-03
   0.1409498621241449E+00
   0.1239292075058245E+00
  -0.1219206563623730E-02
  -0.4381949753577917E-02
  -0.3044080264865772E-03
  -0.6512371314768364E-02
  -0.1949727461344183E-02
   0.1557579873419055E+00
   0.7489743108681780E-01
   0.2550109760172203E-01
   0.1656387034440966E+00