title="tecplot geometry and solution file"
variables = x y z rho u v w p mach temperature
zone t="boundary 1 bc-1", solutiontime= 0.4000000E+02, strandid=1001, i=32, j=46, f=feblock
  0.000000000000E+00  0.000000000000E+00  0.000000000000E+00  0.000000000000E+00  0.000000000000E+00  0.000000000000E+00  0.000000000000E+00
  0.000000000000E+00  0.000000000000E+00  0.000000000000E+00  0.000000000000E+00  0.000000000000E+00  0.000000000000E+00  0.000000000000E+00
  0.000000000000E+00  0.000000000000E+00  0.000000000000E+00  0.000000000000E+00  0.000000000000E+00  0.000000000000E+00  0.000000000000E+00
  0.000000000000E+00  0.000000000000E+00  0.000000000000E+00  0.000000000000E+00  0.000000000000E+00  0.000000000000E+00  0.000000000000E+00
  0.000000000000E+00  0.000000000000E+00  0.000000000000E+00  0.000000000000E+00
  0.250000000000E+01  0.250000000000E+01  0.125000000000E+01  0.146289271009E+01  0.157686156160E+01  0.308372018325E+00  0.000000000000E+00
 -0.125000000000E+01 -0.600232012419E+00  0.250000000000E+01  0.477386199275E+00  0.742988685424E+00 -0.739814786992E+00  0.177790177481E+01
  0.155830813274E+01  0.250000000000E+01 -0.250000000000E+01 -0.154800130438E+01 -0.487811078581E+00  0.250000000000E+01  0.627766083140E+00
 -0.345533899378E+00 -0.178862290564E+01 -0.158811787973E+01  0.125000000000E+01 -0.250000000000E+01 -0.144524380962E+01  0.000000000000E+00
 -0.125000000000E+01 -0.250000000000E+01 -0.250000000000E+01 -0.250000000000E+01
  0.000000000000E+00  0.125000000000E+01  0.000000000000E+00  0.103724302461E+01  0.219251206392E+01  0.922061490191E+00  0.000000000000E+00
  0.000000000000E+00  0.715990576545E+00  0.250000000000E+01  0.202479342020E+01  0.324151231464E+01  0.175434191980E+01  0.310152362409E+01
  0.404200324774E+01  0.375000000000E+01  0.000000000000E+00  0.930412228790E+00  0.299062775774E+01  0.500000000000E+01  0.429310310915E+01
  0.409252726285E+01  0.187029682677E+01  0.284428995242E+01  0.500000000000E+01  0.125000000000E+01  0.394624082883E+01  0.500000000000E+01
  0.500000000000E+01  0.250000000000E+01  0.375000000000E+01  0.500000000000E+01
  0.134424280185E+01  0.106355292923E+01  0.142580186849E+01  0.108608734600E+01  0.103228930007E+01  0.120094646667E+01  0.164462890761E+01
  0.149406329945E+01  0.123519473476E+01  0.102389155765E+01  0.102809301332E+01  0.101301688881E+01  0.103252873965E+01  0.101471786679E+01
  0.100663813428E+01  0.100830743876E+01  0.144943175785E+01  0.116393098018E+01  0.101462722419E+01  0.100425990982E+01  0.100679741801E+01
  0.100724480818E+01  0.104667900577E+01  0.101938320921E+01  0.100424750047E+01  0.106442196976E+01  0.100789266880E+01  0.100288798464E+01
  0.100334497916E+01  0.102847207525E+01  0.100958588919E+01  0.100399227793E+01
  0.000000000000E+00  0.445482796647E+00  0.000000000000E+00  0.468738873001E+00  0.462183940198E+00  0.443617472579E+00  0.000000000000E+00
  0.000000000000E+00  0.379277329674E+00  0.471740382377E+00  0.466576524359E+00  0.479356474553E+00  0.490160032438E+00  0.484515798641E+00
  0.488525568448E+00  0.489831007669E+00  0.000000000000E+00  0.450656188328E+00  0.474815434839E+00  0.495785409528E+00  0.490900134971E+00
  0.486836186308E+00  0.448670465089E+00  0.465808604515E+00  0.496536964494E+00  0.444687771135E+00  0.487701843086E+00  0.497534527607E+00
  0.496384732501E+00  0.470004316193E+00  0.489200694408E+00  0.495522532431E+00
  0.000000000000E+00  0.000000000000E+00  0.000000000000E+00  0.186080626426E-01 -0.276719631288E-02  0.332944769080E-01  0.000000000000E+00
  0.000000000000E+00 -0.594627772974E-02  0.000000000000E+00  0.356628675920E-02 -0.566631984651E-02 -0.416024369569E-02  0.305055847538E-04
 -0.106178267843E-02  0.000000000000E+00  0.000000000000E+00 -0.764096613362E-02  0.359726725719E-03  0.000000000000E+00 -0.203505885550E-02
 -0.138306813365E-02  0.156572580704E-02 -0.158514274382E-02 -0.638094105834E-04  0.000000000000E+00 -0.282947398665E-04 -0.196336978131E-03
  0.807083255087E-03  0.000000000000E+00  0.000000000000E+00  0.000000000000E+00
  0.000000000000E+00  0.452168066452E-01  0.000000000000E+00  0.123929205672E+00  0.247642727840E-01  0.165638703124E+00  0.000000000000E+00
  0.000000000000E+00  0.155757986709E+00  0.351822741646E-02  0.259773423778E-01 -0.651237293331E-02  0.748974286824E-01  0.371823416967E-02
 -0.149432561511E-03  0.459013108544E-03  0.000000000000E+00  0.140949861128E+00 -0.808569935032E-02  0.237148430223E-02 -0.304401066858E-03
 -0.438195066800E-02  0.255010990526E-01 -0.194972903880E-02  0.308333520961E-02  0.837435220668E-01 -0.121920614614E-02  0.268488981811E-02
  0.264016938018E-02  0.279377951494E-02 -0.834710722881E-03  0.344989849608E-02
  0.960173435081E+00  0.782339004079E+00  0.101842991799E+01  0.808724949826E+00  0.746124149313E+00  0.879441879239E+00  0.117473495622E+01
  0.106718809723E+01  0.916614145682E+00  0.737393761973E+00  0.743551851769E+00  0.725758019364E+00  0.757453476174E+00  0.729187268355E+00
  0.720784344385E+00  0.722780893788E+00  0.103530842772E+01  0.858313754420E+00  0.728063844919E+00  0.718614793317E+00  0.721012783693E+00
  0.721150890308E+00  0.760016763197E+00  0.732627149249E+00  0.718530666332E+00  0.791041533779E+00  0.722107204038E+00  0.717198935507E+00
  0.717636426339E+00  0.741798262862E+00  0.724055791578E+00  0.718400170623E+00
  0.000000000000E+00  0.441239792743E+00  0.000000000000E+00  0.475215272785E+00  0.460125474905E+00  0.468829036898E+00  0.000000000000E+00
  0.000000000000E+00  0.402304825854E+00  0.469816609036E+00  0.464412792570E+00  0.478715412693E+00  0.489298657523E+00  0.483069734421E+00
  0.487930924185E+00  0.488962553159E+00  0.000000000000E+00  0.464777196897E+00  0.473797123510E+00  0.495347161278E+00  0.490266832139E+00
  0.486286960778E+00  0.445719488299E+00  0.464383779117E+00  0.496127921539E+00  0.443625004721E+00  0.486965328646E+00  0.497246758180E+00
  0.496059781732E+00  0.467733899402E+00  0.488212954768E+00  0.495098815983E+00
  0.100000000541E+01  0.102982613804E+01  0.100000001171E+01  0.104247133891E+01  0.101190025797E+01  0.102520692229E+01  0.100000001891E+01
  0.100000002454E+01  0.103891294857E+01  0.100826230966E+01  0.101252764000E+01  0.100300521969E+01  0.102702697361E+01  0.100605518943E+01
  0.100244372608E+01  0.100355626905E+01  0.100000002826E+01  0.103239734713E+01  0.100459494737E+01  0.100179316211E+01  0.100260278693E+01
  0.100234941718E+01  0.101657094736E+01  0.100617510636E+01  0.100168826150E+01  0.104043150062E+01  0.100303347464E+01  0.100118709675E+01
  0.100134153032E+01  0.100976739476E+01  0.100405336392E+01  0.100176093082E+01
        12        19        11        11
        11         5        12        12
        10        14         5         5
        19        13        11        11
        19        24        13        13
        30        23        24        24
        19        12        22        22
        28        22        21        21
        11        13         6         6
         7         6         9         9
        15        12        14        14
        18        13        23        23
        15        25        21        21
        27        19        22        22
        18         8         9         9
        27        31        24        24
         4        11         6         6
         5        14        12        12
         4         2         5         5
        21        12        15        15
        14        16        15        15
        24        19        27        27
        22        29        27        27
        23        26        18        18
        17         8        18        18
         5        11         4         4
         6         3         4         4
        26        23        30        30
         5         2        10        10
        16        14        10        10
         3         6         7         7
        21        25        28        28
        29        22        28        28
         6        13         9         9
         2         4         1         1
        31        27        32        32
        25        15        20        20
        24        23        13        13
         8         7         9         9
        13        18         9         9
        31        30        24        24
        12        21        22        22
        29        32        27        27
         3         1         4         4
        26        17        18        18
        16        20        15        15
zone t="boundary 2 bc-2", solutiontime= 0.4000000E+02, strandid=1002, i=33, j=48, f=feblock
  0.500000000000E+01  0.375000000000E+01  0.250000000000E+01  0.288078410721E+01  0.125000000000E+01  0.190974100652E+01  0.326683758169E+01
  0.201431602454E+01  0.000000000000E+00  0.963108083381E+00  0.500000000000E+01  0.403552511878E+01  0.423153924130E+01  0.500000000000E+01
  0.385533350601E+01  0.500000000000E+01  0.398173246726E+01  0.315249557942E+01  0.267000324704E+01  0.154774304040E+01  0.218329375016E+01
  0.893127759452E+00  0.000000000000E+00  0.698517061619E+00  0.964171764089E+00  0.310324758057E+01  0.000000000000E+00  0.000000000000E+00
  0.125000000000E+01  0.500000000000E+01  0.375000000000E+01  0.250000000000E+01  0.000000000000E+00
 -0.250000000000E+01 -0.250000000000E+01 -0.250000000000E+01 -0.250000000000E+01 -0.250000000000E+01 -0.250000000000E+01 -0.250000000000E+01
 -0.250000000000E+01 -0.250000000000E+01 -0.250000000000E+01 -0.250000000000E+01 -0.250000000000E+01 -0.250000000000E+01 -0.250000000000E+01
 -0.250000000000E+01 -0.250000000000E+01 -0.250000000000E+01 -0.250000000000E+01 -0.250000000000E+01 -0.250000000000E+01 -0.250000000000E+01
 -0.250000000000E+01 -0.250000000000E+01 -0.250000000000E+01 -0.250000000000E+01 -0.250000000000E+01 -0.250000000000E+01 -0.250000000000E+01
 -0.250000000000E+01 -0.250000000000E+01 -0.250000000000E+01 -0.250000000000E+01 -0.250000000000E+01
  0.000000000000E+00  0.000000000000E+00  0.000000000000E+00  0.904659890645E+00  0.000000000000E+00  0.717002441913E+00  0.188609243358E+01
  0.176246431481E+01  0.000000000000E+00  0.961328577125E+00  0.125000000000E+01  0.101201586758E+01  0.191586535653E+01  0.250000000000E+01
  0.293121848150E+01  0.375000000000E+01  0.406975391361E+01  0.363585050272E+01  0.285047954584E+01  0.292817774674E+01  0.395907379566E+01
  0.205246550326E+01  0.125000000000E+01  0.306828197606E+01  0.397245519226E+01  0.433168271247E+01  0.250000000000E+01  0.375000000000E+01
  0.500000000000E+01  0.500000000000E+01  0.500000000000E+01  0.500000000000E+01  0.500000000000E+01
  0.830776629479E+00  0.935289613293E+00  0.934215999162E+00  0.968084287058E+00  0.961713186871E+00  0.964844903272E+00  0.984135337816E+00
  0.991411541928E+00  0.144943175785E+01  0.102921386921E+01  0.955876388605E+00  0.960689733279E+00  0.981487087143E+00  0.100642906276E+01
  0.997911958263E+00  0.100977865045E+01  0.100199443114E+01  0.998062781840E+00  0.991085494136E+00  0.100132663661E+01  0.100094535511E+01
  0.101224540155E+01  0.106442196976E+01  0.101082099160E+01  0.100685186483E+01  0.100118355190E+01  0.102847207525E+01  0.100958588919E+01
  0.100510110529E+01  0.100179434583E+01  0.100266256281E+01  0.100321099453E+01  0.100399227793E+01
  0.000000000000E+00  0.000000000000E+00  0.000000000000E+00  0.378988331354E+00  0.000000000000E+00  0.340639833670E+00  0.582179484822E+00
  0.575195409747E+00  0.000000000000E+00  0.489448248824E+00  0.494743320501E+00  0.431509900642E+00  0.568962535611E+00  0.536179129039E+00
  0.568879356571E+00  0.516234973231E+00  0.508555800628E+00  0.527399290360E+00  0.566648261753E+00  0.531828937186E+00  0.506096939682E+00
  0.520702281429E+00  0.444687771135E+00  0.491340690395E+00  0.492735662001E+00  0.501504986592E+00  0.470004316193E+00  0.489200694408E+00
  0.490459043381E+00  0.491426979468E+00  0.486218959449E+00  0.490305368278E+00  0.495522532431E+00
  0.000000000000E+00  0.000000000000E+00  0.000000000000E+00  0.000000000000E+00  0.000000000000E+00  0.000000000000E+00  0.000000000000E+00
  0.000000000000E+00  0.000000000000E+00  0.000000000000E+00  0.000000000000E+00  0.000000000000E+00  0.000000000000E+00  0.000000000000E+00
  0.000000000000E+00  0.000000000000E+00  0.000000000000E+00  0.000000000000E+00  0.000000000000E+00  0.000000000000E+00  0.000000000000E+00
  0.000000000000E+00  0.000000000000E+00  0.000000000000E+00  0.000000000000E+00  0.000000000000E+00  0.000000000000E+00  0.000000000000E+00
  0.000000000000E+00  0.000000000000E+00  0.000000000000E+00  0.000000000000E+00  0.000000000000E+00
  0.000000000000E+00  0.000000000000E+00  0.000000000000E+00 -0.229657121571E-02  0.000000000000E+00  0.183563567224E-01  0.121115422188E-01
  0.454977890255E-01  0.000000000000E+00  0.870767655550E-01 -0.995450847653E-01 -0.211874702571E-01 -0.306454287172E-01 -0.414458022672E-01
 -0.137978105496E-02  0.259852777724E-02  0.608897737228E-03  0.502792549255E-03  0.150958392677E-01  0.284016455960E-01  0.564094471470E-02
  0.553407791250E-01  0.837435220668E-01  0.110436484177E-01  0.679119910886E-02 -0.758748611762E-03  0.279377951494E-02 -0.834710722881E-03
  0.400652033615E-02  0.602706307863E-02 -0.144336543086E-03  0.120058152987E-02  0.344989849608E-02
  0.593411892259E+00  0.668064027616E+00  0.667297146839E+00  0.684256848907E+00  0.686938003529E+00  0.679201439447E+00  0.695810966463E+00
  0.702343285416E+00  0.103530842772E+01  0.723694309542E+00  0.672590454515E+00  0.675701741220E+00  0.694092518667E+00  0.720959683689E+00
  0.712690810990E+00  0.724770626922E+00  0.716580133859E+00  0.713298425167E+00  0.706428978312E+00  0.717736450478E+00  0.715375950303E+00
  0.730936604610E+00  0.791041533779E+00  0.724372014620E+00  0.721010012785E+00  0.715456958329E+00  0.741798262862E+00  0.724055791578E+00
  0.719312327264E+00  0.715892460055E+00  0.716608354472E+00  0.717367290062E+00  0.718400170623E+00
  0.000000000000E+00  0.000000000000E+00  0.000000000000E+00  0.380992830757E+00  0.000000000000E+00  0.343629570776E+00  0.585286650690E+00
  0.579372754054E+00  0.000000000000E+00  0.501053908213E+00  0.508462666950E+00  0.435375202807E+00  0.572640844876E+00  0.537001607906E+00
  0.568922314035E+00  0.514993452160E+00  0.508247414161E+00  0.527252950181E+00  0.567446483559E+00  0.531657252578E+00  0.505981554347E+00
  0.520795933787E+00  0.443625004721E+00  0.490664550776E+00  0.492156658271E+00  0.501391343971E+00  0.467733899402E+00  0.488212954768E+00
  0.490003681109E+00  0.491352343410E+00  0.486076200186E+00  0.490037469884E+00  0.495098815983E+00
  0.100000002369E+01  0.100000002713E+01  0.100000000686E+01  0.989541511288E+00  0.100000001879E+01  0.985528360053E+00  0.989838811408E+00
  0.991798620449E+00  0.100000002826E+01  0.984413505947E+00  0.985092473825E+00  0.984690899610E+00  0.990058390846E+00  0.100289587663E+01
  0.999854874093E+00  0.100485277366E+01  0.100121533237E+01  0.100055609066E+01  0.997896322253E+00  0.100349975116E+01  0.100058042661E+01
  0.101093197843E+01  0.104043150062E+01  0.100326450370E+01  0.100254471701E+01  0.100045565047E+01  0.100976739476E+01  0.100405336392E+01
  0.100192632649E+01  0.100045428310E+01  0.100058756902E+01  0.100109968049E+01  0.100176093082E+01
        15         7        19        19
         8        20        19        19
        18        19        21        21
         7         4         8         8
         3         6         4         4
        19         7         8         8
        19        18        15        15
        14        13        15        15
         8        22        20        20
        27        24        22        22
        19        20        21        21
        32        26        21        21
        17        18        26        26
        17        16        15        15
        25        29        21        21
        12         7        13        13
        10         8         6         6
        25        20        24        24
         4         6         8         8
        12         2         4         4
        10        23        22        22
        26        31        17        17
        30        16        17        17
         4         7        12        12
        13        11        12        12
        21        20        25        25
        24        28        25        25
        22         8        10        10
         6         5        10        10
        31        26        32        32
         4         2         3         3
         5         6         3         3
        11        13        14        14
        22        23        27        27
        28        24        27        27
        15        13         7         7
         2        12         1         1
        29        25        33        33
        23        10         9         9
        21        26        18        18
        16        14        15        15
        18        17        15        15
        29        32        21        21
        22        24        20        20
        28        33        25        25
        11         1        12        12
        31        30        17        17
         5         9        10        10
zone t="boundary 3 bc-3", solutiontime= 0.4000000E+02, strandid=1003, i=33, j=48, f=feblock
  0.375000000000E+01  0.250000000000E+01  0.500000000000E+01  0.403552511878E+01  0.288078410721E+01  0.125000000000E+01  0.190974100652E+01
  0.500000000000E+01  0.326683758169E+01  0.423153924130E+01  0.201431602454E+01  0.000000000000E+00  0.963108083381E+00  0.500000000000E+01
  0.267000324704E+01  0.385533350601E+01  0.893127759452E+00  0.154774304040E+01  0.000000000000E+00  0.500000000000E+01  0.315249557942E+01
  0.218329375016E+01  0.398173246726E+01  0.000000000000E+00  0.698517061619E+00  0.964171764089E+00  0.125000000000E+01  0.000000000000E+00
  0.500000000000E+01  0.310324758057E+01  0.250000000000E+01  0.375000000000E+01  0.000000000000E+00
  0.250000000000E+01  0.250000000000E+01  0.250000000000E+01  0.250000000000E+01  0.250000000000E+01  0.250000000000E+01  0.250000000000E+01
  0.250000000000E+01  0.250000000000E+01  0.250000000000E+01  0.250000000000E+01  0.250000000000E+01  0.250000000000E+01  0.250000000000E+01
  0.250000000000E+01  0.250000000000E+01  0.250000000000E+01  0.250000000000E+01  0.250000000000E+01  0.250000000000E+01  0.250000000000E+01
  0.250000000000E+01  0.250000000000E+01  0.250000000000E+01  0.250000000000E+01  0.250000000000E+01  0.250000000000E+01  0.250000000000E+01
  0.250000000000E+01  0.250000000000E+01  0.250000000000E+01  0.250000000000E+01  0.250000000000E+01
  0.000000000000E+00  0.000000000000E+00  0.000000000000E+00  0.101201586758E+01  0.904659890645E+00  0.000000000000E+00  0.717002441913E+00
  0.125000000000E+01  0.188609243358E+01  0.191586535653E+01  0.176246431481E+01  0.000000000000E+00  0.961328577125E+00  0.250000000000E+01
  0.285047954584E+01  0.293121848150E+01  0.205246550326E+01  0.292817774674E+01  0.125000000000E+01  0.375000000000E+01  0.363585050272E+01
  0.395907379566E+01  0.406975391361E+01  0.250000000000E+01  0.306828197606E+01  0.397245519226E+01  0.500000000000E+01  0.375000000000E+01
  0.500000000000E+01  0.433168271247E+01  0.500000000000E+01  0.500000000000E+01  0.500000000000E+01
  0.941849263684E+00  0.946286827766E+00  0.843713967794E+00  0.964326328539E+00  0.978815883291E+00  0.956966906900E+00  0.983326330735E+00
  0.963497029138E+00  0.982688001467E+00  0.984242691435E+00  0.990262820126E+00  0.134424280185E+01  0.101917896445E+01  0.100829901103E+01
  0.993455851666E+00  0.997998622716E+00  0.100807748842E+01  0.100072062388E+01  0.106355292923E+01  0.100673540524E+01  0.100058317602E+01
  0.100234912733E+01  0.100178040055E+01  0.102389155765E+01  0.100874114221E+01  0.100528298731E+01  0.100522797863E+01  0.100830743876E+01
  0.100196425810E+01  0.100161947482E+01  0.100413132319E+01  0.100321895228E+01  0.100425990982E+01
  0.000000000000E+00  0.000000000000E+00  0.000000000000E+00  0.439074380307E+00  0.399866772673E+00  0.000000000000E+00  0.373793276733E+00
  0.495020341045E+00  0.573056446230E+00  0.569605807052E+00  0.559932027158E+00  0.000000000000E+00  0.483388943498E+00  0.533821246946E+00
  0.556458622625E+00  0.564687973369E+00  0.522615906542E+00  0.522533303512E+00  0.445482796647E+00  0.518325975999E+00  0.524750959322E+00
  0.503888707995E+00  0.509839706681E+00  0.471740382377E+00  0.496246195741E+00  0.494941096029E+00  0.489077266828E+00  0.489831007669E+00
  0.493065122871E+00  0.499147105193E+00  0.486767663082E+00  0.484758868120E+00  0.495785409528E+00
  0.000000000000E+00  0.000000000000E+00  0.000000000000E+00  0.000000000000E+00  0.000000000000E+00  0.000000000000E+00  0.000000000000E+00
  0.000000000000E+00  0.000000000000E+00  0.000000000000E+00  0.000000000000E+00  0.000000000000E+00  0.000000000000E+00  0.000000000000E+00
  0.000000000000E+00  0.000000000000E+00  0.000000000000E+00  0.000000000000E+00  0.000000000000E+00  0.000000000000E+00  0.000000000000E+00
  0.000000000000E+00  0.000000000000E+00  0.000000000000E+00  0.000000000000E+00  0.000000000000E+00  0.000000000000E+00  0.000000000000E+00
  0.000000000000E+00  0.000000000000E+00  0.000000000000E+00  0.000000000000E+00  0.000000000000E+00
  0.000000000000E+00  0.000000000000E+00  0.000000000000E+00 -0.226129582042E-01  0.111966285208E-01  0.000000000000E+00  0.179812554076E-01
 -0.100764834488E+00  0.390321695594E-02 -0.389344209315E-01  0.340368042274E-01  0.000000000000E+00  0.652268610722E-01 -0.424950190361E-01
  0.843797534270E-02 -0.651100629294E-02  0.490044421769E-01  0.135866712690E-01  0.452168066452E-01  0.736392871688E-03 -0.701956974908E-03
  0.243679184030E-02  0.868345610687E-03  0.351822741646E-02  0.103940305305E-01  0.431606681118E-02  0.337446375120E-02  0.459013108544E-03
  0.572564285131E-02  0.340535090044E-03  0.160920267377E-02  0.569453828014E-03  0.237148430223E-02
  0.672749479395E+00  0.675919184553E+00  0.602652850224E+00  0.676092316779E+00  0.691308045408E+00  0.683547797807E+00  0.690066445321E+00
  0.677273199632E+00  0.695200953530E+00  0.696249915138E+00  0.703343420105E+00  0.960173435081E+00  0.719725783410E+00  0.722866315993E+00
  0.709447089857E+00  0.713700388390E+00  0.726066344221E+00  0.716602162934E+00  0.782339004079E+00  0.722284312595E+00  0.716128037006E+00
  0.716550973192E+00  0.716546084354E+00  0.737393761973E+00  0.722682012732E+00  0.719440553153E+00  0.719565460752E+00  0.722780893788E+00
  0.716029894270E+00  0.715847214035E+00  0.718146084037E+00  0.717061899409E+00  0.718614793317E+00
  0.000000000000E+00  0.000000000000E+00  0.000000000000E+00  0.443770357484E+00  0.402287173456E+00  0.000000000000E+00  0.377548510288E+00
  0.509235236669E+00  0.575832410524E+00  0.573708253955E+00  0.562553352179E+00  0.000000000000E+00  0.490560547798E+00  0.534526494593E+00
  0.556587006540E+00  0.564391405950E+00  0.522731057970E+00  0.522052385496E+00  0.441239792743E+00  0.517181491774E+00  0.524228794084E+00
  0.503688052735E+00  0.509488598237E+00  0.469816609036E+00  0.495615248657E+00  0.494484541689E+00  0.488563395374E+00  0.488962553159E+00
  0.492980888276E+00  0.499006095272E+00  0.486462014457E+00  0.484597963823E+00  0.495347161278E+00
  0.100000000793E+01  0.100000003235E+01  0.100000002669E+01  0.981544540970E+00  0.988777644593E+00  0.100000001048E+01  0.982474477956E+00
  0.984105244552E+00  0.990427616385E+00  0.990355213888E+00  0.994363080321E+00  0.100000000541E+01  0.988654722986E+00  0.100368326392E+01
  0.999768559554E+00  0.100118429124E+01  0.100834796291E+01  0.100252058783E+01  0.102982613804E+01  0.100443277585E+01  0.100199491241E+01
  0.100082030814E+01  0.100138165764E+01  0.100826230966E+01  0.100298756092E+01  0.100192362462E+01  0.100215241365E+01  0.100355626905E+01
  0.100047665760E+01  0.100056570868E+01  0.100126795612E+01  0.100066556447E+01  0.100179316211E+01
        15         9        16        16
        15        18        11        11
        22        15        21        21
        11         5         9         9
         5         7         2         2
        11         9        15        15
        16        21        15        15
        16        10        14        14
        18        17        11        11
        17        25        24        24
        22        18        15        15
        22        30        31        31
        30        21        23        23
        16        20        23        23
        22        27        26        26
        10         9         4         4
         7        11        13        13
        25        18        26        26
        11         7         5         5
         5         1         4         4
        17        19        13        13
        23        32        30        30
        23        20        29        29
         4         9         5         5
         4         8        10        10
        26        18        22        22
        26        28        25        25
        13        11        17        17
        13         6         7         7
        31        30        32        32
         2         1         5         5
         2         7         6         6
        14        10         8         8
        24        19        17        17
        24        25        28        28
         9        10        16        16
         3         4         1         1
        33        26        27        27
        12        13        19        19
        21        30        22        22
        16        14        20        20
        16        23        21        21
        22        31        27        27
        18        25        17        17
        26        33        28        28
         4         3         8         8
        23        29        32        32
        13        12         6         6
zone t="boundary 4 bc-4", solutiontime= 0.4000000E+02, strandid=1004, i=32, j=46, f=feblock
  0.125000000000E+01  0.219251206392E+01  0.103724302461E+01  0.500000000000E+01  0.250000000000E+01  0.375000000000E+01  0.404200324774E+01
  0.500000000000E+01  0.000000000000E+00  0.310152362409E+01  0.202479342020E+01  0.324151231464E+01  0.922061490191E+00  0.000000000000E+00
  0.299062775774E+01  0.394624082883E+01  0.500000000000E+01  0.409252726285E+01  0.500000000000E+01  0.429310310915E+01  0.175434191980E+01
  0.284428995242E+01  0.000000000000E+00  0.000000000000E+00  0.715990576545E+00  0.930412228790E+00  0.125000000000E+01  0.187029682677E+01
  0.500000000000E+01  0.375000000000E+01  0.250000000000E+01  0.000000000000E+00
  0.250000000000E+01  0.157686156160E+01  0.146289271009E+01  0.250000000000E+01  0.250000000000E+01  0.250000000000E+01  0.155830813274E+01
  0.125000000000E+01  0.250000000000E+01  0.177790177481E+01  0.477386199275E+00  0.742988685424E+00  0.308372018325E+00  0.125000000000E+01
 -0.487811078581E+00 -0.144524380962E+01 -0.125000000000E+01 -0.345533899378E+00  0.000000000000E+00  0.627766083140E+00 -0.739814786992E+00
 -0.158811787973E+01  0.000000000000E+00 -0.125000000000E+01 -0.600232012419E+00 -0.154800130438E+01 -0.250000000000E+01 -0.178862290564E+01
 -0.250000000000E+01 -0.250000000000E+01 -0.250000000000E+01 -0.250000000000E+01
  0.500000000000E+01  0.500000000000E+01  0.500000000000E+01  0.500000000000E+01  0.500000000000E+01  0.500000000000E+01  0.500000000000E+01
  0.500000000000E+01  0.500000000000E+01  0.500000000000E+01  0.500000000000E+01  0.500000000000E+01  0.500000000000E+01  0.500000000000E+01
  0.500000000000E+01  0.500000000000E+01  0.500000000000E+01  0.500000000000E+01  0.500000000000E+01  0.500000000000E+01  0.500000000000E+01
  0.500000000000E+01  0.500000000000E+01  0.500000000000E+01  0.500000000000E+01  0.500000000000E+01  0.500000000000E+01  0.500000000000E+01
  0.500000000000E+01  0.500000000000E+01  0.500000000000E+01  0.500000000000E+01
  0.100522797863E+01  0.100432903437E+01  0.100431979668E+01  0.100196425810E+01  0.100413132319E+01  0.100321895228E+01  0.100258556300E+01
  0.100201140569E+01  0.100425990982E+01  0.100372246165E+01  0.100446426507E+01  0.100346875528E+01  0.100365937263E+01  0.100424750047E+01
  0.100362268919E+01  0.100164122894E+01  0.100227596674E+01  0.100227246430E+01  0.100213412082E+01  0.100254283717E+01  0.100442319398E+01
  0.100337197986E+01  0.100288798464E+01  0.100334497916E+01  0.100323175172E+01  0.100406036561E+01  0.100510110529E+01  0.100431240620E+01
  0.100179434583E+01  0.100266256281E+01  0.100321099453E+01  0.100399227793E+01
  0.489077266828E+00  0.489239605363E+00  0.490984160416E+00  0.493065122871E+00  0.486767663082E+00  0.484758868120E+00  0.485405885242E+00
  0.494262853218E+00  0.495785409528E+00  0.486801251023E+00  0.488140386362E+00  0.487245596535E+00  0.494424020646E+00  0.496536964494E+00
  0.487846759428E+00  0.483220097628E+00  0.492573495077E+00  0.487262942631E+00  0.494865959274E+00  0.488013178575E+00  0.490097711832E+00
  0.488270591022E+00  0.497534527607E+00  0.496384732501E+00  0.495260408169E+00  0.493217180380E+00  0.490459043381E+00  0.490400960158E+00
  0.491426979468E+00  0.486218959449E+00  0.490305368278E+00  0.495522532431E+00
  0.000000000000E+00 -0.893910673466E-04 -0.129750535685E-02  0.000000000000E+00  0.000000000000E+00  0.000000000000E+00  0.425593986970E-03
  0.796973510141E-03  0.000000000000E+00  0.274685086729E-03 -0.942389012114E-03 -0.819942161992E-03 -0.174520636126E-02 -0.638094105834E-04
 -0.110008670647E-02 -0.102266775934E-02 -0.133248781403E-02 -0.213417589474E-02 -0.132920861163E-02 -0.106397441124E-02 -0.624358351818E-03
 -0.761625939585E-03 -0.196336978131E-03  0.807083255087E-03  0.520063576707E-04  0.161627728274E-02  0.000000000000E+00  0.791658513427E-03
  0.000000000000E+00  0.000000000000E+00  0.000000000000E+00  0.000000000000E+00