title="tecplot geometry and solution file"
variables = x y z rho u v w p mach temperature
zone t="boundary 1 bc-1", solutiontime= 0.2000000E+02, strandid=1001, i=32, j=46, f=feblock
  0.000000000000E+00  0.000000000000E+00  0.000000000000E+00  0.000000000000E+00  0.000000000000E+00  0.000000000000E+00  0.000000000000E+00
  0.000000000000E+00  0.000000000000E+00  0.000000000000E+00  0.000000000000E+00  0.000000000000E+00  0.000000000000E+00  0.000000000000E+00
  0.000000000000E+00  0.000000000000E+00  0.000000000000E+00  0.000000000000E+00  0.000000000000E+00  0.000000000000E+00  0.000000000000E+00
  0.000000000000E+00  0.000000000000E+00  0.000000000000E+00  0.000000000000E+00  0.000000000000E+00  0.000000000000E+00  0.000000000000E+00
  0.000000000000E+00  0.000000000000E+00  0.000000000000E+00  0.000000000000E+00
  0.250000000000E+01  0.250000000000E+01  0.125000000000E+01  0.146289271009E+01  0.157686156160E+01  0.308372018325E+00  0.000000000000E+00
 -0.125000000000E+01 -0.600232012419E+00  0.250000000000E+01  0.477386199275E+00  0.742988685424E+00 -0.739814786992E+00  0.177790177481E+01
  0.155830813274E+01  0.250000000000E+01 -0.250000000000E+01 -0.154800130438E+01 -0.487811078581E+00  0.250000000000E+01  0.627766083140E+00
 -0.345533899378E+00 -0.178862290564E+01 -0.158811787973E+01  0.125000000000E+01 -0.250000000000E+01 -0.144524380962E+01  0.000000000000E+00
 -0.125000000000E+01 -0.250000000000E+01 -0.250000000000E+01 -0.250000000000E+01
  0.000000000000E+00  0.125000000000E+01  0.000000000000E+00  0.103724302461E+01  0.219251206392E+01  0.922061490191E+00  0.000000000000E+00
  0.000000000000E+00  0.715990576545E+00  0.250000000000E+01  0.202479342020E+01  0.324151231464E+01  0.175434191980E+01  0.310152362409E+01
  0.404200324774E+01  0.375000000000E+01  0.000000000000E+00  0.930412228790E+00  0.299062775774E+01  0.500000000000E+01  0.429310310915E+01
  0.409252726285E+01  0.187029682677E+01  0.284428995242E+01  0.500000000000E+01  0.125000000000E+01  0.394624082883E+01  0.500000000000E+01
  0.500000000000E+01  0.250000000000E+01  0.375000000000E+01  0.500000000000E+01
  0.134423836970E+01  0.106353620255E+01  0.142580307139E+01  0.108608833750E+01  0.103227335531E+01  0.120093390901E+01  0.164461921750E+01
  0.149405492348E+01  0.123518817326E+01  0.102388077077E+01  0.102807818469E+01  0.101300655669E+01  0.103252447276E+01  0.101470998931E+01
  0.100662953214E+01  0.100829187028E+01  0.144943245184E+01  0.116391141664E+01  0.101461354333E+01  0.100425862747E+01  0.100678881042E+01
  0.100722834509E+01  0.104666147241E+01  0.101936834655E+01  0.100424172565E+01  0.106441505446E+01  0.100787495892E+01  0.100286912094E+01
  0.100332708246E+01  0.102846176315E+01  0.100956977384E+01  0.100398613766E+01
  0.000000000000E+00  0.445503533444E+00  0.000000000000E+00  0.468723520041E+00  0.462217409077E+00  0.443634801584E+00  0.000000000000E+00
  0.000000000000E+00  0.379286243056E+00  0.471753297680E+00  0.466600668160E+00  0.479369410351E+00  0.490162503741E+00  0.484524942809E+00
  0.488508728504E+00  0.489833854849E+00  0.000000000000E+00  0.450684394231E+00  0.474832310837E+00  0.495838827668E+00  0.490908029255E+00
  0.486838809401E+00  0.448688012479E+00  0.465830324506E+00  0.496553624778E+00  0.444695437955E+00  0.487708868300E+00  0.497546917086E+00
  0.496393037053E+00  0.470014788359E+00  0.489215008151E+00  0.495540298061E+00
  0.000000000000E+00  0.000000000000E+00  0.000000000000E+00  0.186082694455E-01 -0.276772881143E-02  0.332951047003E-01  0.000000000000E+00
  0.000000000000E+00 -0.594890405915E-02  0.000000000000E+00  0.356367121998E-02 -0.567703477809E-02 -0.416471848204E-02  0.271235478927E-04
 -0.106256371894E-02  0.000000000000E+00  0.000000000000E+00 -0.764308573413E-02  0.350860495686E-03  0.000000000000E+00 -0.204365140285E-02
 -0.139244155095E-02  0.156601278855E-02 -0.159333266201E-02 -0.667483984108E-04  0.000000000000E+00 -0.285580403677E-04 -0.196199280007E-03
  0.818344022431E-03  0.000000000000E+00  0.000000000000E+00  0.000000000000E+00
  0.000000000000E+00  0.452259645616E-01  0.000000000000E+00  0.123911506164E+00  0.247673517990E-01  0.165634625316E+00  0.000000000000E+00
  0.000000000000E+00  0.155759247981E+00  0.351559893828E-02  0.259788867931E-01 -0.651581832959E-02  0.748897856694E-01  0.371182916263E-02
 -0.161410453900E-03  0.449433315218E-03  0.000000000000E+00  0.140944370246E+00 -0.808868266154E-02  0.234279884227E-02 -0.316861358999E-03
 -0.438255881909E-02  0.254926842520E-01 -0.195708034728E-02  0.306165417031E-02  0.837355715625E-01 -0.119861447259E-02  0.269079832805E-02
  0.265365493270E-02  0.278328046958E-02 -0.838532689444E-03  0.344717017130E-02
  0.960170269264E+00  0.782326880858E+00  0.101843077721E+01  0.808714390540E+00  0.746110854281E+00  0.879432494210E+00  0.117472803471E+01
  0.106718211439E+01  0.916605475370E+00  0.737381057212E+00  0.743538998515E+00  0.725747136502E+00  0.757443246856E+00  0.729177193903E+00
  0.720769666658E+00  0.722768392450E+00  0.103530892343E+01  0.858302691073E+00  0.728051245770E+00  0.718606918270E+00  0.720999069186E+00
  0.721135482786E+00  0.760002387791E+00  0.732612905043E+00  0.718521218025E+00  0.791031513140E+00  0.722090528322E+00  0.717181837783E+00
  0.717622643698E+00  0.741785826157E+00  0.724040238027E+00  0.718393905527E+00
  0.000000000000E+00  0.441260982955E+00  0.000000000000E+00  0.475199645442E+00  0.460159411018E+00  0.468843719602E+00  0.000000000000E+00
  0.000000000000E+00  0.402314255897E+00  0.469831024007E+00  0.464437479055E+00  0.478729648270E+00  0.489302259008E+00  0.483080263601E+00
  0.487916993491E+00  0.488965840175E+00  0.000000000000E+00  0.464801197949E+00  0.473814907818E+00  0.495402792921E+00  0.490277326667E+00
  0.486290833567E+00  0.445736873542E+00  0.464406619753E+00  0.496146269331E+00  0.443632317662E+00  0.486973636800E+00  0.497260422662E+00
  0.496068510331E+00  0.467745834712E+00  0.488228593336E+00  0.495117191499E+00
  0.100000000541E+01  0.102982637599E+01  0.100000001171E+01  0.104245677600E+01  0.101189785692E+01  0.102520670177E+01  0.100000001891E+01
  0.100000002454E+01  0.103890864024E+01  0.100825556019E+01  0.101252474123E+01  0.100300040942E+01  0.102701734784E+01  0.100604909996E+01
  0.100243187896E+01  0.100355440648E+01  0.100000002826E+01  0.103240139268E+01  0.100459110838E+01  0.100178346301E+01  0.100259228789E+01
  0.100234438479E+01  0.101656874831E+01  0.100617021368E+01  0.100168084988E+01  0.104042508020E+01  0.100302793586E+01  0.100118206048E+01
  0.100134015990E+01  0.100976058988E+01  0.100404782265E+01  0.100175832116E+01
        12        19        11        11
        11         5        12        12
        10        14         5         5
        19        13        11        11
        19        24        13        13
        30        23        24        24
        19        12        22        22
        28        22        21        21
        11        13         6         6
         7         6         9         9
        15        12        14        14
        18        13        23        23
        15        25        21        21
        27        19        22        22
        18         8         9         9
        27        31        24        24
         4        11         6         6
         5        14        12        12
         4         2         5         5
        21        12        15        15
        14        16        15        15
        24        19        27        27
        22        29        27        27
        23        26        18        18
        17         8        18        18
         5        11         4         4
         6         3         4         4
        26        23        30        30
         5         2        10        10
        16        14        10        10
         3         6         7         7
        21        25        28        28
        29        22        28        28
         6        13         9         9
         2         4         1         1
        31        27        32        32
        25        15        20        20
        24        23        13        13
         8         7         9         9
        13        18         9         9
        31        30        24        24
        12        21        22        22
        29        32        27        27
         3         1         4         4
        26        17        18        18
        16        20        15        15
zone t="boundary 2 bc-2", solutiontime= 0.2000000E+02, strandid=1002, i=33, j=48, f=feblock
  0.500000000000E+01  0.375000000000E+01  0.250000000000E+01  0.288078410721E+01  0.125000000000E+01  0.190974100652E+01  0.326683758169E+01
  0.201431602454E+01  0.000000000000E+00  0.963108083381E+00  0.500000000000E+01  0.403552511878E+01  0.423153924130E+01  0.500000000000E+01
  0.385533350601E+01  0.500000000000E+01  0.398173246726E+01  0.315249557942E+01  0.267000324704E+01  0.154774304040E+01  0.218329375016E+01
  0.893127759452E+00  0.000000000000E+00  0.698517061619E+00  0.964171764089E+00  0.310324758057E+01  0.000000000000E+00  0.000000000000E+00
  0.125000000000E+01  0.500000000000E+01  0.375000000000E+01  0.250000000000E+01  0.000000000000E+00
 -0.250000000000E+01 -0.250000000000E+01 -0.250000000000E+01 -0.250000000000E+01 -0.250000000000E+01 -0.250000000000E+01 -0.250000000000E+01
 -0.250000000000E+01 -0.250000000000E+01 -0.250000000000E+01 -0.250000000000E+01 -0.250000000000E+01 -0.250000000000E+01 -0.250000000000E+01
 -0.250000000000E+01 -0.250000000000E+01 -0.250000000000E+01 -0.250000000000E+01 -0.250000000000E+01 -0.250000000000E+01 -0.250000000000E+01
 -0.250000000000E+01 -0.250000000000E+01 -0.250000000000E+01 -0.250000000000E+01 -0.250000000000E+01 -0.250000000000E+01 -0.250000000000E+01
 -0.250000000000E+01 -0.250000000000E+01 -0.250000000000E+01 -0.250000000000E+01 -0.250000000000E+01
  0.000000000000E+00  0.000000000000E+00  0.000000000000E+00  0.904659890645E+00  0.000000000000E+00  0.717002441913E+00  0.188609243358E+01
  0.176246431481E+01  0.000000000000E+00  0.961328577125E+00  0.125000000000E+01  0.101201586758E+01  0.191586535653E+01  0.250000000000E+01
  0.293121848150E+01  0.375000000000E+01  0.406975391361E+01  0.363585050272E+01  0.285047954584E+01  0.292817774674E+01  0.395907379566E+01
  0.205246550326E+01  0.125000000000E+01  0.306828197606E+01  0.397245519226E+01  0.433168271247E+01  0.250000000000E+01  0.375000000000E+01
  0.500000000000E+01  0.500000000000E+01  0.500000000000E+01  0.500000000000E+01  0.500000000000E+01
  0.830768802735E+00  0.935284485067E+00  0.934191620519E+00  0.968074211898E+00  0.961700032965E+00  0.964843656812E+00  0.984106466910E+00
  0.991408305557E+00  0.144943245184E+01  0.102920578309E+01  0.955849535305E+00  0.960700024855E+00  0.981460772571E+00  0.100642090867E+01
  0.997904133606E+00  0.100979437849E+01  0.100198664321E+01  0.998055816955E+00  0.991072729376E+00  0.100130961568E+01  0.100093390016E+01
  0.101223574586E+01  0.106441505446E+01  0.101080636819E+01  0.100683897584E+01  0.100116835974E+01  0.102846176315E+01  0.100956977384E+01
  0.100508669883E+01  0.100172889087E+01  0.100263177674E+01  0.100319954900E+01  0.100398613766E+01
  0.000000000000E+00  0.000000000000E+00  0.000000000000E+00  0.378967102633E+00  0.000000000000E+00  0.340647915647E+00  0.582144523751E+00
  0.575193504999E+00  0.000000000000E+00  0.489463248172E+00  0.494723042095E+00  0.431489523956E+00  0.568933711793E+00  0.536178852164E+00
  0.568935194101E+00  0.516294282997E+00  0.508655026671E+00  0.527482708175E+00  0.566663989572E+00  0.531844436334E+00  0.506167131907E+00
  0.520712849199E+00  0.444695437955E+00  0.491350223101E+00  0.492749714928E+00  0.501554035345E+00  0.470014788359E+00  0.489215008151E+00
  0.490453591610E+00  0.491388568956E+00  0.486046280452E+00  0.490249751723E+00  0.495540298061E+00
  0.000000000000E+00  0.000000000000E+00  0.000000000000E+00  0.000000000000E+00  0.000000000000E+00  0.000000000000E+00  0.000000000000E+00
  0.000000000000E+00  0.000000000000E+00  0.000000000000E+00  0.000000000000E+00  0.000000000000E+00  0.000000000000E+00  0.000000000000E+00
  0.000000000000E+00  0.000000000000E+00  0.000000000000E+00  0.000000000000E+00  0.000000000000E+00  0.000000000000E+00  0.000000000000E+00
  0.000000000000E+00  0.000000000000E+00  0.000000000000E+00  0.000000000000E+00  0.000000000000E+00  0.000000000000E+00  0.000000000000E+00
  0.000000000000E+00  0.000000000000E+00  0.000000000000E+00  0.000000000000E+00  0.000000000000E+00
  0.000000000000E+00  0.000000000000E+00  0.000000000000E+00 -0.228635204870E-02  0.000000000000E+00  0.183640778475E-01  0.121348355438E-01
  0.455229915095E-01  0.000000000000E+00  0.870778484054E-01 -0.995493399122E-01 -0.212092145996E-01 -0.306610895574E-01 -0.414718187024E-01
 -0.139125758771E-02  0.261823511475E-02  0.594884909537E-03  0.495571749301E-03  0.151286824580E-01  0.284394047853E-01  0.564441367445E-02
  0.553412831245E-01  0.837355715625E-01  0.110557850441E-01  0.680794142290E-02 -0.786975234683E-03  0.278328046958E-02 -0.838532689444E-03
  0.400010773119E-02  0.607016334607E-02 -0.142427905646E-03  0.120235628802E-02  0.344717017130E-02
  0.593406301727E+00  0.668060364598E+00  0.667279733522E+00  0.684247216319E+00  0.686928607882E+00  0.679190459041E+00  0.695798942981E+00
  0.702331540641E+00  0.103530892343E+01  0.723687900267E+00  0.672571882050E+00  0.675690585057E+00  0.694081498813E+00  0.720956200580E+00
  0.712681771731E+00  0.724783310192E+00  0.716574703082E+00  0.713285047350E+00  0.706419326572E+00  0.717723905991E+00  0.715361732983E+00
  0.730925554682E+00  0.791031513140E+00  0.724357749346E+00  0.720996424120E+00  0.715434657400E+00  0.741785826157E+00  0.724040238027E+00
  0.719302643358E+00  0.715838198908E+00  0.716585420108E+00  0.717364348910E+00  0.718393905527E+00
  0.000000000000E+00  0.000000000000E+00  0.000000000000E+00  0.380972127539E+00  0.000000000000E+00  0.343640674470E+00  0.585248477576E+00
  0.579376742072E+00  0.000000000000E+00  0.501069233765E+00  0.508443360924E+00  0.435361694222E+00  0.572609634799E+00  0.537002456813E+00
  0.568979560988E+00  0.515052221646E+00  0.508346514091E+00  0.527339443070E+00  0.567463321069E+00  0.531674841494E+00  0.506053893503E+00
  0.520807891085E+00  0.443632317662E+00  0.490675620239E+00  0.492172410453E+00  0.501444435610E+00  0.467745834712E+00  0.488228593336E+00
  0.489997969170E+00  0.491317043998E+00  0.485903887124E+00  0.489980097757E+00  0.495117191499E+00
  0.100000002369E+01  0.100000002713E+01  0.100000000686E+01  0.989537879506E+00  0.100000001879E+01  0.985513700529E+00  0.989850745755E+00
  0.991785272915E+00  0.100000002826E+01  0.984412521787E+00  0.985092946213E+00  0.984664093480E+00  0.990069216717E+00  0.100289915692E+01
  0.999850032506E+00  0.100485470694E+01  0.100121552628E+01  0.100054430757E+01  0.997895540747E+00  0.100349927001E+01  0.100057199183E+01
  0.101092633879E+01  0.104042508020E+01  0.100325926013E+01  0.100253865612E+01  0.100043964695E+01  0.100976058988E+01  0.100404782265E+01
  0.100192719879E+01  0.100044382029E+01  0.100058626848E+01  0.100110699758E+01  0.100175832116E+01
        15         7        19        19
         8        20        19        19
        18        19        21        21
         7         4         8         8
         3         6         4         4
        19         7         8         8
        19        18        15        15
        14        13        15        15
         8        22        20        20
        27        24        22        22
        19        20        21        21
        32        26        21        21
        17        18        26        26
        17        16        15        15
        25        29        21        21
        12         7        13        13
        10         8         6         6
        25        20        24        24
         4         6         8         8
        12         2         4         4
        10        23        22        22
        26        31        17        17
        30        16        17        17
         4         7        12        12
        13        11        12        12
        21        20        25        25
        24        28        25        25
        22         8        10        10
         6         5        10        10
        31        26        32        32
         4         2         3         3
         5         6         3         3
        11        13        14        14
        22        23        27        27
        28        24        27        27
        15        13         7         7
         2        12         1         1
        29        25        33        33
        23        10         9         9
        21        26        18        18
        16        14        15        15
        18        17        15        15
        29        32        21        21
        22        24        20        20
        28        33        25        25
        11         1        12        12
        31        30        17        17
         5         9        10        10
zone t="boundary 3 bc-3", solutiontime= 0.2000000E+02, strandid=1003, i=33, j=48, f=feblock
  0.375000000000E+01  0.250000000000E+01  0.500000000000E+01  0.403552511878E+01  0.288078410721E+01  0.125000000000E+01  0.190974100652E+01
  0.500000000000E+01  0.326683758169E+01  0.423153924130E+01  0.201431602454E+01  0.000000000000E+00  0.963108083381E+00  0.500000000000E+01
  0.267000324704E+01  0.385533350601E+01  0.893127759452E+00  0.154774304040E+01  0.000000000000E+00  0.500000000000E+01  0.315249557942E+01
  0.218329375016E+01  0.398173246726E+01  0.000000000000E+00  0.698517061619E+00  0.964171764089E+00  0.125000000000E+01  0.000000000000E+00
  0.500000000000E+01  0.310324758057E+01  0.250000000000E+01  0.375000000000E+01  0.000000000000E+00
  0.250000000000E+01  0.250000000000E+01  0.250000000000E+01  0.250000000000E+01  0.250000000000E+01  0.250000000000E+01  0.250000000000E+01
  0.250000000000E+01  0.250000000000E+01  0.250000000000E+01  0.250000000000E+01  0.250000000000E+01  0.250000000000E+01  0.250000000000E+01
  0.250000000000E+01  0.250000000000E+01  0.250000000000E+01  0.250000000000E+01  0.250000000000E+01  0.250000000000E+01  0.250000000000E+01
  0.250000000000E+01  0.250000000000E+01  0.250000000000E+01  0.250000000000E+01  0.250000000000E+01  0.250000000000E+01  0.250000000000E+01
  0.250000000000E+01  0.250000000000E+01  0.250000000000E+01  0.250000000000E+01  0.250000000000E+01
  0.000000000000E+00  0.000000000000E+00  0.000000000000E+00  0.101201586758E+01  0.904659890645E+00  0.000000000000E+00  0.717002441913E+00
  0.125000000000E+01  0.188609243358E+01  0.191586535653E+01  0.176246431481E+01  0.000000000000E+00  0.961328577125E+00  0.250000000000E+01
  0.285047954584E+01  0.293121848150E+01  0.205246550326E+01  0.292817774674E+01  0.125000000000E+01  0.375000000000E+01  0.363585050272E+01
  0.395907379566E+01  0.406975391361E+01  0.250000000000E+01  0.306828197606E+01  0.397245519226E+01  0.500000000000E+01  0.375000000000E+01
  0.500000000000E+01  0.433168271247E+01  0.500000000000E+01  0.500000000000E+01  0.500000000000E+01
  0.941856374513E+00  0.946273101529E+00  0.843712268861E+00  0.964396050630E+00  0.978849235244E+00  0.956953056850E+00  0.983316793944E+00
  0.963534309963E+00  0.982670747971E+00  0.984232744490E+00  0.990248483178E+00  0.134423836970E+01  0.101916991823E+01  0.100830880861E+01
  0.993441689357E+00  0.998000088650E+00  0.100806015829E+01  0.100069953351E+01  0.106353620255E+01  0.100676930656E+01  0.100057971848E+01
  0.100233546763E+01  0.100177115378E+01  0.102388077077E+01  0.100872328053E+01  0.100526447056E+01  0.100522235655E+01  0.100829187028E+01
  0.100185708096E+01  0.100160256447E+01  0.100409310305E+01  0.100312384198E+01  0.100425862747E+01
  0.000000000000E+00  0.000000000000E+00  0.000000000000E+00  0.439025160094E+00  0.399809536826E+00  0.000000000000E+00  0.373780952727E+00
  0.494930817988E+00  0.573032367513E+00  0.569565212312E+00  0.559934708509E+00  0.000000000000E+00  0.483395013418E+00  0.533810355115E+00
  0.556500045075E+00  0.564763475664E+00  0.522635013762E+00  0.522556882251E+00  0.445503533444E+00  0.518379838128E+00  0.524843843347E+00
  0.503954062107E+00  0.509945505733E+00  0.471753297680E+00  0.496258106538E+00  0.494964204086E+00  0.489130571099E+00  0.489833854849E+00
  0.493003490935E+00  0.499229652087E+00  0.486736815788E+00  0.484536708410E+00  0.495838827668E+00
  0.000000000000E+00  0.000000000000E+00  0.000000000000E+00  0.000000000000E+00  0.000000000000E+00  0.000000000000E+00  0.000000000000E+00
  0.000000000000E+00  0.000000000000E+00  0.000000000000E+00  0.000000000000E+00  0.000000000000E+00  0.000000000000E+00  0.000000000000E+00
  0.000000000000E+00  0.000000000000E+00  0.000000000000E+00  0.000000000000E+00  0.000000000000E+00  0.000000000000E+00  0.000000000000E+00
  0.000000000000E+00  0.000000000000E+00  0.000000000000E+00  0.000000000000E+00  0.000000000000E+00  0.000000000000E+00  0.000000000000E+00
  0.000000000000E+00  0.000000000000E+00  0.000000000000E+00  0.000000000000E+00  0.000000000000E+00
  0.000000000000E+00  0.000000000000E+00  0.000000000000E+00 -0.226407562826E-01  0.112005749372E-01  0.000000000000E+00  0.179821426080E-01
 -0.100771885924E+00  0.390672790924E-02 -0.389600110557E-01  0.340478701285E-01  0.000000000000E+00  0.652229346229E-01 -0.425037265756E-01
  0.845545648061E-02 -0.650815554526E-02  0.490090925427E-01  0.136100933443E-01  0.452259645616E-01  0.799593096061E-03 -0.697274279427E-03
  0.243957336742E-02  0.925459826278E-03  0.351559893828E-02  0.103954382163E-01  0.431169603293E-02  0.333895654221E-02  0.449433315218E-03
  0.583844055005E-02  0.339366575345E-03  0.163577362148E-02  0.683985709535E-03  0.234279884227E-02
  0.672754558558E+00  0.675909380098E+00  0.602651636701E+00  0.676085846881E+00  0.691291427540E+00  0.683537904913E+00  0.690058668405E+00
  0.677281562131E+00  0.695189099073E+00  0.696239585781E+00  0.703329395577E+00  0.960170269264E+00  0.719709751526E+00  0.722871927592E+00
  0.709434778764E+00  0.713692866924E+00  0.726049796101E+00  0.716586653093E+00  0.782326880858E+00  0.722305185022E+00  0.716112628098E+00
  0.716527421088E+00  0.716534589148E+00  0.737381057212E+00  0.722664507776E+00  0.719417233253E+00  0.719558624231E+00  0.722768392450E+00
  0.715957321886E+00  0.715823441109E+00  0.718132352850E+00  0.717023736303E+00  0.718606918270E+00
  0.000000000000E+00  0.000000000000E+00  0.000000000000E+00  0.443740350397E+00  0.402241434709E+00  0.000000000000E+00  0.377536430837E+00
  0.509154932326E+00  0.575808094760E+00  0.573670667869E+00  0.562558245936E+00  0.000000000000E+00  0.490569356182E+00  0.534516869053E+00
  0.556629556444E+00  0.564470214686E+00  0.522751898970E+00  0.522076683531E+00  0.441260982955E+00  0.517236563595E+00  0.524326314367E+00
  0.503758239249E+00  0.509596160257E+00  0.469831024007E+00  0.495628783148E+00  0.494511048912E+00  0.488617352476E+00  0.488965840175E+00
  0.492919214119E+00  0.499092692314E+00  0.486426668145E+00  0.484365954553E+00  0.495402792921E+00
  0.100000000793E+01  0.100000003235E+01  0.100000002669E+01  0.981464186851E+00  0.988720186633E+00  0.100000001048E+01  0.982472934171E+00
  0.984079318378E+00  0.990428117162E+00  0.990350529943E+00  0.994357649151E+00  0.100000000541E+01  0.988641475885E+00  0.100368130278E+01
  0.999765462743E+00  0.100117226948E+01  0.100834231587E+01  0.100252001798E+01  0.102982637599E+01  0.100442797813E+01  0.100197681486E+01
  0.100080105106E+01  0.100137483598E+01  0.100825556019E+01  0.100298102603E+01  0.100190960294E+01  0.100214849716E+01  0.100355440648E+01
  0.100048227406E+01  0.100054937267E+01  0.100128692343E+01  0.100070717973E+01  0.100178346301E+01
        15         9        16        16
        15        18        11        11
        22        15        21        21
        11         5         9         9
         5         7         2         2
        11         9        15        15
        16        21        15        15
        16        10        14        14
        18        17        11        11
        17        25        24        24
        22        18        15        15
        22        30        31        31
        30        21        23        23
        16        20        23        23
        22        27        26        26
        10         9         4         4
         7        11        13        13
        25        18        26        26
        11         7         5         5
         5         1         4         4
        17        19        13        13
        23        32        30        30
        23        20        29        29
         4         9         5         5
         4         8        10        10
        26        18        22        22
        26        28        25        25
        13        11        17        17
        13         6         7         7
        31        30        32        32
         2         1         5         5
         2         7         6         6
        14        10         8         8
        24        19        17        17
        24        25        28        28
         9        10        16        16
         3         4         1         1
        33        26        27        27
        12        13        19        19
        21        30        22        22
        16        14        20        20
        16        23        21        21
        22        31        27        27
        18        25        17        17
        26        33        28        28
         4         3         8         8
        23        29        32        32
        13        12         6         6
zone t="boundary 4 bc-4", solutiontime= 0.2000000E+02, strandid=1004, i=32, j=46, f=feblock
  0.125000000000E+01  0.219251206392E+01  0.103724302461E+01  0.500000000000E+01  0.250000000000E+01  0.375000000000E+01  0.404200324774E+01
  0.500000000000E+01  0.000000000000E+00  0.310152362409E+01  0.202479342020E+01  0.324151231464E+01  0.922061490191E+00  0.000000000000E+00
  0.299062775774E+01  0.394624082883E+01  0.500000000000E+01  0.409252726285E+01  0.500000000000E+01  0.429310310915E+01  0.175434191980E+01
  0.284428995242E+01  0.000000000000E+00  0.000000000000E+00  0.715990576545E+00  0.930412228790E+00  0.125000000000E+01  0.187029682677E+01
  0.500000000000E+01  0.375000000000E+01  0.250000000000E+01  0.000000000000E+00
  0.250000000000E+01  0.157686156160E+01  0.146289271009E+01  0.250000000000E+01  0.250000000000E+01  0.250000000000E+01  0.155830813274E+01
  0.125000000000E+01  0.250000000000E+01  0.177790177481E+01  0.477386199275E+00  0.742988685424E+00  0.308372018325E+00  0.125000000000E+01
 -0.487811078581E+00 -0.144524380962E+01 -0.125000000000E+01 -0.345533899378E+00  0.000000000000E+00  0.627766083140E+00 -0.739814786992E+00
 -0.158811787973E+01  0.000000000000E+00 -0.125000000000E+01 -0.600232012419E+00 -0.154800130438E+01 -0.250000000000E+01 -0.178862290564E+01
 -0.250000000000E+01 -0.250000000000E+01 -0.250000000000E+01 -0.250000000000E+01
  0.500000000000E+01  0.500000000000E+01  0.500000000000E+01  0.500000000000E+01  0.500000000000E+01  0.500000000000E+01  0.500000000000E+01
  0.500000000000E+01  0.500000000000E+01  0.500000000000E+01  0.500000000000E+01  0.500000000000E+01  0.500000000000E+01  0.500000000000E+01
  0.500000000000E+01  0.500000000000E+01  0.500000000000E+01  0.500000000000E+01  0.500000000000E+01  0.500000000000E+01  0.500000000000E+01
  0.500000000000E+01  0.500000000000E+01  0.500000000000E+01  0.500000000000E+01  0.500000000000E+01  0.500000000000E+01  0.500000000000E+01
  0.500000000000E+01  0.500000000000E+01  0.500000000000E+01  0.500000000000E+01
  0.100522235655E+01  0.100430343450E+01  0.100429763669E+01  0.100185708096E+01  0.100409310305E+01  0.100312384198E+01  0.100249844505E+01
  0.100192604557E+01  0.100425862747E+01  0.100365964717E+01  0.100444604410E+01  0.100343654824E+01  0.100364913310E+01  0.100424172565E+01
  0.100359152234E+01  0.100160793519E+01  0.100222984550E+01  0.100221087809E+01  0.100205851457E+01  0.100246435981E+01  0.100441670602E+01
  0.100336261778E+01  0.100286912094E+01  0.100332708246E+01  0.100321996264E+01  0.100404879650E+01  0.100508669883E+01  0.100430666196E+01
  0.100172889087E+01  0.100263177674E+01  0.100319954900E+01  0.100398613766E+01
  0.489130571099E+00  0.489234915774E+00  0.491008943346E+00  0.493003490935E+00  0.486736815788E+00  0.484536708410E+00  0.485191723187E+00
  0.494181348514E+00  0.495838827668E+00  0.486688264569E+00  0.488139774295E+00  0.487156266292E+00  0.494444390894E+00  0.496553624778E+00
  0.487764054610E+00  0.483082765835E+00  0.492508688206E+00  0.487117532419E+00  0.494805121684E+00  0.487848205582E+00  0.490095401859E+00
  0.488158879596E+00  0.497546917086E+00  0.496393037053E+00  0.495268952010E+00  0.493225957646E+00  0.490453591610E+00  0.490380610710E+00
  0.491388568956E+00  0.486046280452E+00  0.490249751723E+00  0.495540298061E+00
  0.000000000000E+00 -0.103193868911E-03 -0.131126117686E-02  0.000000000000E+00  0.000000000000E+00  0.000000000000E+00  0.467038454553E-03
  0.848245114483E-03  0.000000000000E+00  0.267508613880E-03 -0.947937943495E-03 -0.833872791803E-03 -0.174492959653E-02 -0.667483984108E-04
 -0.110420939260E-02 -0.103575616938E-02 -0.134057633811E-02 -0.215502807317E-02 -0.130481085506E-02 -0.105194504307E-02 -0.594058426256E-03
 -0.749351491641E-03 -0.196199280007E-03  0.818344022431E-03  0.658574469457E-04  0.163940370866E-02  0.000000000000E+00  0.805145027527E-03
  0.000000000000E+00  0.000000000000E+00  0.000000000000E+00  0.000000000000E+00