title="tecplot geometry and solution file"
variables = x y z rho u v w p mach temperature
zone t="boundary 1 bc-1", solutiontime= 0.3000000E+02, strandid=1001, i=32, j=46, f=feblock
  0.000000000000E+00  0.000000000000E+00  0.000000000000E+00  0.000000000000E+00  0.000000000000E+00  0.000000000000E+00  0.000000000000E+00
  0.000000000000E+00  0.000000000000E+00  0.000000000000E+00  0.000000000000E+00  0.000000000000E+00  0.000000000000E+00  0.000000000000E+00
  0.000000000000E+00  0.000000000000E+00  0.000000000000E+00  0.000000000000E+00  0.000000000000E+00  0.000000000000E+00  0.000000000000E+00
  0.000000000000E+00  0.000000000000E+00  0.000000000000E+00  0.000000000000E+00  0.000000000000E+00  0.000000000000E+00  0.000000000000E+00
  0.000000000000E+00  0.000000000000E+00  0.000000000000E+00  0.000000000000E+00
  0.250000000000E+01  0.250000000000E+01  0.125000000000E+01  0.146289271009E+01  0.157686156160E+01  0.308372018325E+00  0.000000000000E+00
 -0.125000000000E+01 -0.600232012419E+00  0.250000000000E+01  0.477386199275E+00  0.742988685424E+00 -0.739814786992E+00  0.177790177481E+01
  0.155830813274E+01  0.250000000000E+01 -0.250000000000E+01 -0.154800130438E+01 -0.487811078581E+00  0.250000000000E+01  0.627766083140E+00
 -0.345533899378E+00 -0.178862290564E+01 -0.158811787973E+01  0.125000000000E+01 -0.250000000000E+01 -0.144524380962E+01  0.000000000000E+00
 -0.125000000000E+01 -0.250000000000E+01 -0.250000000000E+01 -0.250000000000E+01
  0.000000000000E+00  0.125000000000E+01  0.000000000000E+00  0.103724302461E+01  0.219251206392E+01  0.922061490191E+00  0.000000000000E+00
  0.000000000000E+00  0.715990576545E+00  0.250000000000E+01  0.202479342020E+01  0.324151231464E+01  0.175434191980E+01  0.310152362409E+01
  0.404200324774E+01  0.375000000000E+01  0.000000000000E+00  0.930412228790E+00  0.299062775774E+01  0.500000000000E+01  0.429310310915E+01
  0.409252726285E+01  0.187029682677E+01  0.284428995242E+01  0.500000000000E+01  0.125000000000E+01  0.394624082883E+01  0.500000000000E+01
  0.500000000000E+01  0.250000000000E+01  0.375000000000E+01  0.500000000000E+01
  0.134424255690E+01  0.106355235588E+01  0.142580164902E+01  0.108608700435E+01  0.103228875203E+01  0.120094620520E+01  0.164462850048E+01
  0.149406279752E+01  0.123519445356E+01  0.102389110020E+01  0.102809246277E+01  0.101301643578E+01  0.103252848265E+01  0.101471742885E+01
  0.100663777636E+01  0.100830707190E+01  0.144943133143E+01  0.116393051069E+01  0.101462667777E+01  0.100425958123E+01  0.100679711361E+01
  0.100724437725E+01  0.104667841648E+01  0.101938266783E+01  0.100424716018E+01  0.106442196458E+01  0.100789227059E+01  0.100288777009E+01
  0.100334479100E+01  0.102847159410E+01  0.100958557004E+01  0.100399247413E+01
  0.000000000000E+00  0.445483385833E+00  0.000000000000E+00  0.468738756661E+00  0.462184614988E+00  0.443617950916E+00  0.000000000000E+00
  0.000000000000E+00  0.379277691189E+00  0.471740805024E+00  0.466577256092E+00  0.479357027735E+00  0.490160134654E+00  0.484516259308E+00
  0.488525200611E+00  0.489831632822E+00  0.000000000000E+00  0.450657089150E+00  0.474816129287E+00  0.495785772247E+00  0.490900055993E+00
  0.486836379858E+00  0.448671032678E+00  0.465809307188E+00  0.496537297942E+00  0.444687550872E+00  0.487701910001E+00  0.497534775452E+00
  0.496384798558E+00  0.470004824506E+00  0.489201004839E+00  0.495522612209E+00
  0.000000000000E+00  0.000000000000E+00  0.000000000000E+00  0.186081132516E-01 -0.276722409794E-02  0.332943368115E-01  0.000000000000E+00
  0.000000000000E+00 -0.594638652991E-02  0.000000000000E+00  0.356620560982E-02 -0.566627199594E-02 -0.416034584254E-02  0.305194499903E-04
 -0.106167447068E-02  0.000000000000E+00  0.000000000000E+00 -0.764105789231E-02  0.359790808667E-03  0.000000000000E+00 -0.203485675129E-02
 -0.138310588685E-02  0.156569534281E-02 -0.158513390035E-02 -0.634333279921E-04  0.000000000000E+00 -0.283210052672E-04 -0.196308833852E-03
  0.807198188402E-03  0.000000000000E+00  0.000000000000E+00  0.000000000000E+00
  0.000000000000E+00  0.452170921499E-01  0.000000000000E+00  0.123928889166E+00  0.247642160217E-01  0.165638636962E+00  0.000000000000E+00
  0.000000000000E+00  0.155757908562E+00  0.351819649573E-02  0.259774330840E-01 -0.651240106565E-02  0.748973482631E-01  0.371815596524E-02
 -0.149533200044E-03  0.458644835260E-03  0.000000000000E+00  0.140949780219E+00 -0.808572258884E-02  0.237132565165E-02 -0.304174740732E-03
 -0.438188675409E-02  0.255012088461E-01 -0.194969914874E-02  0.308321737489E-02  0.837434230246E-01 -0.121919271755E-02  0.268464572373E-02
  0.263991691094E-02  0.279383035776E-02 -0.834920104610E-03  0.344896651519E-02
  0.960173260121E+00  0.782338580402E+00  0.101842976123E+01  0.808724526056E+00  0.746123644631E+00  0.879441565634E+00  0.117473466541E+01
  0.106718773870E+01  0.916613812575E+00  0.737393286201E+00  0.743551369640E+00  0.725757553418E+00  0.757453055521E+00  0.729186820938E+00
  0.720783922245E+00  0.722780581928E+00  0.103530812314E+01  0.858313396964E+00  0.728063336113E+00  0.718614427348E+00  0.721012392492E+00
  0.721150476025E+00  0.760016260823E+00  0.732626669336E+00  0.718530340137E+00  0.791041239103E+00  0.722106817498E+00  0.717198711850E+00
  0.717636215183E+00  0.741797774489E+00  0.724055476864E+00  0.718400186320E+00
  0.000000000000E+00  0.441240399319E+00  0.000000000000E+00  0.475215135192E+00  0.460126175364E+00  0.468829478433E+00  0.000000000000E+00
  0.000000000000E+00  0.402305153643E+00  0.469817076319E+00  0.464413549231E+00  0.478716011401E+00  0.489298821056E+00  0.483070237045E+00
  0.487930612733E+00  0.488963193394E+00  0.000000000000E+00  0.464778023677E+00  0.473797854686E+00  0.495347568004E+00  0.490266811174E+00
  0.486287189280E+00  0.445720078244E+00  0.464384508251E+00  0.496128282478E+00  0.443624856090E+00  0.486965429563E+00  0.497247028891E+00
  0.496059873053E+00  0.467734450103E+00  0.488213293862E+00  0.495098932176E+00
  0.100000000541E+01  0.102982613551E+01  0.100000001171E+01  0.104247112058E+01  0.101190011073E+01  0.102520677992E+01  0.100000001891E+01
  0.100000002454E+01  0.103891280754E+01  0.100826210959E+01  0.101252752568E+01  0.100300502430E+01  0.102702665888E+01  0.100605500634E+01
  0.100244349541E+01  0.100355620118E+01  0.100000002826E+01  0.103239733362E+01  0.100459478633E+01  0.100179297971E+01  0.100260254608E+01
  0.100234927019E+01  0.101657084774E+01  0.100617498162E+01  0.100168814618E+01  0.104043111811E+01  0.100303333402E+01  0.100118699872E+01
  0.100134142348E+01  0.100976720236E+01  0.100405324491E+01  0.100176075694E+01
        12        19        11        11
        11         5        12        12
        10        14         5         5
        19        13        11        11
        19        24        13        13
        30        23        24        24
        19        12        22        22
        28        22        21        21
        11        13         6         6
         7         6         9         9
        15        12        14        14
        18        13        23        23
        15        25        21        21
        27        19        22        22
        18         8         9         9
        27        31        24        24
         4        11         6         6
         5        14        12        12
         4         2         5         5
        21        12        15        15
        14        16        15        15
        24        19        27        27
        22        29        27        27
        23        26        18        18
        17         8        18        18
         5        11         4         4
         6         3         4         4
        26        23        30        30
         5         2        10        10
        16        14        10        10
         3         6         7         7
        21        25        28        28
        29        22        28        28
         6        13         9         9
         2         4         1         1
        31        27        32        32
        25        15        20        20
        24        23        13        13
         8         7         9         9
        13        18         9         9
        31        30        24        24
        12        21        22        22
        29        32        27        27
         3         1         4         4
        26        17        18        18
        16        20        15        15
zone t="boundary 2 bc-2", solutiontime= 0.3000000E+02, strandid=1002, i=33, j=48, f=feblock
  0.500000000000E+01  0.375000000000E+01  0.250000000000E+01  0.288078410721E+01  0.125000000000E+01  0.190974100652E+01  0.326683758169E+01
  0.201431602454E+01  0.000000000000E+00  0.963108083381E+00  0.500000000000E+01  0.403552511878E+01  0.423153924130E+01  0.500000000000E+01
  0.385533350601E+01  0.500000000000E+01  0.398173246726E+01  0.315249557942E+01  0.267000324704E+01  0.154774304040E+01  0.218329375016E+01
  0.893127759452E+00  0.000000000000E+00  0.698517061619E+00  0.964171764089E+00  0.310324758057E+01  0.000000000000E+00  0.000000000000E+00
  0.125000000000E+01  0.500000000000E+01  0.375000000000E+01  0.250000000000E+01  0.000000000000E+00
 -0.250000000000E+01 -0.250000000000E+01 -0.250000000000E+01 -0.250000000000E+01 -0.250000000000E+01 -0.250000000000E+01 -0.250000000000E+01
 -0.250000000000E+01 -0.250000000000E+01 -0.250000000000E+01 -0.250000000000E+01 -0.250000000000E+01 -0.250000000000E+01 -0.250000000000E+01
 -0.250000000000E+01 -0.250000000000E+01 -0.250000000000E+01 -0.250000000000E+01 -0.250000000000E+01 -0.250000000000E+01 -0.250000000000E+01
 -0.250000000000E+01 -0.250000000000E+01 -0.250000000000E+01 -0.250000000000E+01 -0.250000000000E+01 -0.250000000000E+01 -0.250000000000E+01
 -0.250000000000E+01 -0.250000000000E+01 -0.250000000000E+01 -0.250000000000E+01 -0.250000000000E+01
  0.000000000000E+00  0.000000000000E+00  0.000000000000E+00  0.904659890645E+00  0.000000000000E+00  0.717002441913E+00  0.188609243358E+01
  0.176246431481E+01  0.000000000000E+00  0.961328577125E+00  0.125000000000E+01  0.101201586758E+01  0.191586535653E+01  0.250000000000E+01
  0.293121848150E+01  0.375000000000E+01  0.406975391361E+01  0.363585050272E+01  0.285047954584E+01  0.292817774674E+01  0.395907379566E+01
  0.205246550326E+01  0.125000000000E+01  0.306828197606E+01  0.397245519226E+01  0.433168271247E+01  0.250000000000E+01  0.375000000000E+01
  0.500000000000E+01  0.500000000000E+01  0.500000000000E+01  0.500000000000E+01  0.500000000000E+01
  0.830776282979E+00  0.935289497456E+00  0.934215489682E+00  0.968083845683E+00  0.961712550143E+00  0.964844659355E+00  0.984134836622E+00
  0.991411246400E+00  0.144943133143E+01  0.102921342878E+01  0.955876205328E+00  0.960690377830E+00  0.981486766160E+00  0.100642874437E+01
  0.997911701974E+00  0.100978034260E+01  0.100199489652E+01  0.998062174623E+00  0.991085180033E+00  0.100132616246E+01  0.100094487648E+01
  0.101224498647E+01  0.106442196458E+01  0.101082037559E+01  0.100685128851E+01  0.100118283448E+01  0.102847159410E+01  0.100958557004E+01
  0.100510064565E+01  0.100179218339E+01  0.100266044397E+01  0.100321059529E+01  0.100399247413E+01
  0.000000000000E+00  0.000000000000E+00  0.000000000000E+00  0.378988137310E+00  0.000000000000E+00  0.340640046092E+00  0.582179206021E+00
  0.575195713234E+00  0.000000000000E+00  0.489448578380E+00  0.494742406024E+00  0.431509690802E+00  0.568961606075E+00  0.536179209572E+00
  0.568880220212E+00  0.516236064718E+00  0.508560945775E+00  0.527401854838E+00  0.566648728288E+00  0.531829597210E+00  0.506099286965E+00
  0.520702608039E+00  0.444687550872E+00  0.491341346889E+00  0.492736350928E+00  0.501508195499E+00  0.470004824506E+00  0.489201004839E+00
  0.490459690476E+00  0.491425957392E+00  0.486216555019E+00  0.490306732721E+00  0.495522612209E+00
  0.000000000000E+00  0.000000000000E+00  0.000000000000E+00  0.000000000000E+00  0.000000000000E+00  0.000000000000E+00  0.000000000000E+00
  0.000000000000E+00  0.000000000000E+00  0.000000000000E+00  0.000000000000E+00  0.000000000000E+00  0.000000000000E+00  0.000000000000E+00
  0.000000000000E+00  0.000000000000E+00  0.000000000000E+00  0.000000000000E+00  0.000000000000E+00  0.000000000000E+00  0.000000000000E+00
  0.000000000000E+00  0.000000000000E+00  0.000000000000E+00  0.000000000000E+00  0.000000000000E+00  0.000000000000E+00  0.000000000000E+00
  0.000000000000E+00  0.000000000000E+00  0.000000000000E+00  0.000000000000E+00  0.000000000000E+00
  0.000000000000E+00  0.000000000000E+00  0.000000000000E+00 -0.229652833982E-02  0.000000000000E+00  0.183564676146E-01  0.121117132427E-01
  0.454977871098E-01  0.000000000000E+00  0.870768404936E-01 -0.995444087975E-01 -0.211876609204E-01 -0.306447827646E-01 -0.414456040401E-01
 -0.137883280676E-02  0.260023151331E-02  0.609696738231E-03  0.503490509443E-03  0.150962559603E-01  0.284017336390E-01  0.564100400359E-02
  0.553408862369E-01  0.837434230246E-01  0.110437129594E-01  0.679100418670E-02 -0.758903282320E-03  0.279383035776E-02 -0.834920104610E-03
  0.400550396190E-02  0.602937733226E-02 -0.143626144812E-03  0.119972585769E-02  0.344896651519E-02
  0.593411644759E+00  0.668063944876E+00  0.667296782924E+00  0.684256565861E+00  0.686937548723E+00  0.679201018826E+00  0.695810645024E+00
  0.702342818258E+00  0.103530812314E+01  0.723693947867E+00  0.672590228195E+00  0.675701601569E+00  0.694092316437E+00  0.720959497583E+00
  0.712690575180E+00  0.724771597728E+00  0.716579585188E+00  0.713297637443E+00  0.706428566328E+00  0.717736013247E+00  0.715375270049E+00
  0.730936155903E+00  0.791041239103E+00  0.724371470379E+00  0.721009451832E+00  0.715455916395E+00  0.741797774489E+00  0.724055476864E+00
  0.719311827909E+00  0.715890834294E+00  0.716607112983E+00  0.717366926542E+00  0.718400186320E+00
  0.000000000000E+00  0.000000000000E+00  0.000000000000E+00  0.380992627379E+00  0.000000000000E+00  0.343629853419E+00  0.585286360253E+00
  0.579373164024E+00  0.000000000000E+00  0.501054266459E+00  0.508461666142E+00  0.435375192063E+00  0.572639866905E+00  0.537001657195E+00
  0.568923196501E+00  0.514994636145E+00  0.508252869747E+00  0.527255645356E+00  0.567447037074E+00  0.531657951260E+00  0.505984021063E+00
  0.520796321140E+00  0.443624856090E+00  0.490665242299E+00  0.492157394171E+00  0.501394737830E+00  0.467734450103E+00  0.488213293862E+00
  0.490004377310E+00  0.491351377635E+00  0.486073703712E+00  0.490038858133E+00  0.495098932176E+00
  0.100000002369E+01  0.100000002713E+01  0.100000000686E+01  0.989541553118E+00  0.100000001879E+01  0.985527998872E+00  0.989838858237E+00
  0.991798256406E+00  0.100000002826E+01  0.984413435234E+00  0.985092331229E+00  0.984690035444E+00  0.990058426170E+00  0.100289593502E+01
  0.999854800057E+00  0.100485243574E+01  0.100121410074E+01  0.100055559444E+01  0.997896056549E+00  0.100349961503E+01  0.100057995360E+01
  0.101093177239E+01  0.104043111811E+01  0.100326436133E+01  0.100254451087E+01  0.100045491039E+01  0.100976720236E+01  0.100405324491E+01
  0.100192608912E+01  0.100045417066E+01  0.100058795000E+01  0.100109957159E+01  0.100176075694E+01
        15         7        19        19
         8        20        19        19
        18        19        21        21
         7         4         8         8
         3         6         4         4
        19         7         8         8
        19        18        15        15
        14        13        15        15
         8        22        20        20
        27        24        22        22
        19        20        21        21
        32        26        21        21
        17        18        26        26
        17        16        15        15
        25        29        21        21
        12         7        13        13
        10         8         6         6
        25        20        24        24
         4         6         8         8
        12         2         4         4
        10        23        22        22
        26        31        17        17
        30        16        17        17
         4         7        12        12
        13        11        12        12
        21        20        25        25
        24        28        25        25
        22         8        10        10
         6         5        10        10
        31        26        32        32
         4         2         3         3
         5         6         3         3
        11        13        14        14
        22        23        27        27
        28        24        27        27
        15        13         7         7
         2        12         1         1
        29        25        33        33
        23        10         9         9
        21        26        18        18
        16        14        15        15
        18        17        15        15
        29        32        21        21
        22        24        20        20
        28        33        25        25
        11         1        12        12
        31        30        17        17
         5         9        10        10
zone t="boundary 3 bc-3", solutiontime= 0.3000000E+02, strandid=1003, i=33, j=48, f=feblock
  0.375000000000E+01  0.250000000000E+01  0.500000000000E+01  0.403552511878E+01  0.288078410721E+01  0.125000000000E+01  0.190974100652E+01
  0.500000000000E+01  0.326683758169E+01  0.423153924130E+01  0.201431602454E+01  0.000000000000E+00  0.963108083381E+00  0.500000000000E+01
  0.267000324704E+01  0.385533350601E+01  0.893127759452E+00  0.154774304040E+01  0.000000000000E+00  0.500000000000E+01  0.315249557942E+01
  0.218329375016E+01  0.398173246726E+01  0.000000000000E+00  0.698517061619E+00  0.964171764089E+00  0.125000000000E+01  0.000000000000E+00
  0.500000000000E+01  0.310324758057E+01  0.250000000000E+01  0.375000000000E+01  0.000000000000E+00
  0.250000000000E+01  0.250000000000E+01  0.250000000000E+01  0.250000000000E+01  0.250000000000E+01  0.250000000000E+01  0.250000000000E+01
  0.250000000000E+01  0.250000000000E+01  0.250000000000E+01  0.250000000000E+01  0.250000000000E+01  0.250000000000E+01  0.250000000000E+01
  0.250000000000E+01  0.250000000000E+01  0.250000000000E+01  0.250000000000E+01  0.250000000000E+01  0.250000000000E+01  0.250000000000E+01
  0.250000000000E+01  0.250000000000E+01  0.250000000000E+01  0.250000000000E+01  0.250000000000E+01  0.250000000000E+01  0.250000000000E+01
  0.250000000000E+01  0.250000000000E+01  0.250000000000E+01  0.250000000000E+01  0.250000000000E+01
  0.000000000000E+00  0.000000000000E+00  0.000000000000E+00  0.101201586758E+01  0.904659890645E+00  0.000000000000E+00  0.717002441913E+00
  0.125000000000E+01  0.188609243358E+01  0.191586535653E+01  0.176246431481E+01  0.000000000000E+00  0.961328577125E+00  0.250000000000E+01
  0.285047954584E+01  0.293121848150E+01  0.205246550326E+01  0.292817774674E+01  0.125000000000E+01  0.375000000000E+01  0.363585050272E+01
  0.395907379566E+01  0.406975391361E+01  0.250000000000E+01  0.306828197606E+01  0.397245519226E+01  0.500000000000E+01  0.375000000000E+01
  0.500000000000E+01  0.433168271247E+01  0.500000000000E+01  0.500000000000E+01  0.500000000000E+01
  0.941848779406E+00  0.946286262351E+00  0.843713904072E+00  0.964332102423E+00  0.978817909418E+00  0.956966383656E+00  0.983325849934E+00
  0.963501421662E+00  0.982687528204E+00  0.984243114444E+00  0.990262130821E+00  0.134424255690E+01  0.101917864705E+01  0.100829754134E+01
  0.993455332936E+00  0.997997595627E+00  0.100807702107E+01  0.100072005797E+01  0.106355235588E+01  0.100673664326E+01  0.100058242154E+01
  0.100234840421E+01  0.100178144471E+01  0.102389110020E+01  0.100874068864E+01  0.100528250386E+01  0.100522740078E+01  0.100830707190E+01
  0.100196218687E+01  0.100161906355E+01  0.100413081488E+01  0.100321690930E+01  0.100425958123E+01
  0.000000000000E+00  0.000000000000E+00  0.000000000000E+00  0.439072094380E+00  0.399865932965E+00  0.000000000000E+00  0.373793285429E+00
  0.495013946288E+00  0.573056527905E+00  0.569603987331E+00  0.559932709211E+00  0.000000000000E+00  0.483389209835E+00  0.533821640578E+00
  0.556459044932E+00  0.564688003135E+00  0.522616440891E+00  0.522533906005E+00  0.445483385833E+00  0.518326327433E+00  0.524751756282E+00
  0.503889535626E+00  0.509844849389E+00  0.471740805024E+00  0.496246791068E+00  0.494941366187E+00  0.489079041306E+00  0.489831632822E+00
  0.493066879372E+00  0.499150851328E+00  0.486771840347E+00  0.484762280934E+00  0.495785772247E+00
  0.000000000000E+00  0.000000000000E+00  0.000000000000E+00  0.000000000000E+00  0.000000000000E+00  0.000000000000E+00  0.000000000000E+00
  0.000000000000E+00  0.000000000000E+00  0.000000000000E+00  0.000000000000E+00  0.000000000000E+00  0.000000000000E+00  0.000000000000E+00
  0.000000000000E+00  0.000000000000E+00  0.000000000000E+00  0.000000000000E+00  0.000000000000E+00  0.000000000000E+00  0.000000000000E+00
  0.000000000000E+00  0.000000000000E+00  0.000000000000E+00  0.000000000000E+00  0.000000000000E+00  0.000000000000E+00  0.000000000000E+00
  0.000000000000E+00  0.000000000000E+00  0.000000000000E+00  0.000000000000E+00  0.000000000000E+00
  0.000000000000E+00  0.000000000000E+00  0.000000000000E+00 -0.226130601233E-01  0.111966495956E-01  0.000000000000E+00  0.179812802135E-01
 -0.100763517697E+00  0.390373186942E-02 -0.389329797370E-01  0.340368737455E-01  0.000000000000E+00  0.652268963021E-01 -0.424940761619E-01
  0.843853984782E-02 -0.650951437842E-02  0.490043970249E-01  0.135865205798E-01  0.452170921499E-01  0.737798348237E-03 -0.700444023703E-03
  0.243708729782E-02  0.868991939167E-03  0.351819649573E-02  0.103937925984E-01  0.431589440526E-02  0.337347521017E-02  0.458644835260E-03
  0.573067102358E-02  0.340675981278E-03  0.160693847583E-02  0.569790993589E-03  0.237132565165E-02
  0.672749133482E+00  0.675918780685E+00  0.602652804709E+00  0.676092056950E+00  0.691307655630E+00  0.683547424061E+00  0.690066194726E+00
  0.677274694199E+00  0.695200686994E+00  0.696249881055E+00  0.703343029737E+00  0.960173260121E+00  0.719725367279E+00  0.722865415660E+00
  0.709446547363E+00  0.713700192212E+00  0.726065874471E+00  0.716601648596E+00  0.782338580402E+00  0.722284881850E+00  0.716127327938E+00
  0.716550325712E+00  0.716545354056E+00  0.737393286201E+00  0.722681538385E+00  0.719440077268E+00  0.719564771619E+00  0.722780581928E+00
  0.716028979934E+00  0.715846184098E+00  0.718145308262E+00  0.717060857032E+00  0.718614427348E+00
  0.000000000000E+00  0.000000000000E+00  0.000000000000E+00  0.443769472308E+00  0.402286859693E+00  0.000000000000E+00  0.377548496504E+00
  0.509229254148E+00  0.575832467840E+00  0.573706468221E+00  0.562553999454E+00  0.000000000000E+00  0.490560883420E+00  0.534526754898E+00
  0.556587504900E+00  0.564391205654E+00  0.522731631509E+00  0.522053022855E+00  0.441240399319E+00  0.517181958620E+00  0.524229650115E+00
  0.503688927328E+00  0.509494263649E+00  0.469817076319E+00  0.495615889220E+00  0.494484854717E+00  0.488565254615E+00  0.488963193394E+00
  0.492982507855E+00  0.499010096975E+00  0.486466321202E+00  0.484601234695E+00  0.495347568004E+00
  0.100000000793E+01  0.100000003235E+01  0.100000002669E+01  0.981538286812E+00  0.988775040353E+00  0.100000001048E+01  0.982474601559E+00
  0.984102929753E+00  0.990427713651E+00  0.990354739772E+00  0.994363220591E+00  0.100000000541E+01  0.988654459260E+00  0.100368347678E+01
  0.999768317085E+00  0.100118504641E+01  0.100834777801E+01  0.100252043520E+01  0.102982613551E+01  0.100443233229E+01  0.100199467584E+01
  0.100082012580E+01  0.100137959330E+01  0.100826210959E+01  0.100298735357E+01  0.100192344372E+01  0.100215202997E+01  0.100355620118E+01
  0.100047744820E+01  0.100056467994E+01  0.100126738136E+01  0.100066614761E+01  0.100179297971E+01
        15         9        16        16
        15        18        11        11
        22        15        21        21
        11         5         9         9
         5         7         2         2
        11         9        15        15
        16        21        15        15
        16        10        14        14
        18        17        11        11
        17        25        24        24
        22        18        15        15
        22        30        31        31
        30        21        23        23
        16        20        23        23
        22        27        26        26
        10         9         4         4
         7        11        13        13
        25        18        26        26
        11         7         5         5
         5         1         4         4
        17        19        13        13
        23        32        30        30
        23        20        29        29
         4         9         5         5
         4         8        10        10
        26        18        22        22
        26        28        25        25
        13        11        17        17
        13         6         7         7
        31        30        32        32
         2         1         5         5
         2         7         6         6
        14        10         8         8
        24        19        17        17
        24        25        28        28
         9        10        16        16
         3         4         1         1
        33        26        27        27
        12        13        19        19
        21        30        22        22
        16        14        20        20
        16        23        21        21
        22        31        27        27
        18        25        17        17
        26        33        28        28
         4         3         8         8
        23        29        32        32
        13        12         6         6
zone t="boundary 4 bc-4", solutiontime= 0.3000000E+02, strandid=1004, i=32, j=46, f=feblock
  0.125000000000E+01  0.219251206392E+01  0.103724302461E+01  0.500000000000E+01  0.250000000000E+01  0.375000000000E+01  0.404200324774E+01
  0.500000000000E+01  0.000000000000E+00  0.310152362409E+01  0.202479342020E+01  0.324151231464E+01  0.922061490191E+00  0.000000000000E+00
  0.299062775774E+01  0.394624082883E+01  0.500000000000E+01  0.409252726285E+01  0.500000000000E+01  0.429310310915E+01  0.175434191980E+01
  0.284428995242E+01  0.000000000000E+00  0.000000000000E+00  0.715990576545E+00  0.930412228790E+00  0.125000000000E+01  0.187029682677E+01
  0.500000000000E+01  0.375000000000E+01  0.250000000000E+01  0.000000000000E+00
  0.250000000000E+01  0.157686156160E+01  0.146289271009E+01  0.250000000000E+01  0.250000000000E+01  0.250000000000E+01  0.155830813274E+01
  0.125000000000E+01  0.250000000000E+01  0.177790177481E+01  0.477386199275E+00  0.742988685424E+00  0.308372018325E+00  0.125000000000E+01
 -0.487811078581E+00 -0.144524380962E+01 -0.125000000000E+01 -0.345533899378E+00  0.000000000000E+00  0.627766083140E+00 -0.739814786992E+00
 -0.158811787973E+01  0.000000000000E+00 -0.125000000000E+01 -0.600232012419E+00 -0.154800130438E+01 -0.250000000000E+01 -0.178862290564E+01
 -0.250000000000E+01 -0.250000000000E+01 -0.250000000000E+01 -0.250000000000E+01
  0.500000000000E+01  0.500000000000E+01  0.500000000000E+01  0.500000000000E+01  0.500000000000E+01  0.500000000000E+01  0.500000000000E+01
  0.500000000000E+01  0.500000000000E+01  0.500000000000E+01  0.500000000000E+01  0.500000000000E+01  0.500000000000E+01  0.500000000000E+01
  0.500000000000E+01  0.500000000000E+01  0.500000000000E+01  0.500000000000E+01  0.500000000000E+01  0.500000000000E+01  0.500000000000E+01
  0.500000000000E+01  0.500000000000E+01  0.500000000000E+01  0.500000000000E+01  0.500000000000E+01  0.500000000000E+01  0.500000000000E+01
  0.500000000000E+01  0.500000000000E+01  0.500000000000E+01  0.500000000000E+01
  0.100522740078E+01  0.100432803011E+01  0.100431921143E+01  0.100196218687E+01  0.100413081488E+01  0.100321690930E+01  0.100258170018E+01
  0.100200820386E+01  0.100425958123E+01  0.100372179430E+01  0.100446344019E+01  0.100346714964E+01  0.100365910847E+01  0.100424716018E+01
  0.100362158420E+01  0.100163915114E+01  0.100227354248E+01  0.100226931035E+01  0.100213159761E+01  0.100253910715E+01  0.100442270403E+01
  0.100337111290E+01  0.100288777009E+01  0.100334479100E+01  0.100323136569E+01  0.100405997125E+01  0.100510064565E+01  0.100431221333E+01
  0.100179218339E+01  0.100266044397E+01  0.100321059529E+01  0.100399247413E+01
  0.489079041306E+00  0.489241875542E+00  0.490985260833E+00  0.493066879372E+00  0.486771840347E+00  0.484762280934E+00  0.485407830076E+00
  0.494264543976E+00  0.495785772247E+00  0.486805541716E+00  0.488141558903E+00  0.487248586992E+00  0.494424673364E+00  0.496537297942E+00
  0.487847317952E+00  0.483217095065E+00  0.492572159086E+00  0.487263100676E+00  0.494866864481E+00  0.488015230149E+00  0.490098594998E+00
  0.488269959529E+00  0.497534775452E+00  0.496384798558E+00  0.495260881325E+00  0.493217959158E+00  0.490459690476E+00  0.490401862768E+00
  0.491425957392E+00  0.486216555019E+00  0.490306732721E+00  0.495522612209E+00
  0.000000000000E+00 -0.897883243722E-04 -0.129719681423E-02  0.000000000000E+00  0.000000000000E+00  0.000000000000E+00  0.425047641734E-03
  0.797887428898E-03  0.000000000000E+00  0.273671915840E-03 -0.942042495956E-03 -0.819996163707E-03 -0.174498169709E-02 -0.634333279921E-04
 -0.109810972191E-02 -0.102085986370E-02 -0.133121961777E-02 -0.213266032140E-02 -0.132840116101E-02 -0.106357406782E-02 -0.623704934694E-03
 -0.760421656899E-03 -0.196308833852E-03  0.807198188402E-03  0.519740002411E-04  0.161647906064E-02  0.000000000000E+00  0.791724348940E-03
  0.000000000000E+00  0.000000000000E+00  0.000000000000E+00  0.000000000000E+00