title="tecplot geometry and solution file"
variables = x y z mach temperature lambda1 lambda2 lambda3 lambda4 lambda5
zone t="boundary 1 bc-1", solutiontime= 0.2000000E+02, strandid=1001, i=32, j=46, f=feblock
  0.000000000000E+00  0.000000000000E+00  0.000000000000E+00  0.000000000000E+00  0.000000000000E+00  0.000000000000E+00  0.000000000000E+00
  0.000000000000E+00  0.000000000000E+00  0.000000000000E+00  0.000000000000E+00  0.000000000000E+00  0.000000000000E+00  0.000000000000E+00
  0.000000000000E+00  0.000000000000E+00  0.000000000000E+00  0.000000000000E+00  0.000000000000E+00  0.000000000000E+00  0.000000000000E+00
  0.000000000000E+00  0.000000000000E+00  0.000000000000E+00  0.000000000000E+00  0.000000000000E+00  0.000000000000E+00  0.000000000000E+00
  0.000000000000E+00  0.000000000000E+00  0.000000000000E+00  0.000000000000E+00
  0.250000000000E+01  0.250000000000E+01  0.125000000000E+01  0.146289271009E+01  0.157686156160E+01  0.308372018325E+00  0.000000000000E+00
 -0.125000000000E+01 -0.600232012419E+00  0.250000000000E+01  0.477386199275E+00  0.742988685424E+00 -0.739814786992E+00  0.177790177481E+01
  0.155830813274E+01  0.250000000000E+01 -0.250000000000E+01 -0.154800130438E+01 -0.487811078581E+00  0.250000000000E+01  0.627766083140E+00
 -0.345533899378E+00 -0.178862290564E+01 -0.158811787973E+01  0.125000000000E+01 -0.250000000000E+01 -0.144524380962E+01  0.000000000000E+00
 -0.125000000000E+01 -0.250000000000E+01 -0.250000000000E+01 -0.250000000000E+01
  0.000000000000E+00  0.125000000000E+01  0.000000000000E+00  0.103724302461E+01  0.219251206392E+01  0.922061490191E+00  0.000000000000E+00
  0.000000000000E+00  0.715990576545E+00  0.250000000000E+01  0.202479342020E+01  0.324151231464E+01  0.175434191980E+01  0.310152362409E+01
  0.404200324774E+01  0.375000000000E+01  0.000000000000E+00  0.930412228790E+00  0.299062775774E+01  0.500000000000E+01  0.429310310915E+01
  0.409252726285E+01  0.187029682677E+01  0.284428995242E+01  0.500000000000E+01  0.125000000000E+01  0.394624082883E+01  0.500000000000E+01
  0.500000000000E+01  0.250000000000E+01  0.375000000000E+01  0.500000000000E+01
  0.000000000000E+00  0.441238348384E+00  0.000000000000E+00  0.475214987021E+00  0.460123708856E+00  0.468827815405E+00  0.000000000000E+00
  0.000000000000E+00  0.402302516798E+00  0.469814974359E+00  0.464411128942E+00  0.478714034184E+00  0.489298241651E+00  0.483068557888E+00
  0.487930073118E+00  0.488961654628E+00  0.000000000000E+00  0.464775721414E+00  0.473795651891E+00  0.495346592024E+00  0.490266103446E+00
  0.486286083902E+00  0.445717618051E+00  0.464382274634E+00  0.496127394917E+00  0.443624103833E+00  0.486964461957E+00  0.497246279768E+00
  0.496059270892E+00  0.467732355362E+00  0.488212087362E+00  0.495098264817E+00
  0.999990295028E+00  0.102982719499E+01  0.999990757903E+00  0.104247294232E+01  0.101190080524E+01  0.102520618293E+01  0.999991416700E+00
  0.999992168096E+00  0.103891223624E+01  0.100826277309E+01  0.101252833877E+01  0.100300548289E+01  0.102702865700E+01  0.100605563290E+01
  0.100244400478E+01  0.100355660048E+01  0.999992721792E+00  0.103239739214E+01  0.100459524090E+01  0.100179336279E+01  0.100260305842E+01
  0.100234966417E+01  0.101657153079E+01  0.100617544692E+01  0.100168844809E+01  0.104043292670E+01  0.100303376377E+01  0.100118726928E+01
  0.100134171022E+01  0.100976788415E+01  0.100405369352E+01  0.100176112495E+01
  0.876024800979E-03  0.456072950012E-02  0.964464307364E-03  0.709376323583E-02  0.400071233594E-03  0.872223780510E-02  0.654694098074E-03
  0.307493137347E-03  0.880568009930E-02 -0.280456280827E-03  0.504468528659E-03 -0.115077576775E-02  0.844553526245E-03 -0.629634278524E-03
 -0.154480853830E-02 -0.147196238680E-02  0.827623054827E-03  0.870253171038E-02 -0.835232495708E-03 -0.559724261524E-02 -0.205458022967E-02
 -0.143652331815E-02  0.999141835389E-03 -0.939078105858E-03 -0.581001475626E-02  0.725320496977E-02 -0.118615811770E-02 -0.647336483897E-02
 -0.578498367252E-02 -0.754796046417E-03 -0.137349808598E-02 -0.543720495394E-02
  0.389862355797E-04  0.655560123418E-03  0.479035585021E-04  0.901678342042E-03  0.152939811760E-05  0.134010688273E-02  0.507244533220E-04
  0.952736948186E-04  0.132659854651E-02 -0.124452780528E-03  0.279681455348E-04 -0.243858849183E-03  0.240277619902E-04 -0.181186750609E-03
 -0.303607248191E-03 -0.322477865132E-03  0.924386151974E-04  0.140644529333E-02 -0.170983971726E-03 -0.115107190662E-02 -0.409369500055E-03
 -0.277314562881E-03  0.587768596810E-04 -0.175847184419E-03 -0.121689128323E-02  0.966109790296E-03 -0.233513193764E-03 -0.135898847397E-02
 -0.121058195218E-02 -0.178947542501E-03 -0.286663998273E-03 -0.113221843127E-02
  0.615398723177E-04  0.190294800112E-04  0.899103993284E-04  0.195250680619E-03  0.293416367805E-04  0.785105994495E-04  0.597801651955E-04
 -0.777442443178E-04 -0.261590389290E-05 -0.172290902019E-05  0.399917233264E-04  0.354700369662E-04  0.516117901240E-05  0.100360420816E-04
 -0.139190039302E-05 -0.741929163804E-06 -0.662640141516E-04 -0.148097365814E-03  0.244020502012E-04  0.120055733036E-06  0.706797610407E-05
  0.920104140585E-05  0.264305919025E-04 -0.669549040207E-05  0.198563814701E-04 -0.243868028868E-04 -0.263675407488E-05  0.525973707197E-05
 -0.731401681038E-05 -0.469366960769E-05 -0.246308787540E-05  0.457079565868E-06
 -0.215361377575E-03 -0.183899741431E-03 -0.229785918920E-03  0.251138739935E-05  0.219656130165E-03  0.240917756543E-03 -0.125762709220E-03
 -0.145605278743E-03  0.970762610416E-04  0.244313300777E-03  0.434845234707E-03  0.252953212292E-03  0.497117245775E-03  0.231449188128E-03
  0.171481816427E-03  0.199558033745E-03 -0.151206236259E-03  0.545462323780E-04  0.301257280362E-03  0.745982730307E-04  0.164208353017E-03
  0.201502810204E-03  0.394464173798E-03  0.254705106850E-03  0.719527545033E-04  0.179722832942E-03  0.190465415419E-03  0.685953545884E-04
  0.827177058548E-04  0.304170704853E-03  0.197061243109E-03  0.797321169155E-04
 -0.713427481932E-03 -0.188226603080E-02 -0.934517274195E-03 -0.284349418814E-02 -0.170462312336E-03 -0.364177798187E-02  0.881795061991E-04
  0.135945786630E-03 -0.366072471367E-02  0.109898852601E-03 -0.226081871859E-03  0.450781407457E-03 -0.358194633877E-03  0.247123414996E-03
  0.617610239631E-03  0.592857389255E-03 -0.326101511018E-03 -0.362742138510E-02  0.310037973264E-03  0.232386450001E-02  0.831116989654E-03
  0.570917144265E-03 -0.425925453673E-03  0.343850038311E-03  0.241645598948E-02 -0.293960384655E-02  0.466632288767E-03  0.270007461410E-02
  0.240763408407E-02  0.281771555150E-03  0.550694881661E-03  0.225741071401E-02
        12        19        11        11
        11         5        12        12
        10        14         5         5
        19        13        11        11
        19        24        13        13
        30        23        24        24
        19        12        22        22
        28        22        21        21
        11        13         6         6
         7         6         9         9
        15        12        14        14
        18        13        23        23
        15        25        21        21
        27        19        22        22
        18         8         9         9
        27        31        24        24
         4        11         6         6
         5        14        12        12
         4         2         5         5
        21        12        15        15
        14        16        15        15
        24        19        27        27
        22        29        27        27
        23        26        18        18
        17         8        18        18
         5        11         4         4
         6         3         4         4
        26        23        30        30
         5         2        10        10
        16        14        10        10
         3         6         7         7
        21        25        28        28
        29        22        28        28
         6        13         9         9
         2         4         1         1
        31        27        32        32
        25        15        20        20
        24        23        13        13
         8         7         9         9
        13        18         9         9
        31        30        24        24
        12        21        22        22
        29        32        27        27
         3         1         4         4
        26        17        18        18
        16        20        15        15
zone t="boundary 2 bc-2", solutiontime= 0.2000000E+02, strandid=1002, i=33, j=48, f=feblock
  0.500000000000E+01  0.375000000000E+01  0.250000000000E+01  0.288078410721E+01  0.125000000000E+01  0.190974100652E+01  0.326683758169E+01
  0.201431602454E+01  0.000000000000E+00  0.963108083381E+00  0.500000000000E+01  0.403552511878E+01  0.423153924130E+01  0.500000000000E+01
  0.385533350601E+01  0.500000000000E+01  0.398173246726E+01  0.315249557942E+01  0.267000324704E+01  0.154774304040E+01  0.218329375016E+01
  0.893127759452E+00  0.000000000000E+00  0.698517061619E+00  0.964171764089E+00  0.310324758057E+01  0.000000000000E+00  0.000000000000E+00
  0.125000000000E+01  0.500000000000E+01  0.375000000000E+01  0.250000000000E+01  0.000000000000E+00
 -0.250000000000E+01 -0.250000000000E+01 -0.250000000000E+01 -0.250000000000E+01 -0.250000000000E+01 -0.250000000000E+01 -0.250000000000E+01
 -0.250000000000E+01 -0.250000000000E+01 -0.250000000000E+01 -0.250000000000E+01 -0.250000000000E+01 -0.250000000000E+01 -0.250000000000E+01
 -0.250000000000E+01 -0.250000000000E+01 -0.250000000000E+01 -0.250000000000E+01 -0.250000000000E+01 -0.250000000000E+01 -0.250000000000E+01
 -0.250000000000E+01 -0.250000000000E+01 -0.250000000000E+01 -0.250000000000E+01 -0.250000000000E+01 -0.250000000000E+01 -0.250000000000E+01
 -0.250000000000E+01 -0.250000000000E+01 -0.250000000000E+01 -0.250000000000E+01 -0.250000000000E+01
  0.000000000000E+00  0.000000000000E+00  0.000000000000E+00  0.904659890645E+00  0.000000000000E+00  0.717002441913E+00  0.188609243358E+01
  0.176246431481E+01  0.000000000000E+00  0.961328577125E+00  0.125000000000E+01  0.101201586758E+01  0.191586535653E+01  0.250000000000E+01
  0.293121848150E+01  0.375000000000E+01  0.406975391361E+01  0.363585050272E+01  0.285047954584E+01  0.292817774674E+01  0.395907379566E+01
  0.205246550326E+01  0.125000000000E+01  0.306828197606E+01  0.397245519226E+01  0.433168271247E+01  0.250000000000E+01  0.375000000000E+01
  0.500000000000E+01  0.500000000000E+01  0.500000000000E+01  0.500000000000E+01  0.500000000000E+01
  0.000000000000E+00  0.000000000000E+00  0.000000000000E+00  0.380991906500E+00  0.000000000000E+00  0.343629824950E+00  0.585286157424E+00
  0.579373264282E+00  0.000000000000E+00  0.501056069140E+00  0.508460362676E+00  0.435373026572E+00  0.572640041190E+00  0.537002098944E+00
  0.568922553870E+00  0.514994090651E+00  0.508247257160E+00  0.527252853130E+00  0.567446661127E+00  0.531657143909E+00  0.505981016593E+00
  0.520795579399E+00  0.443624103833E+00  0.490663730453E+00  0.492155873749E+00  0.501390784676E+00  0.467732355362E+00  0.488212087362E+00
  0.490002767114E+00  0.491352304715E+00  0.486075475228E+00  0.490036479234E+00  0.495098264817E+00
  0.999993487379E+00  0.999993690057E+00  0.999993543115E+00  0.989539055875E+00  0.999993137282E+00  0.985524707174E+00  0.989838908967E+00
  0.991798516580E+00  0.999992721792E+00  0.984411112416E+00  0.985091906406E+00  0.984689080896E+00  0.990058464829E+00  0.100289621837E+01
  0.999855369243E+00  0.100485306649E+01  0.100121554699E+01  0.100055642931E+01  0.997896793475E+00  0.100350029570E+01  0.100058068723E+01
  0.101093276247E+01  0.104043292670E+01  0.100326475367E+01  0.100254498742E+01  0.100045587387E+01  0.100976788415E+01  0.100405369352E+01
  0.100192656835E+01  0.100045434508E+01  0.100058774183E+01  0.100109993754E+01  0.100176112495E+01
 -0.507853463419E-03 -0.417770172901E-03 -0.255424581388E-03  0.711849706748E-02  0.767975931803E-03  0.226821684225E-01 -0.106378268822E-02
  0.643477487929E-03  0.827623054827E-03  0.101261173791E-01 -0.125287890901E-02 -0.175020495420E-02 -0.950822809687E-03 -0.813762148618E-03
 -0.577108124300E-03 -0.526048701365E-03 -0.388616594774E-03 -0.433081593013E-03 -0.824431099627E-03 -0.114587339322E-02 -0.569896886727E-03
  0.552181058345E-03  0.725320496977E-02 -0.755913622929E-03 -0.110679890646E-02 -0.690515922639E-03 -0.754796046417E-03 -0.137349808598E-02
 -0.493544926935E-02 -0.611435899149E-03 -0.230252619697E-02 -0.436977863770E-02 -0.543720495394E-02
  0.147252984419E-03 -0.307012004184E-04  0.284877267442E-05  0.127871721228E-02 -0.109443631224E-03  0.283819543373E-02 -0.412095520152E-04
 -0.915163866045E-04  0.924386151974E-04  0.120057159751E-02  0.289698962214E-03  0.308579573277E-04  0.150793504497E-03  0.207327409517E-03
  0.128201683491E-03  0.123172537569E-03  0.140958523109E-03  0.108839778162E-03  0.108149374040E-04 -0.144738708522E-03  0.395124084424E-04
 -0.891956036200E-04  0.966109790296E-03 -0.708316892281E-04 -0.136351172087E-03  0.605872914705E-04 -0.178947542501E-03 -0.286663998273E-03
 -0.897649609810E-03  0.294565528576E-04 -0.234767537437E-03 -0.689838162167E-03 -0.113221843127E-02
 -0.378777043575E-04  0.114148665956E-04  0.631079963556E-04  0.191101348430E-03  0.324637517741E-04  0.277293196118E-03 -0.172969833191E-04
  0.935738303717E-05 -0.662640141516E-04  0.101545177438E-03 -0.128368357395E-04 -0.518990295078E-04  0.133919780694E-05  0.141177844115E-05
  0.177229811021E-05 -0.287834619388E-05  0.879772242610E-07 -0.184118783291E-05  0.481099039561E-05  0.938683220815E-05 -0.354431667599E-05
  0.675688449000E-05 -0.243868028868E-04  0.249781552401E-05 -0.101885563541E-05 -0.148424464004E-05 -0.469366960769E-05 -0.246308787540E-05
 -0.112720087529E-05 -0.643602497209E-06 -0.576293733282E-07  0.291716121049E-06  0.457079565868E-06
 -0.317014361821E-04 -0.495778029823E-04 -0.871173905009E-04  0.286539669903E-03 -0.199871994266E-03  0.727793216743E-04  0.370422411224E-03
  0.496302129211E-03 -0.151206236259E-03  0.229327236443E-03  0.589794272235E-04  0.254721211945E-03  0.136465305861E-03  0.541316144244E-04
  0.128942466123E-03  0.424749106020E-04  0.114466524020E-03  0.163370368241E-03  0.205476718812E-03  0.189886473680E-03  0.179363172740E-03
  0.349498434309E-03  0.179722832942E-03  0.201066481467E-03  0.172078766113E-03  0.157939224297E-03  0.304170704853E-03  0.197061243109E-03
  0.115396619252E-03  0.649516007500E-04  0.138890984132E-03  0.148070315100E-03  0.797321169155E-04
  0.116984727899E-03  0.483435196888E-03  0.109797531897E-02 -0.320620589125E-02  0.960174187953E-03 -0.966548944680E-02  0.341054654996E-03
 -0.238560579536E-03 -0.326101511018E-03 -0.414793828675E-02  0.269474368108E-03  0.548972904340E-03  0.229790836148E-03  0.156807298498E-03
  0.114046915753E-03  0.106531408471E-03  0.562325188835E-04  0.816407036463E-04  0.245063195508E-03  0.418035039809E-03  0.156720238331E-03
 -0.211291028487E-03 -0.293960384655E-02  0.258790127905E-03  0.409446277203E-03  0.191616861995E-03  0.281771555150E-03  0.550694881661E-03
  0.200804515068E-02  0.185327906575E-03  0.865106024052E-03  0.174033808951E-02  0.225741071401E-02
        15         7        19        19
         8        20        19        19
        18        19        21        21
         7         4         8         8
         3         6         4         4
        19         7         8         8
        19        18        15        15
        14        13        15        15
         8        22        20        20
        27        24        22        22
        19        20        21        21
        32        26        21        21
        17        18        26        26
        17        16        15        15
        25        29        21        21
        12         7        13        13
        10         8         6         6
        25        20        24        24
         4         6         8         8
        12         2         4         4
        10        23        22        22
        26        31        17        17
        30        16        17        17
         4         7        12        12
        13        11        12        12
        21        20        25        25
        24        28        25        25
        22         8        10        10
         6         5        10        10
        31        26        32        32
         4         2         3         3
         5         6         3         3
        11        13        14        14
        22        23        27        27
        28        24        27        27
        15        13         7         7
         2        12         1         1
        29        25        33        33
        23        10         9         9
        21        26        18        18
        16        14        15        15
        18        17        15        15
        29        32        21        21
        22        24        20        20
        28        33        25        25
        11         1        12        12
        31        30        17        17
         5         9        10        10
zone t="boundary 3 bc-3", solutiontime= 0.2000000E+02, strandid=1003, i=33, j=48, f=feblock
  0.375000000000E+01  0.250000000000E+01  0.500000000000E+01  0.403552511878E+01  0.288078410721E+01  0.125000000000E+01  0.190974100652E+01
  0.500000000000E+01  0.326683758169E+01  0.423153924130E+01  0.201431602454E+01  0.000000000000E+00  0.963108083381E+00  0.500000000000E+01
  0.267000324704E+01  0.385533350601E+01  0.893127759452E+00  0.154774304040E+01  0.000000000000E+00  0.500000000000E+01  0.315249557942E+01
  0.218329375016E+01  0.398173246726E+01  0.000000000000E+00  0.698517061619E+00  0.964171764089E+00  0.125000000000E+01  0.000000000000E+00
  0.500000000000E+01  0.310324758057E+01  0.250000000000E+01  0.375000000000E+01  0.000000000000E+00
  0.250000000000E+01  0.250000000000E+01  0.250000000000E+01  0.250000000000E+01  0.250000000000E+01  0.250000000000E+01  0.250000000000E+01
  0.250000000000E+01  0.250000000000E+01  0.250000000000E+01  0.250000000000E+01  0.250000000000E+01  0.250000000000E+01  0.250000000000E+01
  0.250000000000E+01  0.250000000000E+01  0.250000000000E+01  0.250000000000E+01  0.250000000000E+01  0.250000000000E+01  0.250000000000E+01
  0.250000000000E+01  0.250000000000E+01  0.250000000000E+01  0.250000000000E+01  0.250000000000E+01  0.250000000000E+01  0.250000000000E+01
  0.250000000000E+01  0.250000000000E+01  0.250000000000E+01  0.250000000000E+01  0.250000000000E+01
  0.000000000000E+00  0.000000000000E+00  0.000000000000E+00  0.101201586758E+01  0.904659890645E+00  0.000000000000E+00  0.717002441913E+00
  0.125000000000E+01  0.188609243358E+01  0.191586535653E+01  0.176246431481E+01  0.000000000000E+00  0.961328577125E+00  0.250000000000E+01
  0.285047954584E+01  0.293121848150E+01  0.205246550326E+01  0.292817774674E+01  0.125000000000E+01  0.375000000000E+01  0.363585050272E+01
  0.395907379566E+01  0.406975391361E+01  0.250000000000E+01  0.306828197606E+01  0.397245519226E+01  0.500000000000E+01  0.375000000000E+01
  0.500000000000E+01  0.433168271247E+01  0.500000000000E+01  0.500000000000E+01  0.500000000000E+01
  0.000000000000E+00  0.000000000000E+00  0.000000000000E+00  0.443767745459E+00  0.402286944574E+00  0.000000000000E+00  0.377550369545E+00
  0.509232128688E+00  0.575832179754E+00  0.573707405285E+00  0.562554064412E+00  0.000000000000E+00  0.490563299840E+00  0.534527096543E+00
  0.556586982170E+00  0.564391577749E+00  0.522730517385E+00  0.522052000170E+00  0.441238348384E+00  0.517182331791E+00  0.524228630763E+00
  0.503687457534E+00  0.509488571178E+00  0.469814974359E+00  0.495614442414E+00  0.494483780212E+00  0.488562428343E+00  0.488961654628E+00
  0.492980744788E+00  0.499005552222E+00  0.486460936507E+00  0.484596927548E+00  0.495346592024E+00
  0.999989339439E+00  0.999989408764E+00  0.999989626853E+00  0.981541895460E+00  0.988773990194E+00  0.999989827144E+00  0.982469462434E+00
  0.984104309047E+00  0.990427545862E+00  0.990355285694E+00  0.994362997073E+00  0.999990295028E+00  0.988652071037E+00  0.100368369414E+01
  0.999769197113E+00  0.100118501219E+01  0.100834885320E+01  0.100252111043E+01  0.102982719499E+01  0.100443319461E+01  0.100199536635E+01
  0.100082056599E+01  0.100138192342E+01  0.100826277309E+01  0.100298787130E+01  0.100192389555E+01  0.100215267510E+01  0.100355660048E+01
  0.100047670023E+01  0.100056591053E+01  0.100126820231E+01  0.100066573360E+01  0.100179336279E+01
 -0.337511888725E-03  0.225211780564E-03 -0.407459098039E-03  0.188525916916E-02  0.101105448656E-01  0.593109355201E-03  0.973679545259E-02
 -0.142170701372E-02 -0.893974158631E-03 -0.935055883280E-03  0.158738006675E-02  0.876024800979E-03  0.647001424116E-02 -0.740624623736E-03
 -0.846217433821E-03 -0.615665613623E-03  0.212502965966E-03 -0.841635165114E-03  0.456072950012E-02 -0.516855751304E-03 -0.369132651766E-03
 -0.505331522532E-03 -0.397207445556E-03 -0.280456280827E-03 -0.671596857011E-03 -0.136114168135E-02 -0.425796196238E-02 -0.147196238680E-02
 -0.494988911429E-03 -0.610980784857E-03 -0.398162358629E-02 -0.216135517082E-02 -0.559724261524E-02
 -0.554221464306E-04 -0.749297261661E-04  0.111558211001E-03  0.663496720998E-03  0.145880357095E-02 -0.112043129600E-03  0.116859090801E-02
  0.249517277158E-03  0.175298754033E-04  0.155159152400E-03  0.221186373262E-04  0.389862355797E-04  0.506888216809E-03  0.193564464687E-03
  0.526161212939E-05  0.116152194534E-03 -0.165275859615E-03 -0.831687284789E-04  0.655560123418E-03  0.126787408495E-03  0.114494907277E-03
  0.603935336362E-04  0.130990241554E-03 -0.124452780528E-03 -0.149239194831E-03 -0.173797477866E-03 -0.759055370996E-03 -0.322477865132E-03
  0.456059420371E-04  0.702613148798E-04 -0.618063175423E-03 -0.213690469472E-03 -0.115107190662E-02
 -0.116826844265E-04  0.787393746859E-05  0.772706874901E-05 -0.558934383829E-04 -0.181738880029E-03  0.495028376795E-04 -0.610151308155E-05
 -0.205405410214E-05 -0.160197951141E-04  0.864526060947E-06 -0.143967163189E-04  0.615398723177E-04  0.615802087994E-04  0.489292613741E-05
  0.403959810225E-06  0.144932984362E-05 -0.254382072974E-04 -0.971362135266E-05  0.190294800112E-04  0.271683447017E-05  0.127932669758E-05
  0.683956539145E-05  0.433340378690E-06 -0.172290902019E-05 -0.566079979523E-05  0.260606026266E-05  0.269954412561E-05 -0.741929163804E-06
  0.101066623010E-05  0.419375866173E-07  0.609801569704E-06 -0.192700395903E-06  0.120055733036E-06
 -0.773693301954E-04 -0.152876536264E-03 -0.292154993589E-04  0.887556284608E-04  0.172398684450E-03 -0.128396309175E-03  0.351215368936E-04
  0.384850148907E-04  0.298123519322E-03  0.125275406244E-03  0.451327166962E-03 -0.215361377575E-03  0.132076460418E-03  0.537955887645E-04
  0.154950511700E-03  0.126132435086E-03  0.358002862043E-03  0.164184148313E-03 -0.183899741431E-03  0.516544242045E-04  0.153859383918E-03
  0.157820199034E-03  0.115682221077E-03  0.244313300777E-03  0.233524904086E-03  0.159935142394E-03  0.119412306170E-03  0.199558033745E-03
  0.579987558342E-04  0.151448265335E-03  0.146238430032E-03  0.133677603710E-03  0.745982730307E-04
  0.115650413409E-02  0.589541323508E-03  0.189879771183E-03 -0.104536207300E-02 -0.441190541120E-02  0.484950831237E-04 -0.407779130483E-02
  0.352609928648E-03  0.272797707981E-03  0.228621872585E-03 -0.618368283127E-03 -0.713427481932E-03 -0.255707381325E-02  0.139824831897E-03
  0.261392203515E-03  0.134163649405E-03 -0.706064757985E-04  0.291202179767E-03 -0.188226603080E-02  0.101470728599E-03  0.576766763669E-04
  0.128574169216E-03  0.640642698101E-04  0.109898852601E-03  0.241376728391E-03  0.512617645132E-03  0.172251507779E-02  0.592857389255E-03
  0.140057909033E-03  0.161943340444E-03  0.158010774160E-02  0.808776697383E-03  0.232386450001E-02
        15         9        16        16
        15        18        11        11
        22        15        21        21
        11         5         9         9
         5         7         2         2
        11         9        15        15
        16        21        15        15
        16        10        14        14
        18        17        11        11
        17        25        24        24
        22        18        15        15
        22        30        31        31
        30        21        23        23
        16        20        23        23
        22        27        26        26
        10         9         4         4
         7        11        13        13
        25        18        26        26
        11         7         5         5
         5         1         4         4
        17        19        13        13
        23        32        30        30
        23        20        29        29
         4         9         5         5
         4         8        10        10
        26        18        22        22
        26        28        25        25
        13        11        17        17
        13         6         7         7
        31        30        32        32
         2         1         5         5
         2         7         6         6
        14        10         8         8
        24        19        17        17
        24        25        28        28
         9        10        16        16
         3         4         1         1
        33        26        27        27
        12        13        19        19
        21        30        22        22
        16        14        20        20
        16        23        21        21
        22        31        27        27
        18        25        17        17
        26        33        28        28
         4         3         8         8
        23        29        32        32
        13        12         6         6
zone t="boundary 4 bc-4", solutiontime= 0.2000000E+02, strandid=1004, i=32, j=46, f=feblock
  0.125000000000E+01  0.219251206392E+01  0.103724302461E+01  0.500000000000E+01  0.250000000000E+01  0.375000000000E+01  0.404200324774E+01
  0.500000000000E+01  0.000000000000E+00  0.310152362409E+01  0.202479342020E+01  0.324151231464E+01  0.922061490191E+00  0.000000000000E+00
  0.299062775774E+01  0.394624082883E+01  0.500000000000E+01  0.409252726285E+01  0.500000000000E+01  0.429310310915E+01  0.175434191980E+01
  0.284428995242E+01  0.000000000000E+00  0.000000000000E+00  0.715990576545E+00  0.930412228790E+00  0.125000000000E+01  0.187029682677E+01
  0.500000000000E+01  0.375000000000E+01  0.250000000000E+01  0.000000000000E+00
  0.250000000000E+01  0.157686156160E+01  0.146289271009E+01  0.250000000000E+01  0.250000000000E+01  0.250000000000E+01  0.155830813274E+01
  0.125000000000E+01  0.250000000000E+01  0.177790177481E+01  0.477386199275E+00  0.742988685424E+00  0.308372018325E+00  0.125000000000E+01
 -0.487811078581E+00 -0.144524380962E+01 -0.125000000000E+01 -0.345533899378E+00  0.000000000000E+00  0.627766083140E+00 -0.739814786992E+00
 -0.158811787973E+01  0.000000000000E+00 -0.125000000000E+01 -0.600232012419E+00 -0.154800130438E+01 -0.250000000000E+01 -0.178862290564E+01
 -0.250000000000E+01 -0.250000000000E+01 -0.250000000000E+01 -0.250000000000E+01
  0.500000000000E+01  0.500000000000E+01  0.500000000000E+01  0.500000000000E+01  0.500000000000E+01  0.500000000000E+01  0.500000000000E+01
  0.500000000000E+01  0.500000000000E+01  0.500000000000E+01  0.500000000000E+01  0.500000000000E+01  0.500000000000E+01  0.500000000000E+01
  0.500000000000E+01  0.500000000000E+01  0.500000000000E+01  0.500000000000E+01  0.500000000000E+01  0.500000000000E+01  0.500000000000E+01
  0.500000000000E+01  0.500000000000E+01  0.500000000000E+01  0.500000000000E+01  0.500000000000E+01  0.500000000000E+01  0.500000000000E+01
  0.500000000000E+01  0.500000000000E+01  0.500000000000E+01  0.500000000000E+01
  0.488562428343E+00  0.488873127044E+00  0.490562939264E+00  0.492980744788E+00  0.486460936507E+00  0.484596927548E+00  0.485347896276E+00
  0.494163542317E+00  0.495346592024E+00  0.486528232758E+00  0.487819998460E+00  0.487068916091E+00  0.494045904395E+00  0.496127394917E+00
  0.487612357629E+00  0.483219722850E+00  0.492395510969E+00  0.487214141159E+00  0.494738985333E+00  0.487958525499E+00  0.489677249447E+00
  0.488029107105E+00  0.497246279768E+00  0.496059270892E+00  0.494951052257E+00  0.492800373677E+00  0.490002767114E+00  0.490005124553E+00
  0.491352304715E+00  0.486075475228E+00  0.490036479234E+00  0.495098264817E+00
  0.100215267510E+01  0.100152652958E+01  0.100178347660E+01  0.100047670023E+01  0.100126820231E+01  0.100066573360E+01  0.100025357725E+01
  0.100050391679E+01  0.100179336279E+01  0.100112367258E+01  0.100133045248E+01  0.100072432973E+01  0.100164366725E+01  0.100168844809E+01
  0.100096274503E+01  0.100000874853E+01  0.100082864314E+01  0.100022269190E+01  0.100062146074E+01  0.100023497311E+01  0.100174635719E+01
  0.100098855496E+01  0.100118726928E+01  0.100134171022E+01  0.100132635956E+01  0.100179873777E+01  0.100192656835E+01  0.100163748619E+01
  0.100045434508E+01  0.100058774183E+01  0.100109993754E+01  0.100176112495E+01
 -0.425796196238E-02 -0.413105229514E-02 -0.423968922226E-02 -0.494988911429E-03 -0.398162358629E-02 -0.216135517082E-02 -0.150569640925E-02
 -0.494233903098E-03 -0.559724261524E-02 -0.331938249519E-02 -0.448445474126E-02 -0.315064409336E-02 -0.520823451285E-02 -0.581001475626E-02
 -0.359190467607E-02 -0.150670225406E-02 -0.591372821435E-03 -0.189342079310E-02 -0.470624188136E-03 -0.186315618981E-02 -0.557869003380E-02
 -0.341606423581E-02 -0.647336483897E-02 -0.578498367252E-02 -0.608114716313E-02 -0.490518207893E-02 -0.493544926935E-02 -0.522560831351E-02
 -0.611435899149E-03 -0.230252619697E-02 -0.436977863770E-02 -0.543720495394E-02