title="tecplot geometry and solution file"
variables = x y z mach temperature lambda1 lambda2 lambda3 lambda4 lambda5
zone t="boundary 1 bc-1", solutiontime= 0.3000000E+02, strandid=1001, i=32, j=46, f=feblock
 -0.547473805950E-02  0.000000000000E+00 -0.567611393137E-02  0.000000000000E+00  0.000000000000E+00  0.000000000000E+00 -0.525163715706E-02
 -0.425779957523E-02  0.000000000000E+00  0.000000000000E+00  0.000000000000E+00  0.000000000000E+00  0.000000000000E+00  0.000000000000E+00
  0.000000000000E+00  0.000000000000E+00 -0.338397811579E-02  0.000000000000E+00  0.000000000000E+00  0.000000000000E+00  0.000000000000E+00
  0.000000000000E+00  0.000000000000E+00  0.000000000000E+00  0.000000000000E+00  0.000000000000E+00  0.000000000000E+00  0.000000000000E+00
  0.000000000000E+00  0.000000000000E+00  0.000000000000E+00  0.000000000000E+00
  0.250494199996E+01  0.250494199996E+01  0.127822171177E+01  0.146289271009E+01  0.157686156160E+01  0.308372018325E+00  0.261949834557E-01
 -0.122573470438E+01 -0.600232012419E+00  0.250494199996E+01  0.477386199275E+00  0.742988685424E+00 -0.739814786992E+00  0.177790177481E+01
  0.155830813274E+01  0.250494199996E+01 -0.249658902117E+01 -0.154800130438E+01 -0.487811078581E+00  0.250494199996E+01  0.627766083140E+00
 -0.345533899378E+00 -0.178862290564E+01 -0.158811787973E+01  0.125000000000E+01 -0.249658902117E+01 -0.144524380962E+01  0.000000000000E+00
 -0.125000000000E+01 -0.249658902117E+01 -0.249658902117E+01 -0.249658902117E+01
  0.805555099614E-04  0.125000000000E+01  0.823774297186E-04  0.103724302461E+01  0.219251206392E+01  0.922061490191E+00  0.103961354043E-03
  0.342005475212E-04  0.715990576545E+00  0.250000000000E+01  0.202479342020E+01  0.324151231464E+01  0.175434191980E+01  0.310152362409E+01
  0.404200324774E+01  0.375000000000E+01  0.810770748851E-04  0.930412228790E+00  0.299062775774E+01  0.500000000000E+01  0.429310310915E+01
  0.409252726285E+01  0.187029682677E+01  0.284428995242E+01  0.500000000000E+01  0.125000000000E+01  0.394624082883E+01  0.500000000000E+01
  0.500000000000E+01  0.250000000000E+01  0.375000000000E+01  0.500000000000E+01
  0.000000000000E+00  0.447917893105E+00  0.000000000000E+00  0.476275931555E+00  0.468523764259E+00  0.473519703687E+00  0.000000000000E+00
  0.000000000000E+00  0.412988885572E+00  0.477443348004E+00  0.472504673047E+00  0.485153442298E+00  0.492070550376E+00  0.488543839064E+00
  0.491923380126E+00  0.493078169939E+00  0.000000000000E+00  0.471586654449E+00  0.480934095627E+00  0.498012892236E+00  0.493689909583E+00
  0.490409919456E+00  0.456073457025E+00  0.472047037772E+00  0.498545864547E+00  0.449257989220E+00  0.491117573798E+00  0.499470102958E+00
  0.498443302005E+00  0.475665752879E+00  0.492352552841E+00  0.497648492019E+00
  0.104242640687E+01  0.102508330221E+01  0.104242640687E+01  0.103461472126E+01  0.100936211481E+01  0.102707647030E+01  0.104242640687E+01
  0.104242640687E+01  0.104103512175E+01  0.100608607954E+01  0.100935928681E+01  0.100173207642E+01  0.101882157420E+01  0.100399703841E+01
  0.100113916075E+01  0.100201867166E+01  0.104242640687E+01  0.103067303883E+01  0.100321571449E+01  0.100090132497E+01  0.100133271257E+01
  0.100116394826E+01  0.101357751416E+01  0.100469368551E+01  0.100084556817E+01  0.103269876849E+01  0.100165718156E+01  0.100040727367E+01
  0.100050934991E+01  0.100724883558E+01  0.100246497717E+01  0.100085386850E+01
  0.566582107869E+01  0.114010674124E+02  0.601822201180E+01  0.142741394658E+02  0.111392418031E+02  0.806538950848E+01  0.102902718132E+02
  0.699312946656E+01  0.119901710325E+01  0.818379782921E+01  0.143559070455E+02  0.855950028682E+01  0.174609989620E+02  0.625081479617E+01
  0.203311869900E+02  0.167685323644E+02  0.865535161909E+01  0.750127718643E+01  0.859759823754E+01  0.103625378424E+03  0.293274163813E+02
  0.151575352286E+02  0.150777961823E+02  0.892394047395E+01  0.110775854505E+03  0.165970676683E+02  0.116167812978E+02  0.114897729696E+03
  0.850537665865E+02  0.107894794012E+02  0.128066063262E+02  0.713450636939E+02
  0.143834171625E+01  0.462434919964E+01  0.196491547410E+01  0.495080146761E+01  0.415665828090E+01  0.556478157922E+01  0.132863381216E+01
  0.210740796457E+01  0.409583424672E+01  0.335870017123E+01  0.452736224306E+01  0.251898519952E+01  0.522189027818E+01  0.228991216372E+01
  0.404428733448E+01  0.365685621304E+01  0.150823793906E+01  0.510775129687E+01  0.260409037268E+01  0.214509705044E+02  0.592142315122E+01
  0.296129562617E+01  0.476565215639E+01  0.277261892702E+01  0.233643731816E+02  0.448280549550E+01  0.236697719444E+01  0.242557194252E+02
  0.179344181832E+02  0.346789526744E+01  0.312770020428E+01  0.149620713500E+02
  0.366528676769E+00  0.206811507758E+00  0.188497687636E+00  0.307225076241E+00 -0.240594081721E+00 -0.363829161646E+00  0.396000311113E+00
 -0.557830256141E+00  0.559481434467E+00  0.540808868375E-02 -0.945654689925E-01  0.260273921192E+00  0.110735640211E+00  0.166019093022E+00
  0.481946037542E+00  0.222830467600E-01 -0.483862814279E+00 -0.974764203166E+00  0.272090457704E+00 -0.168161712139E-01  0.332480362383E+00
  0.655782451361E-01  0.412088349555E+00  0.581842824957E-01 -0.112946560693E+00 -0.249705840758E+00 -0.127641544410E-01  0.165765422710E+00
  0.112585515532E+00 -0.152771512224E-01 -0.627321183918E-01 -0.196898690247E-01
 -0.340876887646E+01 -0.100994150809E+02 -0.458314343156E+01 -0.106592391506E+02 -0.880374403335E+01 -0.167555211873E+02 -0.307737907831E+01
 -0.389581603708E+01 -0.191709158057E+02 -0.883743089346E+01 -0.803793101976E+01 -0.682221469490E+01 -0.673125951179E+01 -0.769747680656E+01
 -0.492854513285E+01 -0.558726870608E+01 -0.264306405657E+01 -0.149695706118E+02 -0.708569561936E+01 -0.216766044908E+01 -0.432146224901E+01
 -0.487486065471E+01 -0.818319068237E+01 -0.746801476311E+01 -0.204947972869E+01 -0.113693085380E+02 -0.495383901240E+01 -0.188254728077E+01
 -0.228432156952E+01 -0.867600381841E+01 -0.537729521171E+01 -0.232638780009E+01
 -0.179803264046E+01 -0.476065557130E+01 -0.236385018280E+01 -0.575048786881E+01 -0.405180689470E+01 -0.421647448959E+01 -0.209197360481E+01
 -0.176503286777E+01 -0.180157082388E+01 -0.284355150035E+01 -0.510042859495E+01 -0.308137546688E+01 -0.613223999108E+01 -0.207587984620E+01
 -0.775363904778E+01 -0.639111662857E+01 -0.200652671124E+01 -0.398635974278E+01 -0.312407619154E+01 -0.429089803708E+02 -0.115274567252E+02
 -0.559873610386E+01 -0.535196165470E+01 -0.320527667826E+01 -0.459743342713E+02 -0.645980787630E+01 -0.410223552173E+01 -0.478299915984E+02
 -0.352163335894E+02 -0.380145737883E+01 -0.474669330982E+01 -0.293495327370E+02
        12        19        11        11
        11         5        12        12
        10        14         5         5
        19        13        11        11
        19        24        13        13
        30        23        24        24
        19        12        22        22
        28        22        21        21
        11        13         6         6
         7         6         9         9
        15        12        14        14
        18        13        23        23
        15        25        21        21
        27        19        22        22
        18         8         9         9
        27        31        24        24
         4        11         6         6
         5        14        12        12
         4         2         5         5
        21        12        15        15
        14        16        15        15
        24        19        27        27
        22        29        27        27
        23        26        18        18
        17         8        18        18
         5        11         4         4
         6         3         4         4
        26        23        30        30
         5         2        10        10
        16        14        10        10
         3         6         7         7
        21        25        28        28
        29        22        28        28
         6        13         9         9
         2         4         1         1
        31        27        32        32
        25        15        20        20
        24        23        13        13
         8         7         9         9
        13        18         9         9
        31        30        24        24
        12        21        22        22
        29        32        27        27
         3         1         4         4
        26        17        18        18
        16        20        15        15
zone t="boundary 2 bc-2", solutiontime= 0.3000000E+02, strandid=1002, i=33, j=48, f=feblock
  0.500195254569E+01  0.375034811445E+01  0.249861145586E+01  0.288036674135E+01  0.124717525353E+01  0.190856697906E+01  0.326577190006E+01
  0.201394855912E+01 -0.338397811579E-02  0.962374243892E+00  0.500000000000E+01  0.403430189815E+01  0.423029563516E+01  0.500000000000E+01
  0.385439188840E+01  0.500000000000E+01  0.398133433219E+01  0.315200081383E+01  0.266958028789E+01  0.154798029748E+01  0.218327860401E+01
  0.893688440127E+00  0.000000000000E+00  0.699009761219E+00  0.964460898511E+00  0.310303671661E+01  0.000000000000E+00  0.000000000000E+00
  0.125000000000E+01  0.500000000000E+01  0.375000000000E+01  0.250000000000E+01  0.000000000000E+00
 -0.249658902117E+01 -0.249658902117E+01 -0.249658902117E+01 -0.249658902117E+01 -0.249658902117E+01 -0.249658902117E+01 -0.249658902117E+01
 -0.249658902117E+01 -0.249658902117E+01 -0.249658902117E+01 -0.249658902117E+01 -0.249658902117E+01 -0.249658902117E+01 -0.249658902117E+01
 -0.249658902117E+01 -0.249658902117E+01 -0.249658902117E+01 -0.249658902117E+01 -0.249658902117E+01 -0.249658902117E+01 -0.249658902117E+01
 -0.249658902117E+01 -0.249658902117E+01 -0.249658902117E+01 -0.249658902117E+01 -0.249658902117E+01 -0.249658902117E+01 -0.249658902117E+01
 -0.249658902117E+01 -0.249658902117E+01 -0.249658902117E+01 -0.249658902117E+01 -0.249658902117E+01
  0.108218466124E-03  0.145871002877E-03  0.100891403625E-03  0.901663364691E+00  0.110859770246E-03  0.714928312397E+00  0.188140647111E+01
  0.175892165294E+01  0.810770748851E-04  0.957504290555E+00  0.125000000000E+01  0.100596696999E+01  0.191313518634E+01  0.250000000000E+01
  0.292898096729E+01  0.375000000000E+01  0.406883369623E+01  0.363389290091E+01  0.284756861229E+01  0.292582308304E+01  0.395754055152E+01
  0.205027257041E+01  0.125000000000E+01  0.306703272778E+01  0.397155766783E+01  0.433068622257E+01  0.250000000000E+01  0.375000000000E+01
  0.500000000000E+01  0.500000000000E+01  0.500000000000E+01  0.500000000000E+01  0.500000000000E+01
  0.000000000000E+00  0.000000000000E+00  0.000000000000E+00  0.384516102379E+00  0.000000000000E+00  0.340285873075E+00  0.586752973058E+00
  0.575426018814E+00  0.000000000000E+00  0.487199378467E+00  0.520641040018E+00  0.445423555755E+00  0.576269221497E+00  0.533962376915E+00
  0.567224534025E+00  0.511735128316E+00  0.508063929882E+00  0.527166122502E+00  0.565842714108E+00  0.531744059129E+00  0.508272212923E+00
  0.522388437206E+00  0.449257989220E+00  0.494521458294E+00  0.495788427677E+00  0.503678485303E+00  0.475665752879E+00  0.492352552841E+00
  0.494346755559E+00  0.491660272583E+00  0.489529542899E+00  0.494638536198E+00  0.497648492019E+00
  0.104242640687E+01  0.104242640687E+01  0.104242640687E+01  0.100355246665E+01  0.104242640687E+01  0.100599607839E+01  0.989008031489E+00
  0.992225316054E+00  0.104242640687E+01  0.997058798899E+00  0.987964542596E+00  0.995589876967E+00  0.989405264241E+00  0.100087323765E+01
  0.997203119671E+00  0.100346283424E+01  0.100053321078E+01  0.999080757420E+00  0.995647250027E+00  0.100095637499E+01  0.999458338897E+00
  0.100692573083E+01  0.103269876849E+01  0.100216635877E+01  0.100130290772E+01  0.999493814465E+00  0.100724883558E+01  0.100246497717E+01
  0.100077487280E+01  0.100026599126E+01  0.999860681535E+00  0.999993717468E+00  0.100085386850E+01
  0.140719769783E+02  0.144874435103E+02  0.143295187953E+02  0.147977640003E+02  0.134954666268E+02  0.144377604941E+02  0.183791345895E+02
  0.160698420981E+02  0.865535161909E+01  0.161094041164E+02  0.214995864785E+02  0.175076929186E+02  0.201564726687E+02  0.172053556211E+02
  0.144849149247E+02  0.116041271331E+02  0.126816469635E+02  0.134604142819E+02  0.155783585353E+02  0.131764011599E+02  0.107291176869E+02
  0.142367619590E+02  0.165970676683E+02  0.971789139864E+01  0.100149002696E+02  0.168603269560E+02  0.107894794012E+02  0.128066063262E+02
  0.462162868845E+02  0.181461042869E+02  0.215118425875E+02  0.658059433210E+01  0.713450636939E+02
 -0.280052074574E+01  0.343170070133E+00  0.626590991950E+00  0.622623019512E+01  0.113266221459E+00  0.525801735158E+01 -0.308793609050E+01
  0.932703491902E+00  0.150823793906E+01  0.568728063515E+01 -0.493675398062E+01 -0.175845223694E-01 -0.481383647784E+01 -0.440172520651E+01
 -0.389130700720E+01 -0.285303627728E+01 -0.296403447186E+01 -0.289825468035E+01 -0.299937760030E+01 -0.781693016619E+00 -0.244757019902E+01
  0.239105553870E+01  0.448280549550E+01  0.634000477968E+00 -0.477340704027E+00 -0.199162696205E+01  0.346789526744E+01  0.312770020428E+01
  0.611748098966E+01  0.117374252990E+00 -0.147689168730E+01 -0.436645923722E+01  0.149620713500E+02
 -0.351180799057E+00 -0.278512821014E+00  0.420319509983E+00  0.102526801875E+01  0.461186879663E+00  0.154540821064E+01 -0.277130208996E+00
 -0.487146024333E+00 -0.483862814279E+00  0.325467559254E+00 -0.130604649142E+00 -0.350578224572E+00  0.952054804277E-01 -0.291508082346E-01
 -0.129234435977E-01  0.435821027908E-01 -0.486637475370E-01  0.252428234787E-01  0.130630972096E+00  0.168733552085E+00 -0.137952810903E-01
 -0.104903135475E-01 -0.249705840758E+00 -0.789835284904E-01 -0.105252868903E+00  0.874567634739E-02 -0.152771512224E-01 -0.627321183918E-01
 -0.458127873072E-02  0.695338748322E-02  0.482553493450E-02 -0.174542325717E-01 -0.196898690247E-01
 -0.194340540642E+01 -0.339378081718E+01 -0.301239684716E+01 -0.148115490712E+02 -0.411612057869E+01 -0.196919677119E+02 -0.356161670352E+01
 -0.709018510732E+01 -0.264306405657E+01 -0.124400169368E+02 -0.112879389340E+01 -0.526904842003E+01 -0.154472825142E+01 -0.680309030411E+00
 -0.256430343311E+01 -0.847390138784E+00 -0.258848980704E+01 -0.389829699767E+01 -0.472488570312E+01 -0.641766548149E+01 -0.458244979073E+01
 -0.784428322247E+01 -0.113693085380E+02 -0.658366225471E+01 -0.487136198680E+01 -0.387031828450E+01 -0.867600381841E+01 -0.537729521171E+01
 -0.327033499707E+01 -0.148015647396E+01 -0.333334060020E+01 -0.377650937635E+01 -0.232638780009E+01
 -0.146946432364E+01 -0.432799379295E-02  0.556109270143E-02 -0.600670692246E+01 -0.233894368303E-01 -0.663205153769E+01 -0.390227165200E+01
 -0.414252923904E+01 -0.200652671124E+01 -0.679806833687E+01 -0.466919814970E+01 -0.462920377363E+01 -0.423527113652E+01 -0.333349900156E+01
 -0.277095849969E+01 -0.229246172521E+01 -0.267934037045E+01 -0.294767894040E+01 -0.357651040095E+01 -0.354947246419E+01 -0.220687452924E+01
 -0.447760856657E+01 -0.645980787630E+01 -0.288193046947E+01 -0.269560545588E+01 -0.454496826905E+01 -0.380145737883E+01 -0.474669330982E+01
 -0.177114481025E+02 -0.596014879525E+01 -0.653504123104E+01 -0.297941225534E+00 -0.293495327370E+02
        15         7        19        19
         8        20        19        19
        18        19        21        21
         7         4         8         8
         3         6         4         4
        19         7         8         8
        19        18        15        15
        14        13        15        15
         8        22        20        20
        27        24        22        22
        19        20        21        21
        32        26        21        21
        17        18        26        26
        17        16        15        15
        25        29        21        21
        12         7        13        13
        10         8         6         6
        25        20        24        24
         4         6         8         8
        12         2         4         4
        10        23        22        22
        26        31        17        17
        30        16        17        17
         4         7        12        12
        13        11        12        12
        21        20        25        25
        24        28        25        25
        22         8        10        10
         6         5        10        10
        31        26        32        32
         4         2         3         3
         5         6         3         3
        11        13        14        14
        22        23        27        27
        28        24        27        27
        15        13         7         7
         2        12         1         1
        29        25        33        33
        23        10         9         9
        21        26        18        18
        16        14        15        15
        18        17        15        15
        29        32        21        21
        22        24        20        20
        28        33        25        25
        11         1        12        12
        31        30        17        17
         5         9        10        10
zone t="boundary 3 bc-3", solutiontime= 0.3000000E+02, strandid=1003, i=33, j=48, f=feblock
  0.375059098657E+01  0.249769607633E+01  0.500322138025E+01  0.403612219887E+01  0.287976772043E+01  0.124541906321E+01  0.190552234484E+01
  0.500000000000E+01  0.326671105082E+01  0.423253757181E+01  0.201271135153E+01 -0.547473805950E-02  0.958895614436E+00  0.500000000000E+01
  0.266968147277E+01  0.385584488388E+01  0.890374186977E+00  0.154654012335E+01  0.000000000000E+00  0.500000000000E+01  0.315261137201E+01
  0.218304199244E+01  0.398195308498E+01  0.000000000000E+00  0.697379936714E+00  0.963757270369E+00  0.125000000000E+01  0.000000000000E+00
  0.500000000000E+01  0.310330738803E+01  0.250000000000E+01  0.375000000000E+01  0.000000000000E+00
  0.250494199996E+01  0.250494199996E+01  0.250494199996E+01  0.250494199996E+01  0.250494199996E+01  0.250494199996E+01  0.250494199996E+01
  0.250494199996E+01  0.250494199996E+01  0.250494199996E+01  0.250494199996E+01  0.250494199996E+01  0.250494199996E+01  0.250494199996E+01
  0.250494199996E+01  0.250494199996E+01  0.250494199996E+01  0.250494199996E+01  0.250494199996E+01  0.250494199996E+01  0.250494199996E+01
  0.250494199996E+01  0.250494199996E+01  0.250494199996E+01  0.250494199996E+01  0.250494199996E+01  0.250494199996E+01  0.250494199996E+01
  0.250494199996E+01  0.250494199996E+01  0.250494199996E+01  0.250494199996E+01  0.250494199996E+01
  0.135804630540E-03  0.110291624817E-03  0.968352334446E-04  0.101756767185E+01  0.908094754997E+00  0.104111079957E-03  0.722629266617E+00
  0.125000000000E+01  0.188965673342E+01  0.191862703992E+01  0.176708252859E+01  0.805555099614E-04  0.969652727920E+00  0.250000000000E+01
  0.285339441810E+01  0.293325064381E+01  0.205656233203E+01  0.293157024792E+01  0.125000000000E+01  0.375000000000E+01  0.363766843534E+01
  0.396069448925E+01  0.407056387650E+01  0.250000000000E+01  0.307031999891E+01  0.397359822904E+01  0.500000000000E+01  0.375000000000E+01
  0.500000000000E+01  0.433260783674E+01  0.500000000000E+01  0.500000000000E+01  0.500000000000E+01
  0.000000000000E+00  0.000000000000E+00  0.000000000000E+00  0.453747912967E+00  0.402545502453E+00  0.000000000000E+00  0.369629009544E+00
  0.520525438577E+00  0.575220780219E+00  0.575502697133E+00  0.558260174275E+00  0.000000000000E+00  0.478252962454E+00  0.530976530200E+00
  0.555830976399E+00  0.562793219653E+00  0.524675235835E+00  0.523282018189E+00  0.447917893105E+00  0.513796076167E+00  0.524673097209E+00
  0.506323914759E+00  0.509686671337E+00  0.477443348004E+00  0.499194823541E+00  0.497912967444E+00  0.492962759871E+00  0.493078169939E+00
  0.493192027983E+00  0.501531684732E+00  0.491169160322E+00  0.488098785874E+00  0.498012892236E+00
  0.104242640687E+01  0.104242640687E+01  0.104242640687E+01  0.992555420605E+00  0.100338777628E+01  0.104242640687E+01  0.100275102529E+01
  0.987610948162E+00  0.990360755947E+00  0.989796153239E+00  0.994453865708E+00  0.104242640687E+01  0.999323382885E+00  0.100158433896E+01
  0.997121320216E+00  0.998147046672E+00  0.100443205293E+01  0.100036233051E+01  0.102508330221E+01  0.100269535219E+01  0.100014129837E+01
  0.999693737613E+00  0.100036856474E+01  0.100608607954E+01  0.100156234007E+01  0.100069385186E+01  0.100096903929E+01  0.100201867166E+01
  0.100024531101E+01  0.999658107118E+00  0.100018113529E+01  0.100002132966E+01  0.100090132497E+01
  0.202467524937E+02  0.115371005659E+02  0.160868092098E+02  0.171415804630E+02  0.163338287958E+02  0.849799851494E+01  0.148513278524E+02
  0.222429382853E+02  0.193919839124E+02  0.199739633307E+02  0.175591726235E+02  0.566582107869E+01  0.162786236324E+02  0.168212170483E+02
  0.148770506572E+02  0.151880427301E+02  0.142910060192E+02  0.113525040451E+02  0.114010674124E+02  0.123319814620E+02  0.109195412366E+02
  0.974694947614E+01  0.957010901049E+01  0.818379782921E+01  0.805343609579E+01  0.186986761580E+02  0.632919403716E+02  0.167685323644E+02
  0.118769052722E+02  0.173630716667E+02  0.247357348982E+02  0.339474360081E+02  0.103625378424E+03
  0.439077131175E+00  0.130263432687E+01 -0.341222989165E+01  0.278891835316E+01  0.736339011042E+01  0.304525238885E+00  0.759853306028E+01
 -0.508049696548E+01 -0.410740929419E+01 -0.534226540641E+01  0.425365160573E+00  0.143834171625E+01  0.612683898589E+01 -0.434662190127E+01
 -0.312300655182E+01 -0.388249801410E+01  0.313074681796E+01 -0.126781638857E+01  0.462434919964E+01 -0.299760375414E+01 -0.349221726361E+01
 -0.291627410135E+01 -0.361088465632E+01  0.335870017123E+01  0.352333936964E+00  0.118118252188E+01  0.968260257715E+01  0.365685621304E+01
 -0.113652098668E+01 -0.196049008695E+01 -0.452120076512E+00  0.104261230749E+01  0.214509705044E+02
 -0.157081920930E+00  0.709619093030E-01  0.190412548373E+00 -0.135576265692E+01 -0.144712200648E+01 -0.847793720256E-01 -0.218145932772E-02
  0.938356592772E-01  0.383743146671E+00  0.680994274407E-01  0.394334633853E+00  0.366528676769E+00  0.316877362508E+00 -0.322942383707E-01
 -0.833552328934E-01  0.244708162958E-01 -0.986550105420E-01 -0.288382571839E+00  0.206811507758E+00 -0.472520634731E-01 -0.694519868408E-02
  0.285283627905E-01  0.875677829589E-02  0.540808868375E-02  0.833063679031E-01  0.139040129414E+00 -0.382327639549E-01  0.222830467600E-01
 -0.276632291712E-01 -0.137930743805E-02 -0.115023408836E-01 -0.400207614185E-02 -0.168161712139E-01
 -0.459045353390E+01 -0.414417604224E+01 -0.188871893794E+01 -0.137653439594E+02 -0.160475369554E+02 -0.385263689270E+01 -0.153002601261E+02
 -0.818684295722E+00 -0.506788749916E+01 -0.181048330475E+01 -0.731396587011E+01 -0.340876887646E+01 -0.107481442058E+02 -0.813583498790E+00
 -0.528028129430E+01 -0.274090555359E+01 -0.812324380805E+01 -0.700712321293E+01 -0.100994150809E+02 -0.101737605370E+01 -0.386860056740E+01
 -0.486471013917E+01 -0.268022517613E+01 -0.883743089346E+01 -0.729592331001E+01 -0.514513347030E+01 -0.341391604332E+01 -0.558726870608E+01
 -0.136265023207E+01 -0.380137340463E+01 -0.384419903631E+01 -0.333147478103E+01 -0.216766044908E+01
  0.541171801640E-02 -0.695834150651E-01 -0.150170287896E+01 -0.568655765027E+01 -0.670007909445E+01 -0.864443021468E-01 -0.695470590121E+01
 -0.486117801157E+01 -0.393666024377E+01 -0.393615143300E+01 -0.453380158364E+01 -0.179803264046E+01 -0.654071866937E+01 -0.325341041150E+01
 -0.328763267283E+01 -0.301508751116E+01 -0.464536733354E+01 -0.271596445949E+01 -0.476065557130E+01 -0.245821104201E+01 -0.183484190736E+01
 -0.170715531540E+01 -0.139013405776E+01 -0.284355150035E+01 -0.226155060647E+01 -0.629989476016E+01 -0.248217692636E+02 -0.639111662857E+01
 -0.334278258272E+01 -0.474117234515E+01 -0.796255245176E+01 -0.117403968529E+02 -0.429089803708E+02
        15         9        16        16
        15        18        11        11
        22        15        21        21
        11         5         9         9
         5         7         2         2
        11         9        15        15
        16        21        15        15
        16        10        14        14
        18        17        11        11
        17        25        24        24
        22        18        15        15
        22        30        31        31
        30        21        23        23
        16        20        23        23
        22        27        26        26
        10         9         4         4
         7        11        13        13
        25        18        26        26
        11         7         5         5
         5         1         4         4
        17        19        13        13
        23        32        30        30
        23        20        29        29
         4         9         5         5
         4         8        10        10
        26        18        22        22
        26        28        25        25
        13        11        17        17
        13         6         7         7
        31        30        32        32
         2         1         5         5
         2         7         6         6
        14        10         8         8
        24        19        17        17
        24        25        28        28
         9        10        16        16
         3         4         1         1
        33        26        27        27
        12        13        19        19
        21        30        22        22
        16        14        20        20
        16        23        21        21
        22        31        27        27
        18        25        17        17
        26        33        28        28
         4         3         8         8
        23        29        32        32
        13        12         6         6
zone t="boundary 4 bc-4", solutiontime= 0.3000000E+02, strandid=1004, i=32, j=46, f=feblock
  0.125000000000E+01  0.219251206392E+01  0.103724302461E+01  0.500000000000E+01  0.250000000000E+01  0.375000000000E+01  0.404200324774E+01
  0.500000000000E+01  0.000000000000E+00  0.310152362409E+01  0.202479342020E+01  0.324151231464E+01  0.922061490191E+00  0.000000000000E+00
  0.299062775774E+01  0.394624082883E+01  0.500000000000E+01  0.409252726285E+01  0.500000000000E+01  0.429310310915E+01  0.175434191980E+01
  0.284428995242E+01  0.000000000000E+00  0.000000000000E+00  0.715990576545E+00  0.930412228790E+00  0.125000000000E+01  0.187029682677E+01
  0.500000000000E+01  0.375000000000E+01  0.250000000000E+01  0.000000000000E+00
  0.250494199996E+01  0.157686156160E+01  0.146289271009E+01  0.250494199996E+01  0.250494199996E+01  0.250494199996E+01  0.155830813274E+01
  0.125000000000E+01  0.250494199996E+01  0.177790177481E+01  0.477386199275E+00  0.742988685424E+00  0.308372018325E+00  0.125000000000E+01
 -0.487811078581E+00 -0.144524380962E+01 -0.125000000000E+01 -0.345533899378E+00  0.000000000000E+00  0.627766083140E+00 -0.739814786992E+00
 -0.158811787973E+01  0.000000000000E+00 -0.125000000000E+01 -0.600232012419E+00 -0.154800130438E+01 -0.249658902117E+01 -0.178862290564E+01
 -0.249658902117E+01 -0.249658902117E+01 -0.249658902117E+01 -0.249658902117E+01
  0.500000000000E+01  0.500000000000E+01  0.500000000000E+01  0.500000000000E+01  0.500000000000E+01  0.500000000000E+01  0.500000000000E+01
  0.500000000000E+01  0.500000000000E+01  0.500000000000E+01  0.500000000000E+01  0.500000000000E+01  0.500000000000E+01  0.500000000000E+01
  0.500000000000E+01  0.500000000000E+01  0.500000000000E+01  0.500000000000E+01  0.500000000000E+01  0.500000000000E+01  0.500000000000E+01
  0.500000000000E+01  0.500000000000E+01  0.500000000000E+01  0.500000000000E+01  0.500000000000E+01  0.500000000000E+01  0.500000000000E+01
  0.500000000000E+01  0.500000000000E+01  0.500000000000E+01  0.500000000000E+01
  0.492962759871E+00  0.493501811672E+00  0.494482154832E+00  0.493192027983E+00  0.491169160322E+00  0.488098785874E+00  0.488213915628E+00
  0.494128983540E+00  0.498012892236E+00  0.490743060294E+00  0.492687813005E+00  0.491182349970E+00  0.497494162823E+00  0.498545864547E+00
  0.492035510720E+00  0.486141829064E+00  0.492132924673E+00  0.489715881183E+00  0.494539390222E+00  0.490046920039E+00  0.494491364916E+00
  0.492624363645E+00  0.499470102958E+00  0.498443302005E+00  0.498085503859E+00  0.496394045645E+00  0.494346755559E+00  0.494728908772E+00
  0.491660272583E+00  0.489529542899E+00  0.494638536198E+00  0.497648492019E+00
  0.100096903929E+01  0.100040310406E+01  0.100072208318E+01  0.100024531101E+01  0.100018113529E+01  0.100002132966E+01  0.999888523338E+00
  0.100031159626E+01  0.100090132497E+01  0.100020963142E+01  0.100030894110E+01  0.999990940254E+00  0.100060759990E+01  0.100084556817E+01
  0.100008167760E+01  0.999676407531E+00  0.100057119101E+01  0.999878618045E+00  0.100042307878E+01  0.999981274937E+00  0.100055778173E+01
  0.999986005540E+00  0.100040727367E+01  0.100050934991E+01  0.100040913615E+01  0.100074102371E+01  0.100077487280E+01  0.100045005174E+01
  0.100026599126E+01  0.999860681535E+00  0.999993717468E+00  0.100085386850E+01
  0.632919403716E+02  0.620401422763E+02  0.732830128024E+02  0.118769052722E+02  0.247357348982E+02  0.339474360081E+02  0.439336079268E+02
  0.995875192886E+01  0.103625378424E+03  0.397450488247E+02  0.622699165678E+02  0.346043274550E+02  0.849293589343E+02  0.110775854505E+03
  0.153326037484E+02  0.186191568182E+02  0.159624121908E+02  0.215462396664E+02  0.126295711307E+02  0.545388234839E+02  0.653908920808E+02
  0.133133879099E+02  0.114897729696E+03  0.850537665865E+02  0.949775755368E+02  0.599306540781E+02  0.462162868845E+02  0.435607294206E+02
  0.181461042869E+02  0.215118425875E+02  0.658059433210E+01  0.713450636939E+02