title="tecplot geometry and solution file"
variables = x y z mach temperature lambda1 lambda2 lambda3 lambda4 lambda5
zone t="boundary 1 bc-1", solutiontime= 0.6000000E+02, strandid=1001, i=32, j=46, f=feblock
 -0.547473805950E-02  0.000000000000E+00 -0.567611393137E-02  0.000000000000E+00  0.000000000000E+00  0.000000000000E+00 -0.525163715706E-02
 -0.425779957523E-02  0.000000000000E+00  0.000000000000E+00  0.000000000000E+00  0.000000000000E+00  0.000000000000E+00  0.000000000000E+00
  0.000000000000E+00  0.000000000000E+00 -0.338397811579E-02  0.000000000000E+00  0.000000000000E+00  0.000000000000E+00  0.000000000000E+00
  0.000000000000E+00  0.000000000000E+00  0.000000000000E+00  0.000000000000E+00  0.000000000000E+00  0.000000000000E+00  0.000000000000E+00
  0.000000000000E+00  0.000000000000E+00  0.000000000000E+00  0.000000000000E+00
  0.250494199996E+01  0.250494199996E+01  0.127822171177E+01  0.146289271009E+01  0.157686156160E+01  0.308372018325E+00  0.261949834557E-01
 -0.122573470438E+01 -0.600232012419E+00  0.250494199996E+01  0.477386199275E+00  0.742988685424E+00 -0.739814786992E+00  0.177790177481E+01
  0.155830813274E+01  0.250494199996E+01 -0.249658902117E+01 -0.154800130438E+01 -0.487811078581E+00  0.250494199996E+01  0.627766083140E+00
 -0.345533899378E+00 -0.178862290564E+01 -0.158811787973E+01  0.125000000000E+01 -0.249658902117E+01 -0.144524380962E+01  0.000000000000E+00
 -0.125000000000E+01 -0.249658902117E+01 -0.249658902117E+01 -0.249658902117E+01
  0.805555099614E-04  0.125000000000E+01  0.823774297186E-04  0.103724302461E+01  0.219251206392E+01  0.922061490191E+00  0.103961354043E-03
  0.342005475212E-04  0.715990576545E+00  0.250000000000E+01  0.202479342020E+01  0.324151231464E+01  0.175434191980E+01  0.310152362409E+01
  0.404200324774E+01  0.375000000000E+01  0.810770748851E-04  0.930412228790E+00  0.299062775774E+01  0.500000000000E+01  0.429310310915E+01
  0.409252726285E+01  0.187029682677E+01  0.284428995242E+01  0.500000000000E+01  0.125000000000E+01  0.394624082883E+01  0.500000000000E+01
  0.500000000000E+01  0.250000000000E+01  0.375000000000E+01  0.500000000000E+01
  0.000000000000E+00  0.447917893105E+00  0.000000000000E+00  0.476275931555E+00  0.468523764259E+00  0.473519703687E+00  0.000000000000E+00
  0.000000000000E+00  0.412988885572E+00  0.477443348004E+00  0.472504673047E+00  0.485153442298E+00  0.492070550376E+00  0.488543839064E+00
  0.491923380126E+00  0.493078169939E+00  0.000000000000E+00  0.471586654449E+00  0.480934095627E+00  0.498012892236E+00  0.493689909583E+00
  0.490409919456E+00  0.456073457025E+00  0.472047037772E+00  0.498545864547E+00  0.449257989220E+00  0.491117573798E+00  0.499470102958E+00
  0.498443302005E+00  0.475665752879E+00  0.492352552841E+00  0.497648492019E+00
  0.104242640687E+01  0.102508330221E+01  0.104242640687E+01  0.103461472126E+01  0.100936211481E+01  0.102707647030E+01  0.104242640687E+01
  0.104242640687E+01  0.104103512175E+01  0.100608607954E+01  0.100935928681E+01  0.100173207642E+01  0.101882157420E+01  0.100399703841E+01
  0.100113916075E+01  0.100201867166E+01  0.104242640687E+01  0.103067303883E+01  0.100321571449E+01  0.100090132497E+01  0.100133271257E+01
  0.100116394826E+01  0.101357751416E+01  0.100469368551E+01  0.100084556817E+01  0.103269876849E+01  0.100165718156E+01  0.100040727367E+01
  0.100050934991E+01  0.100724883558E+01  0.100246497717E+01  0.100085386850E+01
  0.566589203350E+01  0.114016941608E+02  0.601825352385E+01  0.142742044293E+02  0.111385133771E+02  0.806537182743E+01  0.102902855261E+02
  0.699315896934E+01  0.119921511629E+01  0.818378691256E+01  0.143552700246E+02  0.856026533438E+01  0.174600041437E+02  0.625136663043E+01
  0.203291127757E+02  0.167709998951E+02  0.865530365627E+01  0.750239438472E+01  0.859799059501E+01  0.103625901791E+03  0.293270258082E+02
  0.151621231451E+02  0.150777396310E+02  0.892306576617E+01  0.110775759772E+03  0.165979031439E+02  0.116163377824E+02  0.114894013176E+03
  0.850508386886E+02  0.107895521721E+02  0.128062340414E+02  0.713467581790E+02
  0.143834657748E+01  0.462448942573E+01  0.196491850789E+01  0.495081480485E+01  0.415652096653E+01  0.556475463848E+01  0.132864062215E+01
  0.210739947089E+01  0.409587017051E+01  0.335869728148E+01  0.452722045469E+01  0.251916139294E+01  0.522161239244E+01  0.228996868263E+01
  0.404351025349E+01  0.365728586890E+01  0.150822553027E+01  0.510797511659E+01  0.260423169804E+01  0.214515535993E+02  0.592115187275E+01
  0.296232055741E+01  0.476563687688E+01  0.277238649545E+01  0.233646555105E+02  0.448301987005E+01  0.236686372179E+01  0.242551380834E+02
  0.179337250106E+02  0.346787430412E+01  0.312760607497E+01  0.149624996943E+02
  0.366525338281E+00  0.206807922040E+00  0.188509686907E+00  0.307268683371E+00 -0.240585003393E+00 -0.363759032337E+00  0.396003662264E+00
 -0.557819112850E+00  0.559564683557E+00  0.540444758717E-02 -0.945771576131E-01  0.260366807917E+00  0.110734455416E+00  0.166025880961E+00
  0.481972277402E+00  0.222734636410E-01 -0.483860732829E+00 -0.974700785663E+00  0.272060576100E+00 -0.168270482174E-01  0.332709814756E+00
  0.657272333695E-01  0.412107922377E+00  0.581921629952E-01 -0.113163465658E+00 -0.249707041487E+00 -0.127297481297E-01  0.165315342236E+00
  0.112396402982E+00 -0.152761219474E-01 -0.627285465147E-01 -0.196816512446E-01
 -0.340878678772E+01 -0.100995224727E+02 -0.458315371313E+01 -0.106593031152E+02 -0.880380557603E+01 -0.167555115282E+02 -0.307737930910E+01
 -0.389582833262E+01 -0.191709296101E+02 -0.883749507842E+01 -0.803789011319E+01 -0.682224957166E+01 -0.673125649002E+01 -0.769752379596E+01
 -0.492848275370E+01 -0.558710380029E+01 -0.264305812817E+01 -0.149695493542E+02 -0.708570296907E+01 -0.216775834845E+01 -0.432132050679E+01
 -0.487475926590E+01 -0.818321937245E+01 -0.746804019856E+01 -0.204955042541E+01 -0.113692752622E+02 -0.495392328911E+01 -0.188252755576E+01
 -0.228430413457E+01 -0.867602510558E+01 -0.537733638002E+01 -0.232638944993E+01
 -0.179810027302E+01 -0.476091472619E+01 -0.236388928166E+01 -0.575051002093E+01 -0.405149599113E+01 -0.421646175197E+01 -0.209196904256E+01
 -0.176508395876E+01 -0.180164255564E+01 -0.284353865369E+01 -0.510015420061E+01 -0.308169852672E+01 -0.613180680356E+01 -0.207609803959E+01
 -0.775268598672E+01 -0.639216406513E+01 -0.200648620536E+01 -0.398682033603E+01 -0.312424679295E+01 -0.429092649372E+02 -0.115272577915E+02
 -0.560070299370E+01 -0.535193418158E+01 -0.320490078186E+01 -0.459743343226E+02 -0.646015620686E+01 -0.410203714174E+01 -0.478284450685E+02
 -0.352150723236E+02 -0.380147917683E+01 -0.474652995277E+01 -0.293502682171E+02
        12        19        11        11
        11         5        12        12
        10        14         5         5
        19        13        11        11
        19        24        13        13
        30        23        24        24
        19        12        22        22
        28        22        21        21
        11        13         6         6
         7         6         9         9
        15        12        14        14
        18        13        23        23
        15        25        21        21
        27        19        22        22
        18         8         9         9
        27        31        24        24
         4        11         6         6
         5        14        12        12
         4         2         5         5
        21        12        15        15
        14        16        15        15
        24        19        27        27
        22        29        27        27
        23        26        18        18
        17         8        18        18
         5        11         4         4
         6         3         4         4
        26        23        30        30
         5         2        10        10
        16        14        10        10
         3         6         7         7
        21        25        28        28
        29        22        28        28
         6        13         9         9
         2         4         1         1
        31        27        32        32
        25        15        20        20
        24        23        13        13
         8         7         9         9
        13        18         9         9
        31        30        24        24
        12        21        22        22
        29        32        27        27
         3         1         4         4
        26        17        18        18
        16        20        15        15
zone t="boundary 2 bc-2", solutiontime= 0.6000000E+02, strandid=1002, i=33, j=48, f=feblock
  0.500195254569E+01  0.375034811445E+01  0.249861145586E+01  0.288036674135E+01  0.124717525353E+01  0.190856697906E+01  0.326577190006E+01
  0.201394855912E+01 -0.338397811579E-02  0.962374243892E+00  0.500000000000E+01  0.403430189815E+01  0.423029563516E+01  0.500000000000E+01
  0.385439188840E+01  0.500000000000E+01  0.398133433219E+01  0.315200081383E+01  0.266958028789E+01  0.154798029748E+01  0.218327860401E+01
  0.893688440127E+00  0.000000000000E+00  0.699009761219E+00  0.964460898511E+00  0.310303671661E+01  0.000000000000E+00  0.000000000000E+00
  0.125000000000E+01  0.500000000000E+01  0.375000000000E+01  0.250000000000E+01  0.000000000000E+00
 -0.249658902117E+01 -0.249658902117E+01 -0.249658902117E+01 -0.249658902117E+01 -0.249658902117E+01 -0.249658902117E+01 -0.249658902117E+01
 -0.249658902117E+01 -0.249658902117E+01 -0.249658902117E+01 -0.249658902117E+01 -0.249658902117E+01 -0.249658902117E+01 -0.249658902117E+01
 -0.249658902117E+01 -0.249658902117E+01 -0.249658902117E+01 -0.249658902117E+01 -0.249658902117E+01 -0.249658902117E+01 -0.249658902117E+01
 -0.249658902117E+01 -0.249658902117E+01 -0.249658902117E+01 -0.249658902117E+01 -0.249658902117E+01 -0.249658902117E+01 -0.249658902117E+01
 -0.249658902117E+01 -0.249658902117E+01 -0.249658902117E+01 -0.249658902117E+01 -0.249658902117E+01
  0.108218466124E-03  0.145871002877E-03  0.100891403625E-03  0.901663364691E+00  0.110859770246E-03  0.714928312397E+00  0.188140647111E+01
  0.175892165294E+01  0.810770748851E-04  0.957504290555E+00  0.125000000000E+01  0.100596696999E+01  0.191313518634E+01  0.250000000000E+01
  0.292898096729E+01  0.375000000000E+01  0.406883369623E+01  0.363389290091E+01  0.284756861229E+01  0.292582308304E+01  0.395754055152E+01
  0.205027257041E+01  0.125000000000E+01  0.306703272778E+01  0.397155766783E+01  0.433068622257E+01  0.250000000000E+01  0.375000000000E+01
  0.500000000000E+01  0.500000000000E+01  0.500000000000E+01  0.500000000000E+01  0.500000000000E+01
  0.000000000000E+00  0.000000000000E+00  0.000000000000E+00  0.384516102379E+00  0.000000000000E+00  0.340285873075E+00  0.586752973058E+00
  0.575426018814E+00  0.000000000000E+00  0.487199378467E+00  0.520641040018E+00  0.445423555755E+00  0.576269221497E+00  0.533962376915E+00
  0.567224534025E+00  0.511735128316E+00  0.508063929882E+00  0.527166122502E+00  0.565842714108E+00  0.531744059129E+00  0.508272212923E+00
  0.522388437206E+00  0.449257989220E+00  0.494521458294E+00  0.495788427677E+00  0.503678485303E+00  0.475665752879E+00  0.492352552841E+00
  0.494346755559E+00  0.491660272583E+00  0.489529542899E+00  0.494638536198E+00  0.497648492019E+00
  0.104242640687E+01  0.104242640687E+01  0.104242640687E+01  0.100355246665E+01  0.104242640687E+01  0.100599607839E+01  0.989008031489E+00
  0.992225316054E+00  0.104242640687E+01  0.997058798899E+00  0.987964542596E+00  0.995589876967E+00  0.989405264241E+00  0.100087323765E+01
  0.997203119671E+00  0.100346283424E+01  0.100053321078E+01  0.999080757420E+00  0.995647250027E+00  0.100095637499E+01  0.999458338897E+00
  0.100692573083E+01  0.103269876849E+01  0.100216635877E+01  0.100130290772E+01  0.999493814465E+00  0.100724883558E+01  0.100246497717E+01
  0.100077487280E+01  0.100026599126E+01  0.999860681535E+00  0.999993717468E+00  0.100085386850E+01
  0.140719700450E+02  0.144874377668E+02  0.143295040586E+02  0.147978179459E+02  0.134954758183E+02  0.144381948102E+02  0.183791088826E+02
  0.160696977120E+02  0.865530365627E+01  0.161087330208E+02  0.214995998381E+02  0.175074637773E+02  0.201564954735E+02  0.172053422733E+02
  0.144849135377E+02  0.116041069727E+02  0.126817040678E+02  0.134604674540E+02  0.155783689881E+02  0.131764530433E+02  0.107292734240E+02
  0.142374614709E+02  0.165979031439E+02  0.971828357661E+01  0.100141610076E+02  0.168603259498E+02  0.107895521721E+02  0.128062340414E+02
  0.462145273802E+02  0.181461054542E+02  0.215117784143E+02  0.658079338928E+01  0.713467581790E+02
 -0.280051893787E+01  0.343168358488E+00  0.626588703706E+00  0.622626192810E+01  0.113272530182E+00  0.525813080513E+01 -0.308794145235E+01
  0.932669914282E+00  0.150822553027E+01  0.568718997157E+01 -0.493674486126E+01 -0.176307923562E-01 -0.481382363484E+01 -0.440172357146E+01
 -0.389130571978E+01 -0.285303877230E+01 -0.296402688709E+01 -0.289825434878E+01 -0.299937416085E+01 -0.781687213383E+00 -0.244756453049E+01
  0.239123969131E+01  0.448301987005E+01  0.634046799581E+00 -0.477546939252E+00 -0.199165348955E+01  0.346787430412E+01  0.312760607497E+01
  0.611723483077E+01  0.117376700307E+00 -0.147689738136E+01 -0.436634920132E+01  0.149624996943E+02
 -0.351181848563E+00 -0.278512354349E+00  0.420320596895E+00  0.102526960807E+01  0.461183671588E+00  0.154540524841E+01 -0.277131371913E+00
 -0.487147396928E+00 -0.483860732829E+00  0.325449038696E+00 -0.130604584875E+00 -0.350580425739E+00  0.952060282937E-01 -0.291507267233E-01
 -0.129233999641E-01  0.435821688205E-01 -0.486632058319E-01  0.252435752645E-01  0.130631221382E+00  0.168731517500E+00 -0.137937510542E-01
 -0.104912887475E-01 -0.249707041487E+00 -0.789818340099E-01 -0.105253138771E+00  0.874558672810E-02 -0.152761219474E-01 -0.627285465147E-01
 -0.458520646350E-02  0.695388880181E-02  0.482618600926E-02 -0.174532522168E-01 -0.196816512446E-01
 -0.194340618078E+01 -0.339378021401E+01 -0.301239653800E+01 -0.148115388188E+02 -0.411612188431E+01 -0.196919578432E+02 -0.356160807749E+01
 -0.709018547040E+01 -0.264305812817E+01 -0.124399931179E+02 -0.112879478319E+01 -0.526902783275E+01 -0.154472674738E+01 -0.680308628008E+00
 -0.256429946133E+01 -0.847390027804E+00 -0.258848832124E+01 -0.389829025158E+01 -0.472488121240E+01 -0.641765270260E+01 -0.458246452270E+01
 -0.784426933768E+01 -0.113692752622E+02 -0.658362959289E+01 -0.487136642395E+01 -0.387033336040E+01 -0.867602510558E+01 -0.537733638002E+01
 -0.327033816643E+01 -0.148015343854E+01 -0.333333860536E+01 -0.377649708240E+01 -0.232638944993E+01
 -0.146945995267E+01 -0.432407993548E-02  0.556404580630E-02 -0.600673507468E+01 -0.233947035670E-01 -0.663223588384E+01 -0.390226131316E+01
 -0.414246658441E+01 -0.200648620536E+01 -0.679778952312E+01 -0.466920679592E+01 -0.462910601959E+01 -0.423528416592E+01 -0.333349546608E+01
 -0.277095881944E+01 -0.229245368934E+01 -0.267936407626E+01 -0.294770017382E+01 -0.357651608930E+01 -0.354949487491E+01 -0.220693539472E+01
 -0.447791329536E+01 -0.646015620686E+01 -0.288209475233E+01 -0.269527927474E+01 -0.454496106849E+01 -0.380147917683E+01 -0.474652995277E+01
 -0.177107265296E+02 -0.596015051834E+01 -0.653501703339E+01 -0.298046049832E+00 -0.293502682171E+02
        15         7        19        19
         8        20        19        19
        18        19        21        21
         7         4         8         8
         3         6         4         4
        19         7         8         8
        19        18        15        15
        14        13        15        15
         8        22        20        20
        27        24        22        22
        19        20        21        21
        32        26        21        21
        17        18        26        26
        17        16        15        15
        25        29        21        21
        12         7        13        13
        10         8         6         6
        25        20        24        24
         4         6         8         8
        12         2         4         4
        10        23        22        22
        26        31        17        17
        30        16        17        17
         4         7        12        12
        13        11        12        12
        21        20        25        25
        24        28        25        25
        22         8        10        10
         6         5        10        10
        31        26        32        32
         4         2         3         3
         5         6         3         3
        11        13        14        14
        22        23        27        27
        28        24        27        27
        15        13         7         7
         2        12         1         1
        29        25        33        33
        23        10         9         9
        21        26        18        18
        16        14        15        15
        18        17        15        15
        29        32        21        21
        22        24        20        20
        28        33        25        25
        11         1        12        12
        31        30        17        17
         5         9        10        10
zone t="boundary 3 bc-3", solutiontime= 0.6000000E+02, strandid=1003, i=33, j=48, f=feblock
  0.375059098657E+01  0.249769607633E+01  0.500322138025E+01  0.403612219887E+01  0.287976772043E+01  0.124541906321E+01  0.190552234484E+01
  0.500000000000E+01  0.326671105082E+01  0.423253757181E+01  0.201271135153E+01 -0.547473805950E-02  0.958895614436E+00  0.500000000000E+01
  0.266968147277E+01  0.385584488388E+01  0.890374186977E+00  0.154654012335E+01  0.000000000000E+00  0.500000000000E+01  0.315261137201E+01
  0.218304199244E+01  0.398195308498E+01  0.000000000000E+00  0.697379936714E+00  0.963757270369E+00  0.125000000000E+01  0.000000000000E+00
  0.500000000000E+01  0.310330738803E+01  0.250000000000E+01  0.375000000000E+01  0.000000000000E+00
  0.250494199996E+01  0.250494199996E+01  0.250494199996E+01  0.250494199996E+01  0.250494199996E+01  0.250494199996E+01  0.250494199996E+01
  0.250494199996E+01  0.250494199996E+01  0.250494199996E+01  0.250494199996E+01  0.250494199996E+01  0.250494199996E+01  0.250494199996E+01
  0.250494199996E+01  0.250494199996E+01  0.250494199996E+01  0.250494199996E+01  0.250494199996E+01  0.250494199996E+01  0.250494199996E+01
  0.250494199996E+01  0.250494199996E+01  0.250494199996E+01  0.250494199996E+01  0.250494199996E+01  0.250494199996E+01  0.250494199996E+01
  0.250494199996E+01  0.250494199996E+01  0.250494199996E+01  0.250494199996E+01  0.250494199996E+01
  0.135804630540E-03  0.110291624817E-03  0.968352334446E-04  0.101756767185E+01  0.908094754997E+00  0.104111079957E-03  0.722629266617E+00
  0.125000000000E+01  0.188965673342E+01  0.191862703992E+01  0.176708252859E+01  0.805555099614E-04  0.969652727920E+00  0.250000000000E+01
  0.285339441810E+01  0.293325064381E+01  0.205656233203E+01  0.293157024792E+01  0.125000000000E+01  0.375000000000E+01  0.363766843534E+01
  0.396069448925E+01  0.407056387650E+01  0.250000000000E+01  0.307031999891E+01  0.397359822904E+01  0.500000000000E+01  0.375000000000E+01
  0.500000000000E+01  0.433260783674E+01  0.500000000000E+01  0.500000000000E+01  0.500000000000E+01
  0.000000000000E+00  0.000000000000E+00  0.000000000000E+00  0.453747912967E+00  0.402545502453E+00  0.000000000000E+00  0.369629009544E+00
  0.520525438577E+00  0.575220780219E+00  0.575502697133E+00  0.558260174275E+00  0.000000000000E+00  0.478252962454E+00  0.530976530200E+00
  0.555830976399E+00  0.562793219653E+00  0.524675235835E+00  0.523282018189E+00  0.447917893105E+00  0.513796076167E+00  0.524673097209E+00
  0.506323914759E+00  0.509686671337E+00  0.477443348004E+00  0.499194823541E+00  0.497912967444E+00  0.492962759871E+00  0.493078169939E+00
  0.493192027983E+00  0.501531684732E+00  0.491169160322E+00  0.488098785874E+00  0.498012892236E+00
  0.104242640687E+01  0.104242640687E+01  0.104242640687E+01  0.992555420605E+00  0.100338777628E+01  0.104242640687E+01  0.100275102529E+01
  0.987610948162E+00  0.990360755947E+00  0.989796153239E+00  0.994453865708E+00  0.104242640687E+01  0.999323382885E+00  0.100158433896E+01
  0.997121320216E+00  0.998147046672E+00  0.100443205293E+01  0.100036233051E+01  0.102508330221E+01  0.100269535219E+01  0.100014129837E+01
  0.999693737613E+00  0.100036856474E+01  0.100608607954E+01  0.100156234007E+01  0.100069385186E+01  0.100096903929E+01  0.100201867166E+01
  0.100024531101E+01  0.999658107118E+00  0.100018113529E+01  0.100002132966E+01  0.100090132497E+01
  0.202466299473E+02  0.115370729696E+02  0.160868030491E+02  0.171412324292E+02  0.163353895137E+02  0.849800319175E+01  0.148521688806E+02
  0.222429734369E+02  0.193917775120E+02  0.199740646803E+02  0.175592989528E+02  0.566589203350E+01  0.162802282962E+02  0.168211944592E+02
  0.148770505743E+02  0.151880850282E+02  0.142911386715E+02  0.113519537415E+02  0.114016941608E+02  0.123319897256E+02  0.109194825416E+02
  0.974692196657E+01  0.957006387558E+01  0.818378691256E+01  0.805350411257E+01  0.186994130854E+02  0.632906791179E+02  0.167709998951E+02
  0.118769132977E+02  0.173632605452E+02  0.247358034450E+02  0.339472693655E+02  0.103625901791E+03
  0.439070691752E+00  0.130262843637E+01 -0.341222229134E+01  0.278901971951E+01  0.736385157060E+01  0.304498967544E+00  0.759881922482E+01
 -0.508047727196E+01 -0.410747096896E+01 -0.534223273861E+01  0.425468462005E+00  0.143834657748E+01  0.612725943867E+01 -0.434662532106E+01
 -0.312300728236E+01 -0.388248512352E+01  0.313076490260E+01 -0.126800391114E+01  0.462448942573E+01 -0.299759781921E+01 -0.349221328118E+01
 -0.291634092610E+01 -0.361089586296E+01  0.335869728148E+01  0.352221913478E+00  0.118130891981E+01  0.968217934402E+01  0.365728586890E+01
 -0.113651162839E+01 -0.196049009649E+01 -0.451933816443E+00  0.104257576629E+01  0.214515535993E+02
 -0.157086128084E+00  0.709600627226E-01  0.190415941886E+00 -0.135577636684E+01 -0.144715345356E+01 -0.847828850262E-01 -0.218863303162E-02
  0.938337222123E-01  0.383745736259E+00  0.680974381563E-01  0.394338793817E+00  0.366525338281E+00  0.316865904399E+00 -0.322939627028E-01
 -0.833532474234E-01  0.244702281080E-01 -0.986646200936E-01 -0.288372190680E+00  0.206807922040E+00 -0.472523865172E-01 -0.694525922753E-02
  0.285307278629E-01  0.875711813545E-02  0.540444758717E-02  0.833050747556E-01  0.139048156340E+00 -0.382196474705E-01  0.222734636410E-01
 -0.276631432900E-01 -0.137589448928E-02 -0.115036148946E-01 -0.399973089548E-02 -0.168270482174E-01
 -0.459044053557E+01 -0.414419497283E+01 -0.188871590686E+01 -0.137653114372E+02 -0.160476510657E+02 -0.385264312357E+01 -0.153003377976E+02
 -0.818697025592E+00 -0.506790006655E+01 -0.181048314662E+01 -0.731403704936E+01 -0.340878678772E+01 -0.107481609140E+02 -0.813584166114E+00
 -0.528028201056E+01 -0.274090102996E+01 -0.812319356146E+01 -0.700717282819E+01 -0.100995224727E+02 -0.101737691207E+01 -0.386859142420E+01
 -0.486471518706E+01 -0.268022138794E+01 -0.883749507842E+01 -0.729596422881E+01 -0.514518418306E+01 -0.341390151384E+01 -0.558710380029E+01
 -0.136264848204E+01 -0.380140115059E+01 -0.384420389134E+01 -0.333146820545E+01 -0.216775834845E+01
  0.543940810118E-02 -0.696115798494E-01 -0.150170927373E+01 -0.568645014936E+01 -0.670076288290E+01 -0.864347606264E-01 -0.695508437499E+01
 -0.486120059602E+01 -0.393656231778E+01 -0.393619973062E+01 -0.453386345014E+01 -0.179810027302E+01 -0.654141521735E+01 -0.325340165606E+01
 -0.328763291619E+01 -0.301510764385E+01 -0.464541706131E+01 -0.271571397333E+01 -0.476091472619E+01 -0.245821695197E+01 -0.183482241286E+01
 -0.170713108096E+01 -0.139011509479E+01 -0.284353865369E+01 -0.226154278670E+01 -0.630020017901E+01 -0.248211930551E+02 -0.639216406513E+01
 -0.334278882314E+01 -0.474124381038E+01 -0.796261396453E+01 -0.117403295836E+02 -0.429092649372E+02
        15         9        16        16
        15        18        11        11
        22        15        21        21
        11         5         9         9
         5         7         2         2
        11         9        15        15
        16        21        15        15
        16        10        14        14
        18        17        11        11
        17        25        24        24
        22        18        15        15
        22        30        31        31
        30        21        23        23
        16        20        23        23
        22        27        26        26
        10         9         4         4
         7        11        13        13
        25        18        26        26
        11         7         5         5
         5         1         4         4
        17        19        13        13
        23        32        30        30
        23        20        29        29
         4         9         5         5
         4         8        10        10
        26        18        22        22
        26        28        25        25
        13        11        17        17
        13         6         7         7
        31        30        32        32
         2         1         5         5
         2         7         6         6
        14        10         8         8
        24        19        17        17
        24        25        28        28
         9        10        16        16
         3         4         1         1
        33        26        27        27
        12        13        19        19
        21        30        22        22
        16        14        20        20
        16        23        21        21
        22        31        27        27
        18        25        17        17
        26        33        28        28
         4         3         8         8
        23        29        32        32
        13        12         6         6
zone t="boundary 4 bc-4", solutiontime= 0.6000000E+02, strandid=1004, i=32, j=46, f=feblock
  0.125000000000E+01  0.219251206392E+01  0.103724302461E+01  0.500000000000E+01  0.250000000000E+01  0.375000000000E+01  0.404200324774E+01
  0.500000000000E+01  0.000000000000E+00  0.310152362409E+01  0.202479342020E+01  0.324151231464E+01  0.922061490191E+00  0.000000000000E+00
  0.299062775774E+01  0.394624082883E+01  0.500000000000E+01  0.409252726285E+01  0.500000000000E+01  0.429310310915E+01  0.175434191980E+01
  0.284428995242E+01  0.000000000000E+00  0.000000000000E+00  0.715990576545E+00  0.930412228790E+00  0.125000000000E+01  0.187029682677E+01
  0.500000000000E+01  0.375000000000E+01  0.250000000000E+01  0.000000000000E+00
  0.250494199996E+01  0.157686156160E+01  0.146289271009E+01  0.250494199996E+01  0.250494199996E+01  0.250494199996E+01  0.155830813274E+01
  0.125000000000E+01  0.250494199996E+01  0.177790177481E+01  0.477386199275E+00  0.742988685424E+00  0.308372018325E+00  0.125000000000E+01
 -0.487811078581E+00 -0.144524380962E+01 -0.125000000000E+01 -0.345533899378E+00  0.000000000000E+00  0.627766083140E+00 -0.739814786992E+00
 -0.158811787973E+01  0.000000000000E+00 -0.125000000000E+01 -0.600232012419E+00 -0.154800130438E+01 -0.249658902117E+01 -0.178862290564E+01
 -0.249658902117E+01 -0.249658902117E+01 -0.249658902117E+01 -0.249658902117E+01
  0.500000000000E+01  0.500000000000E+01  0.500000000000E+01  0.500000000000E+01  0.500000000000E+01  0.500000000000E+01  0.500000000000E+01
  0.500000000000E+01  0.500000000000E+01  0.500000000000E+01  0.500000000000E+01  0.500000000000E+01  0.500000000000E+01  0.500000000000E+01
  0.500000000000E+01  0.500000000000E+01  0.500000000000E+01  0.500000000000E+01  0.500000000000E+01  0.500000000000E+01  0.500000000000E+01
  0.500000000000E+01  0.500000000000E+01  0.500000000000E+01  0.500000000000E+01  0.500000000000E+01  0.500000000000E+01  0.500000000000E+01
  0.500000000000E+01  0.500000000000E+01  0.500000000000E+01  0.500000000000E+01
  0.492962759871E+00  0.493501811672E+00  0.494482154832E+00  0.493192027983E+00  0.491169160322E+00  0.488098785874E+00  0.488213915628E+00
  0.494128983540E+00  0.498012892236E+00  0.490743060294E+00  0.492687813005E+00  0.491182349970E+00  0.497494162823E+00  0.498545864547E+00
  0.492035510720E+00  0.486141829064E+00  0.492132924673E+00  0.489715881183E+00  0.494539390222E+00  0.490046920039E+00  0.494491364916E+00
  0.492624363645E+00  0.499470102958E+00  0.498443302005E+00  0.498085503859E+00  0.496394045645E+00  0.494346755559E+00  0.494728908772E+00
  0.491660272583E+00  0.489529542899E+00  0.494638536198E+00  0.497648492019E+00
  0.100096903929E+01  0.100040310406E+01  0.100072208318E+01  0.100024531101E+01  0.100018113529E+01  0.100002132966E+01  0.999888523338E+00
  0.100031159626E+01  0.100090132497E+01  0.100020963142E+01  0.100030894110E+01  0.999990940254E+00  0.100060759990E+01  0.100084556817E+01
  0.100008167760E+01  0.999676407531E+00  0.100057119101E+01  0.999878618045E+00  0.100042307878E+01  0.999981274937E+00  0.100055778173E+01
  0.999986005540E+00  0.100040727367E+01  0.100050934991E+01  0.100040913615E+01  0.100074102371E+01  0.100077487280E+01  0.100045005174E+01
  0.100026599126E+01  0.999860681535E+00  0.999993717468E+00  0.100085386850E+01
  0.632906791179E+02  0.620405532106E+02  0.732823538729E+02  0.118769132977E+02  0.247358034450E+02  0.339472693655E+02  0.439336193964E+02
  0.995875682664E+01  0.103625901791E+03  0.397445039256E+02  0.622695003607E+02  0.346043766820E+02  0.849270786374E+02  0.110775759772E+03
  0.153326629347E+02  0.186190890059E+02  0.159624316977E+02  0.215461311532E+02  0.126295913038E+02  0.545386825668E+02  0.653921337150E+02
  0.133130834697E+02  0.114894013176E+03  0.850508386886E+02  0.949743177206E+02  0.599311610673E+02  0.462145273802E+02  0.435603736166E+02
  0.181461054542E+02  0.215117784143E+02  0.658079338928E+01  0.713467581790E+02