title="tecplot geometry and solution file"
variables = x y z mach temperature lambda1 lambda2 lambda3 lambda4 lambda5
zone t="boundary 1 bc-1", solutiontime= 0.1000000E+02, strandid=1001, i=32, j=46, f=feblock
 -0.547473805950E-02  0.000000000000E+00 -0.567611393137E-02  0.000000000000E+00  0.000000000000E+00  0.000000000000E+00 -0.525163715706E-02
 -0.425779957523E-02  0.000000000000E+00  0.000000000000E+00  0.000000000000E+00  0.000000000000E+00  0.000000000000E+00  0.000000000000E+00
  0.000000000000E+00  0.000000000000E+00 -0.338397811579E-02  0.000000000000E+00  0.000000000000E+00  0.000000000000E+00  0.000000000000E+00
  0.000000000000E+00  0.000000000000E+00  0.000000000000E+00  0.000000000000E+00  0.000000000000E+00  0.000000000000E+00  0.000000000000E+00
  0.000000000000E+00  0.000000000000E+00  0.000000000000E+00  0.000000000000E+00
  0.250494199996E+01  0.250494199996E+01  0.127822171177E+01  0.146289271009E+01  0.157686156160E+01  0.308372018325E+00  0.261949834557E-01
 -0.122573470438E+01 -0.600232012419E+00  0.250494199996E+01  0.477386199275E+00  0.742988685424E+00 -0.739814786992E+00  0.177790177481E+01
  0.155830813274E+01  0.250494199996E+01 -0.249658902117E+01 -0.154800130438E+01 -0.487811078581E+00  0.250494199996E+01  0.627766083140E+00
 -0.345533899378E+00 -0.178862290564E+01 -0.158811787973E+01  0.125000000000E+01 -0.249658902117E+01 -0.144524380962E+01  0.000000000000E+00
 -0.125000000000E+01 -0.249658902117E+01 -0.249658902117E+01 -0.249658902117E+01
  0.805555099614E-04  0.125000000000E+01  0.823774297186E-04  0.103724302461E+01  0.219251206392E+01  0.922061490191E+00  0.103961354043E-03
  0.342005475212E-04  0.715990576545E+00  0.250000000000E+01  0.202479342020E+01  0.324151231464E+01  0.175434191980E+01  0.310152362409E+01
  0.404200324774E+01  0.375000000000E+01  0.810770748851E-04  0.930412228790E+00  0.299062775774E+01  0.500000000000E+01  0.429310310915E+01
  0.409252726285E+01  0.187029682677E+01  0.284428995242E+01  0.500000000000E+01  0.125000000000E+01  0.394624082883E+01  0.500000000000E+01
  0.500000000000E+01  0.250000000000E+01  0.375000000000E+01  0.500000000000E+01
  0.000000000000E+00  0.447917893105E+00  0.000000000000E+00  0.476275931555E+00  0.468523764259E+00  0.473519703687E+00  0.000000000000E+00
  0.000000000000E+00  0.412988885572E+00  0.477443348004E+00  0.472504673047E+00  0.485153442298E+00  0.492070550376E+00  0.488543839064E+00
  0.491923380126E+00  0.493078169939E+00  0.000000000000E+00  0.471586654449E+00  0.480934095627E+00  0.498012892236E+00  0.493689909583E+00
  0.490409919456E+00  0.456073457025E+00  0.472047037772E+00  0.498545864547E+00  0.449257989220E+00  0.491117573798E+00  0.499470102958E+00
  0.498443302005E+00  0.475665752879E+00  0.492352552841E+00  0.497648492019E+00
  0.104242640687E+01  0.102508330221E+01  0.104242640687E+01  0.103461472126E+01  0.100936211481E+01  0.102707647030E+01  0.104242640687E+01
  0.104242640687E+01  0.104103512175E+01  0.100608607954E+01  0.100935928681E+01  0.100173207642E+01  0.101882157420E+01  0.100399703841E+01
  0.100113916075E+01  0.100201867166E+01  0.104242640687E+01  0.103067303883E+01  0.100321571449E+01  0.100090132497E+01  0.100133271257E+01
  0.100116394826E+01  0.101357751416E+01  0.100469368551E+01  0.100084556817E+01  0.103269876849E+01  0.100165718156E+01  0.100040727367E+01
  0.100050934991E+01  0.100724883558E+01  0.100246497717E+01  0.100085386850E+01
  0.427376804103E+01  0.588715824939E+01  0.379743826092E+01  0.745664161900E+01  0.580041107417E+01  0.517363316452E+01  0.656042019829E+01
  0.508189921340E+01  0.196374187506E+01  0.431578835969E+01  0.750251813784E+01  0.470054842679E+01  0.974389840844E+01  0.360352967208E+01
  0.124261648073E+02  0.950476905836E+01  0.649743539953E+01  0.387932431814E+01  0.438036813256E+01  0.525745281072E+02  0.169432256098E+02
  0.895657372329E+01  0.873707546644E+01  0.459018391318E+01  0.565117837013E+02  0.931373811262E+01  0.662514714024E+01  0.590260225890E+02
  0.453686441460E+02  0.577264760574E+01  0.687159535055E+01  0.386218674195E+02
  0.112823248900E+01  0.239344053428E+01  0.126142053573E+01  0.247982721828E+01  0.213673005129E+01  0.267494195349E+01  0.687939884366E+00
  0.125981798730E+01  0.212898552905E+01  0.177416117314E+01  0.232192814297E+01  0.137581911012E+01  0.274259073249E+01  0.126903056554E+01
  0.249196307933E+01  0.206520107449E+01  0.105264790408E+01  0.270716358156E+01  0.134311340691E+01  0.107724908936E+02  0.345119334304E+01
  0.180017023841E+01  0.265665439930E+01  0.144587034071E+01  0.118658638083E+02  0.229377699639E+01  0.137087376603E+01  0.124521593425E+02
  0.953552581915E+01  0.183433703696E+01  0.168794679918E+01  0.805065810163E+01
  0.309872435431E+00  0.139195264277E+00  0.260878561311E+00  0.498838699767E+00  0.115158703052E-02 -0.161026404252E+00  0.169819006941E+00
 -0.452802010484E+00  0.287524328742E+00  0.243261069580E-02 -0.419518504365E-01  0.113679651306E+00 -0.309676254345E+00  0.116419509835E+00
  0.218543042554E+00  0.143241498560E-01 -0.371683214573E+00 -0.703468419978E+00 -0.568614382823E-01 -0.718005253383E-03  0.889297986136E-01
 -0.835187299928E-01 -0.110336477667E+00 -0.226630843652E+00 -0.447790980294E-01 -0.158020402449E+00 -0.117516613641E+00  0.671870808861E-01
  0.288497911485E-01 -0.190726530714E-01 -0.369351712666E-01 -0.626408993378E-02
 -0.238353996538E+01 -0.640775346079E+01 -0.267388008925E+01 -0.639931059858E+01 -0.488399851294E+01 -0.854427997026E+01 -0.179772682579E+01
 -0.249774505455E+01 -0.106606366867E+02 -0.490920098365E+01 -0.412104913000E+01 -0.365483112952E+01 -0.351731300137E+01 -0.418021204940E+01
 -0.259778123217E+01 -0.295585354553E+01 -0.191805460488E+01 -0.995229106118E+01 -0.383265229901E+01 -0.114351004425E+01 -0.226556021861E+01
 -0.262258306140E+01 -0.509905287705E+01 -0.429994776994E+01 -0.105421791260E+01 -0.795729802799E+01 -0.273911557236E+01 -0.973452789086E+00
 -0.120608680102E+01 -0.524617572312E+01 -0.303711897959E+01 -0.123711780165E+01
 -0.128128732038E+01 -0.247772703470E+01 -0.144818609342E+01 -0.294734908501E+01 -0.205034188826E+01 -0.242600741484E+01 -0.140016921171E+01
 -0.128332691183E+01 -0.133118290848E+01 -0.146834972758E+01 -0.261760180815E+01 -0.169670838709E+01 -0.337655060793E+01 -0.120965221533E+01
 -0.481162659772E+01 -0.365091516672E+01 -0.147964456665E+01 -0.209725216852E+01 -0.157187433851E+01 -0.217255371846E+02 -0.671305730181E+01
 -0.336650908992E+01 -0.304754053761E+01 -0.163436435960E+01 -0.234305363812E+02 -0.358890364816E+01 -0.237004353344E+01 -0.245565198613E+02
 -0.187741780462E+02 -0.199332285205E+01 -0.254938623885E+01 -0.158842782750E+02
        12        19        11        11
        11         5        12        12
        10        14         5         5
        19        13        11        11
        19        24        13        13
        30        23        24        24
        19        12        22        22
        28        22        21        21
        11        13         6         6
         7         6         9         9
        15        12        14        14
        18        13        23        23
        15        25        21        21
        27        19        22        22
        18         8         9         9
        27        31        24        24
         4        11         6         6
         5        14        12        12
         4         2         5         5
        21        12        15        15
        14        16        15        15
        24        19        27        27
        22        29        27        27
        23        26        18        18
        17         8        18        18
         5        11         4         4
         6         3         4         4
        26        23        30        30
         5         2        10        10
        16        14        10        10
         3         6         7         7
        21        25        28        28
        29        22        28        28
         6        13         9         9
         2         4         1         1
        31        27        32        32
        25        15        20        20
        24        23        13        13
         8         7         9         9
        13        18         9         9
        31        30        24        24
        12        21        22        22
        29        32        27        27
         3         1         4         4
        26        17        18        18
        16        20        15        15
zone t="boundary 2 bc-2", solutiontime= 0.1000000E+02, strandid=1002, i=33, j=48, f=feblock
  0.500195254569E+01  0.375034811445E+01  0.249861145586E+01  0.288036674135E+01  0.124717525353E+01  0.190856697906E+01  0.326577190006E+01
  0.201394855912E+01 -0.338397811579E-02  0.962374243892E+00  0.500000000000E+01  0.403430189815E+01  0.423029563516E+01  0.500000000000E+01
  0.385439188840E+01  0.500000000000E+01  0.398133433219E+01  0.315200081383E+01  0.266958028789E+01  0.154798029748E+01  0.218327860401E+01
  0.893688440127E+00  0.000000000000E+00  0.699009761219E+00  0.964460898511E+00  0.310303671661E+01  0.000000000000E+00  0.000000000000E+00
  0.125000000000E+01  0.500000000000E+01  0.375000000000E+01  0.250000000000E+01  0.000000000000E+00
 -0.249658902117E+01 -0.249658902117E+01 -0.249658902117E+01 -0.249658902117E+01 -0.249658902117E+01 -0.249658902117E+01 -0.249658902117E+01
 -0.249658902117E+01 -0.249658902117E+01 -0.249658902117E+01 -0.249658902117E+01 -0.249658902117E+01 -0.249658902117E+01 -0.249658902117E+01
 -0.249658902117E+01 -0.249658902117E+01 -0.249658902117E+01 -0.249658902117E+01 -0.249658902117E+01 -0.249658902117E+01 -0.249658902117E+01
 -0.249658902117E+01 -0.249658902117E+01 -0.249658902117E+01 -0.249658902117E+01 -0.249658902117E+01 -0.249658902117E+01 -0.249658902117E+01
 -0.249658902117E+01 -0.249658902117E+01 -0.249658902117E+01 -0.249658902117E+01 -0.249658902117E+01
  0.108218466124E-03  0.145871002877E-03  0.100891403625E-03  0.901663364691E+00  0.110859770246E-03  0.714928312397E+00  0.188140647111E+01
  0.175892165294E+01  0.810770748851E-04  0.957504290555E+00  0.125000000000E+01  0.100596696999E+01  0.191313518634E+01  0.250000000000E+01
  0.292898096729E+01  0.375000000000E+01  0.406883369623E+01  0.363389290091E+01  0.284756861229E+01  0.292582308304E+01  0.395754055152E+01
  0.205027257041E+01  0.125000000000E+01  0.306703272778E+01  0.397155766783E+01  0.433068622257E+01  0.250000000000E+01  0.375000000000E+01
  0.500000000000E+01  0.500000000000E+01  0.500000000000E+01  0.500000000000E+01  0.500000000000E+01
  0.000000000000E+00  0.000000000000E+00  0.000000000000E+00  0.384516102379E+00  0.000000000000E+00  0.340285873075E+00  0.586752973058E+00
  0.575426018814E+00  0.000000000000E+00  0.487199378467E+00  0.520641040018E+00  0.445423555755E+00  0.576269221497E+00  0.533962376915E+00
  0.567224534025E+00  0.511735128316E+00  0.508063929882E+00  0.527166122502E+00  0.565842714108E+00  0.531744059129E+00  0.508272212923E+00
  0.522388437206E+00  0.449257989220E+00  0.494521458294E+00  0.495788427677E+00  0.503678485303E+00  0.475665752879E+00  0.492352552841E+00
  0.494346755559E+00  0.491660272583E+00  0.489529542899E+00  0.494638536198E+00  0.497648492019E+00
  0.104242640687E+01  0.104242640687E+01  0.104242640687E+01  0.100355246665E+01  0.104242640687E+01  0.100599607839E+01  0.989008031489E+00
  0.992225316054E+00  0.104242640687E+01  0.997058798899E+00  0.987964542596E+00  0.995589876967E+00  0.989405264241E+00  0.100087323765E+01
  0.997203119671E+00  0.100346283424E+01  0.100053321078E+01  0.999080757420E+00  0.995647250027E+00  0.100095637499E+01  0.999458338897E+00
  0.100692573083E+01  0.103269876849E+01  0.100216635877E+01  0.100130290772E+01  0.999493814465E+00  0.100724883558E+01  0.100246497717E+01
  0.100077487280E+01  0.100026599126E+01  0.999860681535E+00  0.999993717468E+00  0.100085386850E+01
  0.817499807998E+01  0.781503290578E+01  0.860532249257E+01  0.804497949555E+01  0.951566080690E+01  0.770502583052E+01  0.100742274466E+02
  0.889747117177E+01  0.649743539953E+01  0.895519586382E+01  0.117214370042E+02  0.960041041687E+01  0.109919123740E+02  0.936722229043E+01
  0.785329527353E+01  0.624661316830E+01  0.688887972277E+01  0.729539501919E+01  0.844521017060E+01  0.724315431072E+01  0.579629744989E+01
  0.792410654622E+01  0.931373811262E+01  0.498932203629E+01  0.525665551942E+01  0.910657671150E+01  0.577264760574E+01  0.687159535055E+01
  0.251994676373E+02  0.981007347533E+01  0.115711469044E+02  0.339557938714E+01  0.386218674195E+02
 -0.155730063384E+01  0.226706638125E+00  0.225864791428E+00  0.315863526023E+01  0.121222346521E-01  0.251404528520E+01 -0.176468576531E+01
  0.233143707209E+00  0.105264790408E+01  0.282650518261E+01 -0.270098653602E+01  0.129859661329E+00 -0.266881979715E+01 -0.239209605633E+01
 -0.211313915894E+01 -0.153988885365E+01 -0.158861024437E+01 -0.156690257159E+01 -0.168983612601E+01 -0.462921048527E+00 -0.135886335757E+01
  0.110229776745E+01  0.229377699639E+01  0.237713814774E+00 -0.310804519897E+00 -0.108312544134E+01  0.183433703696E+01  0.168794679918E+01
  0.333026472377E+01  0.675462882177E-01 -0.806581374199E+00 -0.237644389668E+01  0.805065810163E+01
 -0.232674818430E+00 -0.100776109592E+00  0.292771284667E+00  0.636817080236E+00  0.221442625753E+00  0.996376584485E+00 -0.175912396837E+00
 -0.339802497418E+00 -0.371683214573E+00  0.176658793605E+00 -0.792126902172E-01 -0.217879100981E+00  0.553889801857E-01 -0.149440906018E-01
 -0.742152115854E-02  0.248752891826E-01 -0.261906506310E-01  0.241071072903E-01  0.663673717794E-01  0.938884971641E-01 -0.654642000636E-02
 -0.266638627125E-01 -0.158020402449E+00 -0.502041767388E-01 -0.613459109966E-01  0.573477570951E-02 -0.190726530714E-01 -0.369351712666E-01
  0.199907195036E-03  0.493528922939E-02  0.386390832966E-02 -0.103334382998E-01 -0.626408993378E-02
 -0.116994980056E+01 -0.191555578047E+01 -0.180643122078E+01 -0.876352637770E+01 -0.285299671027E+01 -0.126257600061E+02 -0.209583649454E+01
 -0.428274605772E+01 -0.191805460488E+01 -0.828881465315E+01 -0.725220901052E+00 -0.312645303934E+01 -0.903164390845E+00 -0.371595060069E+00
 -0.142409931262E+01 -0.454061418753E+00 -0.140540104953E+01 -0.213887204096E+01 -0.267710736154E+01 -0.369104092049E+01 -0.249769028815E+01
 -0.477314126505E+01 -0.795729802799E+01 -0.381232980107E+01 -0.269488133520E+01 -0.210567988252E+01 -0.524617572312E+01 -0.303711897959E+01
 -0.177755014148E+01 -0.797308160690E+00 -0.180025367531E+01 -0.204807609833E+01 -0.123711780165E+01
 -0.857961980232E+00 -0.786772671139E-02  0.218805136030E-02 -0.325128679146E+01  0.160201585397E-02 -0.351697448585E+01 -0.210561839832E+01
 -0.218308601646E+01 -0.147964456665E+01 -0.370095258250E+01 -0.254855926058E+01 -0.258422134240E+01 -0.229885927731E+01 -0.181606670927E+01
 -0.150375239777E+01 -0.123198728687E+01 -0.146507964510E+01 -0.160125040515E+01 -0.191877832495E+01 -0.194174822299E+01 -0.118419579310E+01
 -0.241395641511E+01 -0.358890364816E+01 -0.142718465572E+01 -0.138378518711E+01 -0.245115937210E+01 -0.199332285205E+01 -0.254938623885E+01
 -0.965837008736E+01 -0.322435456123E+01 -0.351089320075E+01 -0.954647705927E-01 -0.158842782750E+02
        15         7        19        19
         8        20        19        19
        18        19        21        21
         7         4         8         8
         3         6         4         4
        19         7         8         8
        19        18        15        15
        14        13        15        15
         8        22        20        20
        27        24        22        22
        19        20        21        21
        32        26        21        21
        17        18        26        26
        17        16        15        15
        25        29        21        21
        12         7        13        13
        10         8         6         6
        25        20        24        24
         4         6         8         8
        12         2         4         4
        10        23        22        22
        26        31        17        17
        30        16        17        17
         4         7        12        12
        13        11        12        12
        21        20        25        25
        24        28        25        25
        22         8        10        10
         6         5        10        10
        31        26        32        32
         4         2         3         3
         5         6         3         3
        11        13        14        14
        22        23        27        27
        28        24        27        27
        15        13         7         7
         2        12         1         1
        29        25        33        33
        23        10         9         9
        21        26        18        18
        16        14        15        15
        18        17        15        15
        29        32        21        21
        22        24        20        20
        28        33        25        25
        11         1        12        12
        31        30        17        17
         5         9        10        10
zone t="boundary 3 bc-3", solutiontime= 0.1000000E+02, strandid=1003, i=33, j=48, f=feblock
  0.375059098657E+01  0.249769607633E+01  0.500322138025E+01  0.403612219887E+01  0.287976772043E+01  0.124541906321E+01  0.190552234484E+01
  0.500000000000E+01  0.326671105082E+01  0.423253757181E+01  0.201271135153E+01 -0.547473805950E-02  0.958895614436E+00  0.500000000000E+01
  0.266968147277E+01  0.385584488388E+01  0.890374186977E+00  0.154654012335E+01  0.000000000000E+00  0.500000000000E+01  0.315261137201E+01
  0.218304199244E+01  0.398195308498E+01  0.000000000000E+00  0.697379936714E+00  0.963757270369E+00  0.125000000000E+01  0.000000000000E+00
  0.500000000000E+01  0.310330738803E+01  0.250000000000E+01  0.375000000000E+01  0.000000000000E+00
  0.250494199996E+01  0.250494199996E+01  0.250494199996E+01  0.250494199996E+01  0.250494199996E+01  0.250494199996E+01  0.250494199996E+01
  0.250494199996E+01  0.250494199996E+01  0.250494199996E+01  0.250494199996E+01  0.250494199996E+01  0.250494199996E+01  0.250494199996E+01
  0.250494199996E+01  0.250494199996E+01  0.250494199996E+01  0.250494199996E+01  0.250494199996E+01  0.250494199996E+01  0.250494199996E+01
  0.250494199996E+01  0.250494199996E+01  0.250494199996E+01  0.250494199996E+01  0.250494199996E+01  0.250494199996E+01  0.250494199996E+01
  0.250494199996E+01  0.250494199996E+01  0.250494199996E+01  0.250494199996E+01  0.250494199996E+01
  0.135804630540E-03  0.110291624817E-03  0.968352334446E-04  0.101756767185E+01  0.908094754997E+00  0.104111079957E-03  0.722629266617E+00
  0.125000000000E+01  0.188965673342E+01  0.191862703992E+01  0.176708252859E+01  0.805555099614E-04  0.969652727920E+00  0.250000000000E+01
  0.285339441810E+01  0.293325064381E+01  0.205656233203E+01  0.293157024792E+01  0.125000000000E+01  0.375000000000E+01  0.363766843534E+01
  0.396069448925E+01  0.407056387650E+01  0.250000000000E+01  0.307031999891E+01  0.397359822904E+01  0.500000000000E+01  0.375000000000E+01
  0.500000000000E+01  0.433260783674E+01  0.500000000000E+01  0.500000000000E+01  0.500000000000E+01
  0.000000000000E+00  0.000000000000E+00  0.000000000000E+00  0.453747912967E+00  0.402545502453E+00  0.000000000000E+00  0.369629009544E+00
  0.520525438577E+00  0.575220780219E+00  0.575502697133E+00  0.558260174275E+00  0.000000000000E+00  0.478252962454E+00  0.530976530200E+00
  0.555830976399E+00  0.562793219653E+00  0.524675235835E+00  0.523282018189E+00  0.447917893105E+00  0.513796076167E+00  0.524673097209E+00
  0.506323914759E+00  0.509686671337E+00  0.477443348004E+00  0.499194823541E+00  0.497912967444E+00  0.492962759871E+00  0.493078169939E+00
  0.493192027983E+00  0.501531684732E+00  0.491169160322E+00  0.488098785874E+00  0.498012892236E+00
  0.104242640687E+01  0.104242640687E+01  0.104242640687E+01  0.992555420605E+00  0.100338777628E+01  0.104242640687E+01  0.100275102529E+01
  0.987610948162E+00  0.990360755947E+00  0.989796153239E+00  0.994453865708E+00  0.104242640687E+01  0.999323382885E+00  0.100158433896E+01
  0.997121320216E+00  0.998147046672E+00  0.100443205293E+01  0.100036233051E+01  0.102508330221E+01  0.100269535219E+01  0.100014129837E+01
  0.999693737613E+00  0.100036856474E+01  0.100608607954E+01  0.100156234007E+01  0.100069385186E+01  0.100096903929E+01  0.100201867166E+01
  0.100024531101E+01  0.999658107118E+00  0.100018113529E+01  0.100002132966E+01  0.100090132497E+01
  0.110952349218E+02  0.732617261741E+01  0.872299825565E+01  0.909042358944E+01  0.856267636767E+01  0.713115778364E+01  0.791410753528E+01
  0.116333013666E+02  0.102719288429E+02  0.104794654490E+02  0.946663085827E+01  0.427376804103E+01  0.881608968929E+01  0.881803186371E+01
  0.773515057672E+01  0.798687196315E+01  0.773702019140E+01  0.599725673609E+01  0.588715824939E+01  0.650776011398E+01  0.563913165953E+01
  0.524788351421E+01  0.504150876829E+01  0.431578835969E+01  0.386113125155E+01  0.102495201263E+02  0.342034275222E+02  0.950476905836E+01
  0.628460235458E+01  0.936826027793E+01  0.129033665764E+02  0.181114645929E+02  0.525745281072E+02
  0.167062917750E+00  0.387682578677E+00 -0.178075060024E+01  0.123913802900E+01  0.321771004987E+01  0.178076604883E+00  0.348193800182E+01
 -0.266970300888E+01 -0.218042570880E+01 -0.278524298912E+01 -0.242091215651E+00  0.112823248900E+01  0.302484525736E+01 -0.227811926505E+01
 -0.170225846235E+01 -0.204703960039E+01  0.137243517242E+01 -0.808945246350E+00  0.239344053428E+01 -0.157630306869E+01 -0.188247762298E+01
 -0.154404795485E+01 -0.191109404519E+01  0.177416117314E+01 -0.172795871164E-01  0.695873626781E+00  0.517124428672E+01  0.206520107449E+01
 -0.604202013049E+00 -0.100777809988E+01 -0.345887233062E+00  0.550960380068E+00  0.107724908936E+02
  0.905932545668E-01  0.119335704289E+00  0.172757555505E+00 -0.610572126698E+00 -0.590315586478E+00  0.469282431512E-01  0.187200218080E-01
  0.514221119329E-01  0.205534121665E+00  0.367987139825E-01  0.230058564330E+00  0.309872435431E+00  0.265850456149E+00 -0.174677482763E-01
 -0.357449264986E-01  0.116634959024E-01 -0.235119595093E-01 -0.150332062669E+00  0.139195264277E+00 -0.244205107523E-01 -0.678407622442E-02
  0.189295384034E-01  0.363342151321E-02  0.243261069580E-02  0.414434686266E-01  0.729486575388E-01 -0.256334419295E-01  0.143241498560E-01
 -0.140741516960E-01 -0.202328372964E-02 -0.715105639264E-02 -0.300685066001E-02 -0.718005253383E-03
 -0.258257614016E+01 -0.240408938385E+01 -0.105562116656E+01 -0.721642379016E+01 -0.828801576992E+01 -0.269283696684E+01 -0.907177471784E+01
 -0.504366708909E+00 -0.269139869071E+01 -0.964134562009E+00 -0.388520756725E+01 -0.238353996538E+01 -0.699931006741E+01 -0.416742342437E+00
 -0.276659956907E+01 -0.142027347142E+01 -0.449697829155E+01 -0.372677338493E+01 -0.640775346079E+01 -0.525916498763E+00 -0.202935593685E+01
 -0.255101848002E+01 -0.140223880180E+01 -0.490920098365E+01 -0.392800619137E+01 -0.271870429654E+01 -0.181549474110E+01 -0.295585354553E+01
 -0.719731536386E+00 -0.198885534941E+01 -0.205121178218E+01 -0.175960263334E+01 -0.114351004425E+01
  0.349457342506E-02 -0.187473250304E-01 -0.812346786326E+00 -0.294463102121E+01 -0.331849190190E+01 -0.289935305371E-01 -0.349899635124E+01
 -0.254256189230E+01 -0.209643966089E+01 -0.207315050825E+01 -0.231995863464E+01 -0.128128732038E+01 -0.346014026319E+01 -0.170456460304E+01
 -0.166888521133E+01 -0.158250920200E+01 -0.239474305934E+01 -0.138190985552E+01 -0.247772703470E+01 -0.130096934288E+01 -0.907826501954E+00
 -0.930954152425E+00 -0.727825400644E+00 -0.146834972758E+01 -0.991831148295E+00 -0.347905877593E+01 -0.134073793104E+02 -0.365091516672E+01
 -0.176817904467E+01 -0.258263504092E+01 -0.411189620406E+01 -0.626709360533E+01 -0.217255371846E+02
        15         9        16        16
        15        18        11        11
        22        15        21        21
        11         5         9         9
         5         7         2         2
        11         9        15        15
        16        21        15        15
        16        10        14        14
        18        17        11        11
        17        25        24        24
        22        18        15        15
        22        30        31        31
        30        21        23        23
        16        20        23        23
        22        27        26        26
        10         9         4         4
         7        11        13        13
        25        18        26        26
        11         7         5         5
         5         1         4         4
        17        19        13        13
        23        32        30        30
        23        20        29        29
         4         9         5         5
         4         8        10        10
        26        18        22        22
        26        28        25        25
        13        11        17        17
        13         6         7         7
        31        30        32        32
         2         1         5         5
         2         7         6         6
        14        10         8         8
        24        19        17        17
        24        25        28        28
         9        10        16        16
         3         4         1         1
        33        26        27        27
        12        13        19        19
        21        30        22        22
        16        14        20        20
        16        23        21        21
        22        31        27        27
        18        25        17        17
        26        33        28        28
         4         3         8         8
        23        29        32        32
        13        12         6         6
zone t="boundary 4 bc-4", solutiontime= 0.1000000E+02, strandid=1004, i=32, j=46, f=feblock
  0.125000000000E+01  0.219251206392E+01  0.103724302461E+01  0.500000000000E+01  0.250000000000E+01  0.375000000000E+01  0.404200324774E+01
  0.500000000000E+01  0.000000000000E+00  0.310152362409E+01  0.202479342020E+01  0.324151231464E+01  0.922061490191E+00  0.000000000000E+00
  0.299062775774E+01  0.394624082883E+01  0.500000000000E+01  0.409252726285E+01  0.500000000000E+01  0.429310310915E+01  0.175434191980E+01
  0.284428995242E+01  0.000000000000E+00  0.000000000000E+00  0.715990576545E+00  0.930412228790E+00  0.125000000000E+01  0.187029682677E+01
  0.500000000000E+01  0.375000000000E+01  0.250000000000E+01  0.000000000000E+00
  0.250494199996E+01  0.157686156160E+01  0.146289271009E+01  0.250494199996E+01  0.250494199996E+01  0.250494199996E+01  0.155830813274E+01
  0.125000000000E+01  0.250494199996E+01  0.177790177481E+01  0.477386199275E+00  0.742988685424E+00  0.308372018325E+00  0.125000000000E+01
 -0.487811078581E+00 -0.144524380962E+01 -0.125000000000E+01 -0.345533899378E+00  0.000000000000E+00  0.627766083140E+00 -0.739814786992E+00
 -0.158811787973E+01  0.000000000000E+00 -0.125000000000E+01 -0.600232012419E+00 -0.154800130438E+01 -0.249658902117E+01 -0.178862290564E+01
 -0.249658902117E+01 -0.249658902117E+01 -0.249658902117E+01 -0.249658902117E+01
  0.500000000000E+01  0.500000000000E+01  0.500000000000E+01  0.500000000000E+01  0.500000000000E+01  0.500000000000E+01  0.500000000000E+01
  0.500000000000E+01  0.500000000000E+01  0.500000000000E+01  0.500000000000E+01  0.500000000000E+01  0.500000000000E+01  0.500000000000E+01
  0.500000000000E+01  0.500000000000E+01  0.500000000000E+01  0.500000000000E+01  0.500000000000E+01  0.500000000000E+01  0.500000000000E+01
  0.500000000000E+01  0.500000000000E+01  0.500000000000E+01  0.500000000000E+01  0.500000000000E+01  0.500000000000E+01  0.500000000000E+01
  0.500000000000E+01  0.500000000000E+01  0.500000000000E+01  0.500000000000E+01
  0.492962759871E+00  0.493501811672E+00  0.494482154832E+00  0.493192027983E+00  0.491169160322E+00  0.488098785874E+00  0.488213915628E+00
  0.494128983540E+00  0.498012892236E+00  0.490743060294E+00  0.492687813005E+00  0.491182349970E+00  0.497494162823E+00  0.498545864547E+00
  0.492035510720E+00  0.486141829064E+00  0.492132924673E+00  0.489715881183E+00  0.494539390222E+00  0.490046920039E+00  0.494491364916E+00
  0.492624363645E+00  0.499470102958E+00  0.498443302005E+00  0.498085503859E+00  0.496394045645E+00  0.494346755559E+00  0.494728908772E+00
  0.491660272583E+00  0.489529542899E+00  0.494638536198E+00  0.497648492019E+00
  0.100096903929E+01  0.100040310406E+01  0.100072208318E+01  0.100024531101E+01  0.100018113529E+01  0.100002132966E+01  0.999888523338E+00
  0.100031159626E+01  0.100090132497E+01  0.100020963142E+01  0.100030894110E+01  0.999990940254E+00  0.100060759990E+01  0.100084556817E+01
  0.100008167760E+01  0.999676407531E+00  0.100057119101E+01  0.999878618045E+00  0.100042307878E+01  0.999981274937E+00  0.100055778173E+01
  0.999986005540E+00  0.100040727367E+01  0.100050934991E+01  0.100040913615E+01  0.100074102371E+01  0.100077487280E+01  0.100045005174E+01
  0.100026599126E+01  0.999860681535E+00  0.999993717468E+00  0.100085386850E+01
  0.342034275222E+02  0.326652222566E+02  0.386128625008E+02  0.628460235458E+01  0.129033665764E+02  0.181114645929E+02  0.233548808022E+02
  0.525250050485E+01  0.525745281072E+02  0.208655842221E+02  0.331560269988E+02  0.184540551935E+02  0.442983547444E+02  0.565117837013E+02
  0.821326504652E+01  0.998567857698E+01  0.859477874754E+01  0.115160620039E+02  0.672344765456E+01  0.290404803999E+02  0.354174413259E+02
  0.716786943558E+01  0.590260225890E+02  0.453686441460E+02  0.504931514387E+02  0.324767668658E+02  0.251994676373E+02  0.235366292239E+02
  0.981007347533E+01  0.115711469044E+02  0.339557938714E+01  0.386218674195E+02