title="tecplot geometry and solution file"
variables = x y z mach temperature lambda1 lambda2 lambda3 lambda4 lambda5
zone t="boundary 1 bc-1", solutiontime= 0.6000000E+02, strandid=1001, i=32, j=46, f=feblock
 -0.547473805950E-02  0.000000000000E+00 -0.567611393137E-02  0.000000000000E+00  0.000000000000E+00  0.000000000000E+00 -0.525163715706E-02
 -0.425779957523E-02  0.000000000000E+00  0.000000000000E+00  0.000000000000E+00  0.000000000000E+00  0.000000000000E+00  0.000000000000E+00
  0.000000000000E+00  0.000000000000E+00 -0.338397811579E-02  0.000000000000E+00  0.000000000000E+00  0.000000000000E+00  0.000000000000E+00
  0.000000000000E+00  0.000000000000E+00  0.000000000000E+00  0.000000000000E+00  0.000000000000E+00  0.000000000000E+00  0.000000000000E+00
  0.000000000000E+00  0.000000000000E+00  0.000000000000E+00  0.000000000000E+00
  0.250494199996E+01  0.250494199996E+01  0.127822171177E+01  0.146289271009E+01  0.157686156160E+01  0.308372018325E+00  0.261949834557E-01
 -0.122573470438E+01 -0.600232012419E+00  0.250494199996E+01  0.477386199275E+00  0.742988685424E+00 -0.739814786992E+00  0.177790177481E+01
  0.155830813274E+01  0.250494199996E+01 -0.249658902117E+01 -0.154800130438E+01 -0.487811078581E+00  0.250494199996E+01  0.627766083140E+00
 -0.345533899378E+00 -0.178862290564E+01 -0.158811787973E+01  0.125000000000E+01 -0.249658902117E+01 -0.144524380962E+01  0.000000000000E+00
 -0.125000000000E+01 -0.249658902117E+01 -0.249658902117E+01 -0.249658902117E+01
  0.805555099614E-04  0.125000000000E+01  0.823774297186E-04  0.103724302461E+01  0.219251206392E+01  0.922061490191E+00  0.103961354043E-03
  0.342005475212E-04  0.715990576545E+00  0.250000000000E+01  0.202479342020E+01  0.324151231464E+01  0.175434191980E+01  0.310152362409E+01
  0.404200324774E+01  0.375000000000E+01  0.810770748851E-04  0.930412228790E+00  0.299062775774E+01  0.500000000000E+01  0.429310310915E+01
  0.409252726285E+01  0.187029682677E+01  0.284428995242E+01  0.500000000000E+01  0.125000000000E+01  0.394624082883E+01  0.500000000000E+01
  0.500000000000E+01  0.250000000000E+01  0.375000000000E+01  0.500000000000E+01
  0.000000000000E+00  0.447917893105E+00  0.000000000000E+00  0.476275931555E+00  0.468523764259E+00  0.473519703687E+00  0.000000000000E+00
  0.000000000000E+00  0.412988885572E+00  0.477443348004E+00  0.472504673047E+00  0.485153442298E+00  0.492070550376E+00  0.488543839064E+00
  0.491923380126E+00  0.493078169939E+00  0.000000000000E+00  0.471586654449E+00  0.480934095627E+00  0.498012892236E+00  0.493689909583E+00
  0.490409919456E+00  0.456073457025E+00  0.472047037772E+00  0.498545864547E+00  0.449257989220E+00  0.491117573798E+00  0.499470102958E+00
  0.498443302005E+00  0.475665752879E+00  0.492352552841E+00  0.497648492019E+00
  0.104242640687E+01  0.102508330221E+01  0.104242640687E+01  0.103461472126E+01  0.100936211481E+01  0.102707647030E+01  0.104242640687E+01
  0.104242640687E+01  0.104103512175E+01  0.100608607954E+01  0.100935928681E+01  0.100173207642E+01  0.101882157420E+01  0.100399703841E+01
  0.100113916075E+01  0.100201867166E+01  0.104242640687E+01  0.103067303883E+01  0.100321571449E+01  0.100090132497E+01  0.100133271257E+01
  0.100116394826E+01  0.101357751416E+01  0.100469368551E+01  0.100084556817E+01  0.103269876849E+01  0.100165718156E+01  0.100040727367E+01
  0.100050934991E+01  0.100724883558E+01  0.100246497717E+01  0.100085386850E+01
  0.425706810125E+01  0.594193215744E+01  0.378637906633E+01  0.761831348008E+01  0.604326569616E+01  0.517035232459E+01  0.654016711758E+01
  0.505843659012E+01  0.196758452778E+01  0.441612217398E+01  0.769539047502E+01  0.452886774310E+01  0.960114238734E+01  0.333765823271E+01
  0.107889120599E+02  0.886598558341E+01  0.649273169951E+01  0.374211627654E+01  0.463886427247E+01  0.552035508874E+02  0.156110567187E+02
  0.808472293614E+01  0.854788527668E+01  0.480333149347E+01  0.591592439595E+02  0.953953243286E+01  0.625766918531E+01  0.615920555100E+02
  0.459256170640E+02  0.604589976126E+01  0.690044812260E+01  0.385750953169E+02
  0.112699197962E+01  0.243076917641E+01  0.125622429025E+01  0.253879397940E+01  0.217814135698E+01  0.270702068177E+01  0.685133515967E+00
  0.125526231092E+01  0.214470983497E+01  0.177824701195E+01  0.234165625569E+01  0.130755463238E+01  0.270899221515E+01  0.117887720826E+01
  0.212607936889E+01  0.189162159517E+01  0.105233759936E+01  0.272330986009E+01  0.137092404722E+01  0.114278803255E+02  0.314927552899E+01
  0.157334632522E+01  0.262245679470E+01  0.146658139241E+01  0.124739925018E+02  0.236681482476E+01  0.127047251903E+01  0.129977128369E+02
  0.968406512119E+01  0.187554846942E+01  0.168441538057E+01  0.809688866094E+01
  0.308448665067E+00  0.140253887180E+00  0.257658874811E+00  0.483514178278E+00  0.153695246823E-02 -0.185220539715E+00  0.169765415207E+00
 -0.452385044547E+00  0.274322505624E+00  0.165566990098E-02 -0.274809851911E-01  0.138067467321E+00 -0.299817311189E+00  0.134988287900E+00
  0.233057051908E+00  0.103798805445E-01 -0.370891006911E+00 -0.686373510036E+00 -0.441007573925E-01 -0.837847110878E-02  0.960454137166E-01
 -0.858110055042E-01 -0.115468636349E+00 -0.229463485192E+00 -0.997064190742E-01 -0.156610683788E+00 -0.116268608827E+00  0.252901686338E-01
  0.351198756493E-02 -0.194354782235E-01 -0.352264535281E-01 -0.467943350042E-02
 -0.238305617788E+01 -0.646617539776E+01 -0.267594354226E+01 -0.643196981048E+01 -0.492000145686E+01 -0.856560493598E+01 -0.179532684240E+01
 -0.249344202077E+01 -0.106371258718E+02 -0.497154007990E+01 -0.410775734870E+01 -0.359572976171E+01 -0.348604915214E+01 -0.418258938731E+01
 -0.261680070323E+01 -0.296029994519E+01 -0.191743760128E+01 -0.996413967410E+01 -0.379262070787E+01 -0.115396437207E+01 -0.231081759094E+01
 -0.262374188961E+01 -0.513257448076E+01 -0.430153999863E+01 -0.109913246874E+01 -0.800086357304E+01 -0.275050156567E+01 -0.100987390493E+01
 -0.124351559174E+01 -0.528188739058E+01 -0.303423448344E+01 -0.126035584790E+01
 -0.126961147756E+01 -0.250324934766E+01 -0.144456661731E+01 -0.301855957362E+01 -0.214849708324E+01 -0.242627945501E+01 -0.139676650031E+01
 -0.127265503416E+01 -0.133629489446E+01 -0.150755269312E+01 -0.269356356773E+01 -0.162136312036E+01 -0.331674098892E+01 -0.109326415597E+01
 -0.410719682715E+01 -0.337509050223E+01 -0.147784545720E+01 -0.204764745645E+01 -0.167810904738E+01 -0.228587997287E+02 -0.613188502481E+01
 -0.298090602252E+01 -0.296594988485E+01 -0.172078471396E+01 -0.245503030713E+02 -0.368676996964E+01 -0.220607092517E+01 -0.256400008804E+02
 -0.190147839060E+02 -0.210421959426E+01 -0.255942422995E+01 -0.158710998306E+02
        12        19        11        11
        11         5        12        12
        10        14         5         5
        19        13        11        11
        19        24        13        13
        30        23        24        24
        19        12        22        22
        28        22        21        21
        11        13         6         6
         7         6         9         9
        15        12        14        14
        18        13        23        23
        15        25        21        21
        27        19        22        22
        18         8         9         9
        27        31        24        24
         4        11         6         6
         5        14        12        12
         4         2         5         5
        21        12        15        15
        14        16        15        15
        24        19        27        27
        22        29        27        27
        23        26        18        18
        17         8        18        18
         5        11         4         4
         6         3         4         4
        26        23        30        30
         5         2        10        10
        16        14        10        10
         3         6         7         7
        21        25        28        28
        29        22        28        28
         6        13         9         9
         2         4         1         1
        31        27        32        32
        25        15        20        20
        24        23        13        13
         8         7         9         9
        13        18         9         9
        31        30        24        24
        12        21        22        22
        29        32        27        27
         3         1         4         4
        26        17        18        18
        16        20        15        15
zone t="boundary 2 bc-2", solutiontime= 0.6000000E+02, strandid=1002, i=33, j=48, f=feblock
  0.500195254569E+01  0.375034811445E+01  0.249861145586E+01  0.288036674135E+01  0.124717525353E+01  0.190856697906E+01  0.326577190006E+01
  0.201394855912E+01 -0.338397811579E-02  0.962374243892E+00  0.500000000000E+01  0.403430189815E+01  0.423029563516E+01  0.500000000000E+01
  0.385439188840E+01  0.500000000000E+01  0.398133433219E+01  0.315200081383E+01  0.266958028789E+01  0.154798029748E+01  0.218327860401E+01
  0.893688440127E+00  0.000000000000E+00  0.699009761219E+00  0.964460898511E+00  0.310303671661E+01  0.000000000000E+00  0.000000000000E+00
  0.125000000000E+01  0.500000000000E+01  0.375000000000E+01  0.250000000000E+01  0.000000000000E+00
 -0.249658902117E+01 -0.249658902117E+01 -0.249658902117E+01 -0.249658902117E+01 -0.249658902117E+01 -0.249658902117E+01 -0.249658902117E+01
 -0.249658902117E+01 -0.249658902117E+01 -0.249658902117E+01 -0.249658902117E+01 -0.249658902117E+01 -0.249658902117E+01 -0.249658902117E+01
 -0.249658902117E+01 -0.249658902117E+01 -0.249658902117E+01 -0.249658902117E+01 -0.249658902117E+01 -0.249658902117E+01 -0.249658902117E+01
 -0.249658902117E+01 -0.249658902117E+01 -0.249658902117E+01 -0.249658902117E+01 -0.249658902117E+01 -0.249658902117E+01 -0.249658902117E+01
 -0.249658902117E+01 -0.249658902117E+01 -0.249658902117E+01 -0.249658902117E+01 -0.249658902117E+01
  0.108218466124E-03  0.145871002877E-03  0.100891403625E-03  0.901663364691E+00  0.110859770246E-03  0.714928312397E+00  0.188140647111E+01
  0.175892165294E+01  0.810770748851E-04  0.957504290555E+00  0.125000000000E+01  0.100596696999E+01  0.191313518634E+01  0.250000000000E+01
  0.292898096729E+01  0.375000000000E+01  0.406883369623E+01  0.363389290091E+01  0.284756861229E+01  0.292582308304E+01  0.395754055152E+01
  0.205027257041E+01  0.125000000000E+01  0.306703272778E+01  0.397155766783E+01  0.433068622257E+01  0.250000000000E+01  0.375000000000E+01
  0.500000000000E+01  0.500000000000E+01  0.500000000000E+01  0.500000000000E+01  0.500000000000E+01
  0.000000000000E+00  0.000000000000E+00  0.000000000000E+00  0.384516102379E+00  0.000000000000E+00  0.340285873075E+00  0.586752973058E+00
  0.575426018814E+00  0.000000000000E+00  0.487199378467E+00  0.520641040018E+00  0.445423555755E+00  0.576269221497E+00  0.533962376915E+00
  0.567224534025E+00  0.511735128316E+00  0.508063929882E+00  0.527166122502E+00  0.565842714108E+00  0.531744059129E+00  0.508272212923E+00
  0.522388437206E+00  0.449257989220E+00  0.494521458294E+00  0.495788427677E+00  0.503678485303E+00  0.475665752879E+00  0.492352552841E+00
  0.494346755559E+00  0.491660272583E+00  0.489529542899E+00  0.494638536198E+00  0.497648492019E+00
  0.104242640687E+01  0.104242640687E+01  0.104242640687E+01  0.100355246665E+01  0.104242640687E+01  0.100599607839E+01  0.989008031489E+00
  0.992225316054E+00  0.104242640687E+01  0.997058798899E+00  0.987964542596E+00  0.995589876967E+00  0.989405264241E+00  0.100087323765E+01
  0.997203119671E+00  0.100346283424E+01  0.100053321078E+01  0.999080757420E+00  0.995647250027E+00  0.100095637499E+01  0.999458338897E+00
  0.100692573083E+01  0.103269876849E+01  0.100216635877E+01  0.100130290772E+01  0.999493814465E+00  0.100724883558E+01  0.100246497717E+01
  0.100077487280E+01  0.100026599126E+01  0.999860681535E+00  0.999993717468E+00  0.100085386850E+01
  0.816353014046E+01  0.780690875031E+01  0.857666581470E+01  0.810356315565E+01  0.951228246035E+01  0.804710241096E+01  0.100402274781E+02
  0.884641985667E+01  0.649273169951E+01  0.896851622089E+01  0.117128303518E+02  0.954538786370E+01  0.109852933240E+02  0.935648947200E+01
  0.785294437050E+01  0.624959010441E+01  0.683583739005E+01  0.727818670116E+01  0.847961256055E+01  0.718543260917E+01  0.579614830636E+01
  0.764058102393E+01  0.953953243286E+01  0.524586402328E+01  0.542159813562E+01  0.909989696931E+01  0.604589976126E+01  0.690044812260E+01
  0.250083704758E+02  0.978150181882E+01  0.116014330257E+02  0.351559792222E+01  0.385750953169E+02
 -0.155676887263E+01  0.224298050806E+00  0.224536664260E+00  0.323086149401E+01  0.945773754659E-02  0.263567381019E+01 -0.177207596228E+01
  0.220109229708E+00  0.105233759936E+01  0.287040838830E+01 -0.269555105100E+01  0.125563604323E+00 -0.265953894897E+01 -0.239253833059E+01
 -0.211457272444E+01 -0.153609915167E+01 -0.160573884972E+01 -0.156933602291E+01 -0.168697744048E+01 -0.500161082392E+00 -0.134741015248E+01
  0.103681870557E+01  0.236681482476E+01  0.290915228524E+00 -0.274718962960E+00 -0.108508191600E+01  0.187554846942E+01  0.168441538057E+01
  0.330410450325E+01  0.635740491421E-01 -0.801995170659E+00 -0.236245821126E+01  0.809688866094E+01
 -0.234991904522E+00 -0.988139418059E-01  0.295809806938E+00  0.640648843900E+00  0.222683658137E+00  0.998926654498E+00 -0.176463862631E+00
 -0.341437251815E+00 -0.370891006911E+00  0.175584197020E+00 -0.797079082889E-01 -0.218599590270E+00  0.555792905425E-01 -0.149215600080E-01
 -0.772745318614E-02  0.247898761264E-01 -0.274926648817E-01  0.237752508953E-01  0.658832340990E-01  0.931228486497E-01 -0.699513810628E-02
 -0.252004047323E-01 -0.156610683788E+00 -0.480254401428E-01 -0.612917461666E-01  0.630244417137E-02 -0.194354782235E-01 -0.352264535281E-01
 -0.929125132824E-03  0.458577465403E-02  0.397731492554E-02 -0.979767055751E-02 -0.467943350042E-02
 -0.116984872208E+01 -0.191430799732E+01 -0.180398228987E+01 -0.876382923533E+01 -0.285478214107E+01 -0.126486012323E+02 -0.208027829976E+01
 -0.428045548000E+01 -0.191743760128E+01 -0.829746244489E+01 -0.722394801001E+00 -0.309985518795E+01 -0.896288255972E+00 -0.372744920094E+00
 -0.141822167459E+01 -0.454682260596E+00 -0.139862506456E+01 -0.213459651853E+01 -0.267778370326E+01 -0.371309164210E+01 -0.251190825840E+01
 -0.478740883284E+01 -0.800086357304E+01 -0.382455265258E+01 -0.271509156650E+01 -0.210360946479E+01 -0.528188739058E+01 -0.303423448344E+01
 -0.177842826829E+01 -0.797126372449E+00 -0.179641629083E+01 -0.203803907288E+01 -0.126035584790E+01
 -0.854668251449E+00 -0.644048792808E-02  0.514013398713E-02 -0.328919573204E+01 -0.583654186847E-03 -0.366906571585E+01 -0.209075775125E+01
 -0.215905562548E+01 -0.147784545720E+01 -0.371228421936E+01 -0.254805711474E+01 -0.256205374530E+01 -0.229894881902E+01 -0.181361286916E+01
 -0.150343832567E+01 -0.123468728301E+01 -0.144113714835E+01 -0.159505744316E+01 -0.193393345137E+01 -0.191277480018E+01 -0.118539546403E+01
 -0.229029334057E+01 -0.368676996964E+01 -0.153688273065E+01 -0.145294962390E+01 -0.244823289561E+01 -0.210421959426E+01 -0.255942422995E+01
 -0.958183360670E+01 -0.321238707082E+01 -0.352359012835E+01 -0.146834787891E+00 -0.158710998306E+02
        15         7        19        19
         8        20        19        19
        18        19        21        21
         7         4         8         8
         3         6         4         4
        19         7         8         8
        19        18        15        15
        14        13        15        15
         8        22        20        20
        27        24        22        22
        19        20        21        21
        32        26        21        21
        17        18        26        26
        17        16        15        15
        25        29        21        21
        12         7        13        13
        10         8         6         6
        25        20        24        24
         4         6         8         8
        12         2         4         4
        10        23        22        22
        26        31        17        17
        30        16        17        17
         4         7        12        12
        13        11        12        12
        21        20        25        25
        24        28        25        25
        22         8        10        10
         6         5        10        10
        31        26        32        32
         4         2         3         3
         5         6         3         3
        11        13        14        14
        22        23        27        27
        28        24        27        27
        15        13         7         7
         2        12         1         1
        29        25        33        33
        23        10         9         9
        21        26        18        18
        16        14        15        15
        18        17        15        15
        29        32        21        21
        22        24        20        20
        28        33        25        25
        11         1        12        12
        31        30        17        17
         5         9        10        10
zone t="boundary 3 bc-3", solutiontime= 0.6000000E+02, strandid=1003, i=33, j=48, f=feblock
  0.375059098657E+01  0.249769607633E+01  0.500322138025E+01  0.403612219887E+01  0.287976772043E+01  0.124541906321E+01  0.190552234484E+01
  0.500000000000E+01  0.326671105082E+01  0.423253757181E+01  0.201271135153E+01 -0.547473805950E-02  0.958895614436E+00  0.500000000000E+01
  0.266968147277E+01  0.385584488388E+01  0.890374186977E+00  0.154654012335E+01  0.000000000000E+00  0.500000000000E+01  0.315261137201E+01
  0.218304199244E+01  0.398195308498E+01  0.000000000000E+00  0.697379936714E+00  0.963757270369E+00  0.125000000000E+01  0.000000000000E+00
  0.500000000000E+01  0.310330738803E+01  0.250000000000E+01  0.375000000000E+01  0.000000000000E+00
  0.250494199996E+01  0.250494199996E+01  0.250494199996E+01  0.250494199996E+01  0.250494199996E+01  0.250494199996E+01  0.250494199996E+01
  0.250494199996E+01  0.250494199996E+01  0.250494199996E+01  0.250494199996E+01  0.250494199996E+01  0.250494199996E+01  0.250494199996E+01
  0.250494199996E+01  0.250494199996E+01  0.250494199996E+01  0.250494199996E+01  0.250494199996E+01  0.250494199996E+01  0.250494199996E+01
  0.250494199996E+01  0.250494199996E+01  0.250494199996E+01  0.250494199996E+01  0.250494199996E+01  0.250494199996E+01  0.250494199996E+01
  0.250494199996E+01  0.250494199996E+01  0.250494199996E+01  0.250494199996E+01  0.250494199996E+01
  0.135804630540E-03  0.110291624817E-03  0.968352334446E-04  0.101756767185E+01  0.908094754997E+00  0.104111079957E-03  0.722629266617E+00
  0.125000000000E+01  0.188965673342E+01  0.191862703992E+01  0.176708252859E+01  0.805555099614E-04  0.969652727920E+00  0.250000000000E+01
  0.285339441810E+01  0.293325064381E+01  0.205656233203E+01  0.293157024792E+01  0.125000000000E+01  0.375000000000E+01  0.363766843534E+01
  0.396069448925E+01  0.407056387650E+01  0.250000000000E+01  0.307031999891E+01  0.397359822904E+01  0.500000000000E+01  0.375000000000E+01
  0.500000000000E+01  0.433260783674E+01  0.500000000000E+01  0.500000000000E+01  0.500000000000E+01
  0.000000000000E+00  0.000000000000E+00  0.000000000000E+00  0.453747912967E+00  0.402545502453E+00  0.000000000000E+00  0.369629009544E+00
  0.520525438577E+00  0.575220780219E+00  0.575502697133E+00  0.558260174275E+00  0.000000000000E+00  0.478252962454E+00  0.530976530200E+00
  0.555830976399E+00  0.562793219653E+00  0.524675235835E+00  0.523282018189E+00  0.447917893105E+00  0.513796076167E+00  0.524673097209E+00
  0.506323914759E+00  0.509686671337E+00  0.477443348004E+00  0.499194823541E+00  0.497912967444E+00  0.492962759871E+00  0.493078169939E+00
  0.493192027983E+00  0.501531684732E+00  0.491169160322E+00  0.488098785874E+00  0.498012892236E+00
  0.104242640687E+01  0.104242640687E+01  0.104242640687E+01  0.992555420605E+00  0.100338777628E+01  0.104242640687E+01  0.100275102529E+01
  0.987610948162E+00  0.990360755947E+00  0.989796153239E+00  0.994453865708E+00  0.104242640687E+01  0.999323382885E+00  0.100158433896E+01
  0.997121320216E+00  0.998147046672E+00  0.100443205293E+01  0.100036233051E+01  0.102508330221E+01  0.100269535219E+01  0.100014129837E+01
  0.999693737613E+00  0.100036856474E+01  0.100608607954E+01  0.100156234007E+01  0.100069385186E+01  0.100096903929E+01  0.100201867166E+01
  0.100024531101E+01  0.999658107118E+00  0.100018113529E+01  0.100002132966E+01  0.100090132497E+01
  0.110667170207E+02  0.731810213091E+01  0.871418936555E+01  0.909445780564E+01  0.872140908996E+01  0.714060438837E+01  0.803024490549E+01
  0.116305700175E+02  0.101711919091E+02  0.104443616897E+02  0.942802640374E+01  0.425706810125E+01  0.870374933490E+01  0.881502441453E+01
  0.782194654944E+01  0.797449302877E+01  0.754097757968E+01  0.603715397672E+01  0.594193215744E+01  0.649252783512E+01  0.575080901073E+01
  0.514161065690E+01  0.504241082743E+01  0.441612217398E+01  0.413292449037E+01  0.991443711651E+01  0.336975400060E+02  0.886598558341E+01
  0.626159702454E+01  0.918738028655E+01  0.131114792144E+02  0.179738617599E+02  0.552035508874E+02
  0.163964903831E+00  0.385214675369E+00 -0.178113166406E+01  0.131444478464E+01  0.334237145072E+01  0.177722425604E+00  0.357518089047E+01
 -0.266378702463E+01 -0.220759127617E+01 -0.279950214669E+01 -0.227214034881E+00  0.112699197962E+01  0.306435524535E+01 -0.227690364022E+01
 -0.169186668463E+01 -0.204766004416E+01  0.132023305515E+01 -0.832067306819E+00  0.243076917641E+01 -0.157843335275E+01 -0.186763013128E+01
 -0.160377151235E+01 -0.192137278152E+01  0.177824701195E+01 -0.644638030635E-02  0.594652368145E+00  0.512293584686E+01  0.189162159517E+01
 -0.603294271041E+00 -0.106638895216E+01 -0.278917342397E+00  0.541395501709E+00  0.114278803255E+02
  0.889327463710E-01  0.118439434746E+00  0.174132187474E+00 -0.616653256501E+00 -0.596207809633E+00  0.454172051930E-01  0.187980241967E-01
  0.514492338118E-01  0.206646658211E+00  0.371363865175E-01  0.231968846413E+00  0.308448665067E+00  0.270391846921E+00 -0.171232521639E-01
 -0.352759288033E-01  0.120030792434E-01 -0.198465253847E-01 -0.150796347360E+00  0.140253887180E+00 -0.238181280560E-01 -0.703917084419E-02
  0.184987072544E-01  0.466285434533E-02  0.165566990098E-02  0.398130900933E-01  0.716864445263E-01 -0.232156529610E-01  0.103798805445E-01
 -0.139621067374E-01 -0.717856833621E-03 -0.604663961874E-02 -0.212583685972E-02 -0.837847110878E-02
 -0.258145885522E+01 -0.240858524004E+01 -0.105511990045E+01 -0.721872201911E+01 -0.832456741086E+01 -0.269323623345E+01 -0.908907731372E+01
 -0.502730387036E+00 -0.269090968109E+01 -0.952123571305E+00 -0.390892346254E+01 -0.238305617788E+01 -0.700672141464E+01 -0.418419422446E+00
 -0.275552790779E+01 -0.141475053974E+01 -0.450563279673E+01 -0.373830213860E+01 -0.646617539776E+01 -0.529477466454E+00 -0.201140221560E+01
 -0.255815421280E+01 -0.139936919018E+01 -0.497154007990E+01 -0.393645452170E+01 -0.274255796233E+01 -0.182308451404E+01 -0.296029994519E+01
 -0.718544950238E+00 -0.199098725819E+01 -0.204534296882E+01 -0.176320198500E+01 -0.115396437207E+01
  0.601172805875E-02 -0.212865246167E-01 -0.812927972814E+00 -0.296395543525E+01 -0.340088089099E+01 -0.284439812710E-01 -0.355998155884E+01
 -0.254493470925E+01 -0.205087900485E+01 -0.205580633203E+01 -0.230680875523E+01 -0.126961147756E+01 -0.342028863184E+01 -0.170459524422E+01
 -0.170467836062E+01 -0.157760486721E+01 -0.230682965089E+01 -0.139359663087E+01 -0.250324934766E+01 -0.129448822079E+01 -0.954513967520E+00
 -0.876651427097E+00 -0.725794480006E+00 -0.150755269312E+01 -0.110145969957E+01 -0.332812588242E+01 -0.132064144694E+02 -0.337509050223E+01
 -0.176068034298E+01 -0.249977327257E+01 -0.420826933663E+01 -0.621316434158E+01 -0.228587997287E+02
        15         9        16        16
        15        18        11        11
        22        15        21        21
        11         5         9         9
         5         7         2         2
        11         9        15        15
        16        21        15        15
        16        10        14        14
        18        17        11        11
        17        25        24        24
        22        18        15        15
        22        30        31        31
        30        21        23        23
        16        20        23        23
        22        27        26        26
        10         9         4         4
         7        11        13        13
        25        18        26        26
        11         7         5         5
         5         1         4         4
        17        19        13        13
        23        32        30        30
        23        20        29        29
         4         9         5         5
         4         8        10        10
        26        18        22        22
        26        28        25        25
        13        11        17        17
        13         6         7         7
        31        30        32        32
         2         1         5         5
         2         7         6         6
        14        10         8         8
        24        19        17        17
        24        25        28        28
         9        10        16        16
         3         4         1         1
        33        26        27        27
        12        13        19        19
        21        30        22        22
        16        14        20        20
        16        23        21        21
        22        31        27        27
        18        25        17        17
        26        33        28        28
         4         3         8         8
        23        29        32        32
        13        12         6         6
zone t="boundary 4 bc-4", solutiontime= 0.6000000E+02, strandid=1004, i=32, j=46, f=feblock
  0.125000000000E+01  0.219251206392E+01  0.103724302461E+01  0.500000000000E+01  0.250000000000E+01  0.375000000000E+01  0.404200324774E+01
  0.500000000000E+01  0.000000000000E+00  0.310152362409E+01  0.202479342020E+01  0.324151231464E+01  0.922061490191E+00  0.000000000000E+00
  0.299062775774E+01  0.394624082883E+01  0.500000000000E+01  0.409252726285E+01  0.500000000000E+01  0.429310310915E+01  0.175434191980E+01
  0.284428995242E+01  0.000000000000E+00  0.000000000000E+00  0.715990576545E+00  0.930412228790E+00  0.125000000000E+01  0.187029682677E+01
  0.500000000000E+01  0.375000000000E+01  0.250000000000E+01  0.000000000000E+00
  0.250494199996E+01  0.157686156160E+01  0.146289271009E+01  0.250494199996E+01  0.250494199996E+01  0.250494199996E+01  0.155830813274E+01
  0.125000000000E+01  0.250494199996E+01  0.177790177481E+01  0.477386199275E+00  0.742988685424E+00  0.308372018325E+00  0.125000000000E+01
 -0.487811078581E+00 -0.144524380962E+01 -0.125000000000E+01 -0.345533899378E+00  0.000000000000E+00  0.627766083140E+00 -0.739814786992E+00
 -0.158811787973E+01  0.000000000000E+00 -0.125000000000E+01 -0.600232012419E+00 -0.154800130438E+01 -0.249658902117E+01 -0.178862290564E+01
 -0.249658902117E+01 -0.249658902117E+01 -0.249658902117E+01 -0.249658902117E+01
  0.500000000000E+01  0.500000000000E+01  0.500000000000E+01  0.500000000000E+01  0.500000000000E+01  0.500000000000E+01  0.500000000000E+01
  0.500000000000E+01  0.500000000000E+01  0.500000000000E+01  0.500000000000E+01  0.500000000000E+01  0.500000000000E+01  0.500000000000E+01
  0.500000000000E+01  0.500000000000E+01  0.500000000000E+01  0.500000000000E+01  0.500000000000E+01  0.500000000000E+01  0.500000000000E+01
  0.500000000000E+01  0.500000000000E+01  0.500000000000E+01  0.500000000000E+01  0.500000000000E+01  0.500000000000E+01  0.500000000000E+01
  0.500000000000E+01  0.500000000000E+01  0.500000000000E+01  0.500000000000E+01
  0.492962759871E+00  0.493501811672E+00  0.494482154832E+00  0.493192027983E+00  0.491169160322E+00  0.488098785874E+00  0.488213915628E+00
  0.494128983540E+00  0.498012892236E+00  0.490743060294E+00  0.492687813005E+00  0.491182349970E+00  0.497494162823E+00  0.498545864547E+00
  0.492035510720E+00  0.486141829064E+00  0.492132924673E+00  0.489715881183E+00  0.494539390222E+00  0.490046920039E+00  0.494491364916E+00
  0.492624363645E+00  0.499470102958E+00  0.498443302005E+00  0.498085503859E+00  0.496394045645E+00  0.494346755559E+00  0.494728908772E+00
  0.491660272583E+00  0.489529542899E+00  0.494638536198E+00  0.497648492019E+00
  0.100096903929E+01  0.100040310406E+01  0.100072208318E+01  0.100024531101E+01  0.100018113529E+01  0.100002132966E+01  0.999888523338E+00
  0.100031159626E+01  0.100090132497E+01  0.100020963142E+01  0.100030894110E+01  0.999990940254E+00  0.100060759990E+01  0.100084556817E+01
  0.100008167760E+01  0.999676407531E+00  0.100057119101E+01  0.999878618045E+00  0.100042307878E+01  0.999981274937E+00  0.100055778173E+01
  0.999986005540E+00  0.100040727367E+01  0.100050934991E+01  0.100040913615E+01  0.100074102371E+01  0.100077487280E+01  0.100045005174E+01
  0.100026599126E+01  0.999860681535E+00  0.999993717468E+00  0.100085386850E+01
  0.336975400060E+02  0.329772925298E+02  0.390599151251E+02  0.626159702454E+01  0.131114792144E+02  0.179738617599E+02  0.232605854910E+02
  0.525447215240E+01  0.552035508874E+02  0.210709259107E+02  0.332239180418E+02  0.183964129776E+02  0.454470255052E+02  0.591592439595E+02
  0.819158761162E+01  0.100198491126E+02  0.856507585519E+01  0.115069274153E+02  0.671965446700E+01  0.289883297348E+02  0.352162534585E+02
  0.717077682660E+01  0.615920555100E+02  0.459256170640E+02  0.510734849817E+02  0.323622377462E+02  0.250083704758E+02  0.234968562626E+02
  0.978150181882E+01  0.116014330257E+02  0.351559792222E+01  0.385750953169E+02