title="tecplot geometry and solution file"
variables = x y z mach temperature lambda1 lambda2 lambda3 lambda4 lambda5
zone t="boundary 1 bc-1", solutiontime= 0.1000000E+02, strandid=1001, i=32, j=46, f=feblock
 -0.547468544169E-02  0.000000000000E+00 -0.567606031243E-02  0.000000000000E+00  0.000000000000E+00  0.000000000000E+00 -0.525159244851E-02
 -0.425776897977E-02  0.000000000000E+00  0.000000000000E+00  0.000000000000E+00  0.000000000000E+00  0.000000000000E+00  0.000000000000E+00
  0.000000000000E+00  0.000000000000E+00 -0.338395986572E-02  0.000000000000E+00  0.000000000000E+00  0.000000000000E+00  0.000000000000E+00
  0.000000000000E+00  0.000000000000E+00  0.000000000000E+00  0.000000000000E+00  0.000000000000E+00  0.000000000000E+00  0.000000000000E+00
  0.000000000000E+00  0.000000000000E+00  0.000000000000E+00  0.000000000000E+00
  0.250494197117E+01  0.250494197117E+01  0.127822156907E+01  0.146289271009E+01  0.157686156160E+01  0.308372018325E+00  0.261948602442E-01
 -0.122573481164E+01 -0.600232012419E+00  0.250494197117E+01  0.477386199275E+00  0.742988685424E+00 -0.739814786992E+00  0.177790177481E+01
  0.155830813274E+01  0.250494197117E+01 -0.249658903664E+01 -0.154800130438E+01 -0.487811078581E+00  0.250494197117E+01  0.627766083140E+00
 -0.345533899378E+00 -0.178862290564E+01 -0.158811787973E+01  0.125000000000E+01 -0.249658903664E+01 -0.144524380962E+01  0.000000000000E+00
 -0.125000000000E+01 -0.249658903664E+01 -0.249658903664E+01 -0.249658903664E+01
  0.803813859867E-04  0.125000000000E+01  0.822460170215E-04  0.103724302461E+01  0.219251206392E+01  0.922061490191E+00  0.103872438719E-03
  0.341545874230E-04  0.715990576545E+00  0.250000000000E+01  0.202479342020E+01  0.324151231464E+01  0.175434191980E+01  0.310152362409E+01
  0.404200324774E+01  0.375000000000E+01  0.810725962649E-04  0.930412228790E+00  0.299062775774E+01  0.500000000000E+01  0.429310310915E+01
  0.409252726285E+01  0.187029682677E+01  0.284428995242E+01  0.500000000000E+01  0.125000000000E+01  0.394624082883E+01  0.500000000000E+01
  0.500000000000E+01  0.250000000000E+01  0.375000000000E+01  0.500000000000E+01
  0.000000000000E+00  0.440666214091E+00  0.000000000000E+00  0.474617251435E+00  0.460123126357E+00  0.468636774984E+00  0.000000000000E+00
  0.000000000000E+00  0.402549872254E+00  0.469884091894E+00  0.464193478194E+00  0.478749614938E+00  0.489549465334E+00  0.483128669053E+00
  0.488002259909E+00  0.489034104323E+00  0.000000000000E+00  0.465240564346E+00  0.473760502823E+00  0.495364297290E+00  0.490293371229E+00
  0.486277598054E+00  0.445854520604E+00  0.464358879564E+00  0.496127933522E+00  0.443900347073E+00  0.486930056481E+00  0.497248722542E+00
  0.496055921459E+00  0.467744048732E+00  0.488189258165E+00  0.495091099977E+00
  0.999990300362E+00  0.102983027301E+01  0.999990762612E+00  0.104241479569E+01  0.101187755093E+01  0.102516586953E+01  0.999991420552E+00
  0.999992171067E+00  0.103882587599E+01  0.100825880510E+01  0.101253541373E+01  0.100301664923E+01  0.102705528947E+01  0.100604152563E+01
  0.100244540576E+01  0.100354834274E+01  0.999992724186E+00  0.103209927148E+01  0.100459382920E+01  0.100178631734E+01  0.100260315206E+01
  0.100234717451E+01  0.101657069468E+01  0.100620508927E+01  0.100168367826E+01  0.104024762909E+01  0.100303428499E+01  0.100118707696E+01
  0.100134422954E+01  0.100976315298E+01  0.100405567247E+01  0.100176392267E+01
  0.909311276760E+00  0.530637430981E+01  0.941216331532E+00  0.631951575267E+01  0.331393806039E+01  0.349112027320E+01  0.308928449741E+01
  0.358456655582E+01  0.144346638170E+00  0.165403307800E+01  0.472572670065E+01  0.319816203779E+01  0.611019211893E+01  0.174868027132E+01
  0.151003165659E+02  0.109621144634E+02  0.480029321529E+01  0.350102723718E+01  0.157864160991E+01  0.598247566879E+02  0.208375005464E+02
  0.122846117639E+02  0.507361957564E+01  0.138498240650E+01  0.611544140459E+02  0.613709975478E+01  0.105907660129E+02  0.649105614072E+02
  0.582636504266E+02  0.144008976724E+01  0.932221055427E+01  0.552234697194E+02
  0.288635967556E+00  0.206081508385E+01  0.527606820107E+00  0.228024187499E+01  0.168638141911E+01  0.253860314452E+01  0.426344776856E+00
  0.844185789485E+00  0.186906218907E+01  0.122620345972E+01  0.174656559786E+01  0.110510665248E+01  0.188063746807E+01  0.981667975574E+00
  0.313148997647E+01  0.249850362566E+01  0.501967469271E+00  0.199047579210E+01  0.731648862591E+00  0.121393044256E+02  0.427046029967E+01
  0.252559301691E+01  0.160999748110E+01  0.665496881490E+00  0.126926255507E+02  0.151082035470E+01  0.219914431667E+01  0.135478371581E+02
  0.120668781914E+02  0.766373397950E+00  0.212209371535E+01  0.113417327865E+02
  0.739290081703E-01  0.456042804034E-01 -0.117500887624E+00 -0.296292967129E+00 -0.759966577090E-01 -0.653966294855E+00 -0.292219969462E-01
 -0.413775696887E+00 -0.334522954790E+00  0.130433594531E-01 -0.461952804394E-01  0.353534510670E+00  0.489923009691E-01  0.202392666125E+00
  0.393624940119E+00  0.143766549485E-01 -0.283835567600E+00 -0.723621031046E+00  0.367366433746E+00 -0.633662575426E-02  0.434949944147E+00
  0.330174670586E+00  0.245965072829E+00  0.177144020869E+00  0.207853198618E+00 -0.123745405435E+00  0.176576586958E+00  0.351107560146E+00
  0.196702720034E+00 -0.614378849731E-02 -0.276791602059E-01 -0.224844660705E-01
 -0.860925416057E+00 -0.337206040527E+01 -0.142048309285E+01 -0.354043204391E+01 -0.370432717320E+01 -0.651851360353E+01 -0.104522649980E+01
 -0.169639071946E+01 -0.801416085366E+01 -0.384155615183E+01 -0.344062859094E+01 -0.301357688012E+01 -0.270134525290E+01 -0.346995813026E+01
 -0.222946002495E+01 -0.266725010034E+01 -0.116181216009E+01 -0.658363667504E+01 -0.288477689294E+01 -0.892753184467E+00 -0.180559476584E+01
 -0.196114769466E+01 -0.318338385083E+01 -0.284476905616E+01 -0.779119228300E+00 -0.485337319944E+01 -0.188840644007E+01 -0.696353515443E+00
 -0.827043714251E+00 -0.332156121739E+01 -0.204243146848E+01 -0.867553702709E+00
 -0.441899783628E+00 -0.219173561199E+01 -0.512359717201E+00 -0.260202589839E+01 -0.121569123565E+01 -0.186416515326E+01 -0.434610086273E+00
 -0.752941167112E+00 -0.600022108715E+00 -0.497614952201E+00 -0.164559461643E+01 -0.112933625778E+01 -0.206077204469E+01 -0.528243049062E+00
 -0.601831942310E+01 -0.432384818072E+01 -0.914956468362E+00 -0.167376704220E+01 -0.467210159969E+00 -0.247812054231E+02 -0.842632146608E+01
 -0.485101082183E+01 -0.167700490058E+01 -0.365856185651E+00 -0.254062274734E+02 -0.228845969748E+01 -0.413057770225E+01 -0.270434519435E+02
 -0.242112993582E+02 -0.286518625182E+00 -0.363766469933E+01 -0.228775974288E+02
        12        19        11        11
        11         5        12        12
        10        14         5         5
        19        13        11        11
        19        24        13        13
        30        23        24        24
        19        12        22        22
        28        22        21        21
        11        13         6         6
         7         6         9         9
        15        12        14        14
        18        13        23        23
        15        25        21        21
        27        19        22        22
        18         8         9         9
        27        31        24        24
         4        11         6         6
         5        14        12        12
         4         2         5         5
        21        12        15        15
        14        16        15        15
        24        19        27        27
        22        29        27        27
        23        26        18        18
        17         8        18        18
         5        11         4         4
         6         3         4         4
        26        23        30        30
         5         2        10        10
        16        14        10        10
         3         6         7         7
        21        25        28        28
        29        22        28        28
         6        13         9         9
         2         4         1         1
        31        27        32        32
        25        15        20        20
        24        23        13        13
         8         7         9         9
        13        18         9         9
        31        30        24        24
        12        21        22        22
        29        32        27        27
         3         1         4         4
        26        17        18        18
        16        20        15        15
zone t="boundary 2 bc-2", solutiontime= 0.1000000E+02, strandid=1002, i=33, j=48, f=feblock
  0.500195253374E+01  0.375034811161E+01  0.249861146299E+01  0.288036674177E+01  0.124717526933E+01  0.190856698521E+01  0.326577190273E+01
  0.201394856120E+01 -0.338395986572E-02  0.962374249381E+00  0.500000000000E+01  0.403430190008E+01  0.423029563807E+01  0.500000000000E+01
  0.385439188940E+01  0.500000000000E+01  0.398133433176E+01  0.315200081417E+01  0.266958028869E+01  0.154798029824E+01  0.218327860466E+01
  0.893688440338E+00  0.000000000000E+00  0.699009761768E+00  0.964460899052E+00  0.310303671659E+01  0.000000000000E+00  0.000000000000E+00
  0.125000000000E+01  0.500000000000E+01  0.375000000000E+01  0.250000000000E+01  0.000000000000E+00
 -0.249658903664E+01 -0.249658903664E+01 -0.249658903664E+01 -0.249658903664E+01 -0.249658903664E+01 -0.249658903664E+01 -0.249658903664E+01
 -0.249658903664E+01 -0.249658903664E+01 -0.249658903664E+01 -0.249658903664E+01 -0.249658903664E+01 -0.249658903664E+01 -0.249658903664E+01
 -0.249658903664E+01 -0.249658903664E+01 -0.249658903664E+01 -0.249658903664E+01 -0.249658903664E+01 -0.249658903664E+01 -0.249658903664E+01
 -0.249658903664E+01 -0.249658903664E+01 -0.249658903664E+01 -0.249658903664E+01 -0.249658903664E+01 -0.249658903664E+01 -0.249658903664E+01
 -0.249658903664E+01 -0.249658903664E+01 -0.249658903664E+01 -0.249658903664E+01 -0.249658903664E+01
  0.108225889030E-03  0.145875369682E-03  0.100893326425E-03  0.901663374396E+00  0.110858761917E-03  0.714928318829E+00  0.188140648011E+01
  0.175892165504E+01  0.810725962649E-04  0.957504300331E+00  0.125000000000E+01  0.100596698996E+01  0.191313519089E+01  0.250000000000E+01
  0.292898096716E+01  0.375000000000E+01  0.406883369524E+01  0.363389289944E+01  0.284756860985E+01  0.292582308120E+01  0.395754054931E+01
  0.205027256979E+01  0.125000000000E+01  0.306703272692E+01  0.397155766662E+01  0.433068622168E+01  0.250000000000E+01  0.375000000000E+01
  0.500000000000E+01  0.500000000000E+01  0.500000000000E+01  0.500000000000E+01  0.500000000000E+01
  0.000000000000E+00  0.000000000000E+00  0.000000000000E+00  0.380610262149E+00  0.000000000000E+00  0.343302163911E+00  0.585285498568E+00
  0.579523873721E+00  0.000000000000E+00  0.500979747332E+00  0.508782814017E+00  0.434361560749E+00  0.572843977212E+00  0.537166654001E+00
  0.569106490033E+00  0.515013352172E+00  0.508252450097E+00  0.527349030424E+00  0.567655252726E+00  0.531857855076E+00  0.506012444339E+00
  0.521051129094E+00  0.443900347073E+00  0.490706184896E+00  0.492149786373E+00  0.501385664791E+00  0.467744048732E+00  0.488189258165E+00
  0.489961991134E+00  0.491321546659E+00  0.486017931588E+00  0.489981935261E+00  0.495091099977E+00
  0.999993488485E+00  0.999993690942E+00  0.999993544242E+00  0.989581137391E+00  0.999993139053E+00  0.985581489207E+00  0.989839349776E+00
  0.991729030504E+00  0.999992724186E+00  0.984216351929E+00  0.985140607796E+00  0.984808793931E+00  0.990067211347E+00  0.100292629404E+01
  0.999859927063E+00  0.100487346357E+01  0.100122739133E+01  0.100057008832E+01  0.997888967161E+00  0.100350843654E+01  0.100059307424E+01
  0.101090476404E+01  0.104024762909E+01  0.100327844767E+01  0.100254887617E+01  0.100046793890E+01  0.100976315298E+01  0.100405567247E+01
  0.100192580062E+01  0.100045822703E+01  0.100058944082E+01  0.100110055989E+01  0.100176392267E+01
  0.417138175883E+01  0.628934620456E+01  0.762085368291E+01  0.621618954772E+01  0.465645291110E+01  0.596317141913E+01  0.736635731327E+01
  0.654698788029E+01  0.480029321529E+01  0.674060946212E+01  0.850932188981E+01  0.737265816136E+01  0.778937143425E+01  0.643744814687E+01
  0.519643719775E+01  0.469036782801E+01  0.348382329061E+01  0.408717789118E+01  0.502767448241E+01  0.282988267945E+01  0.571012738498E+01
  0.473517652337E+01  0.613709975478E+01  0.183382515425E+01  0.980489835454E+01  0.675554092101E+01  0.144008976724E+01  0.932221055427E+01
  0.515885551445E+02  0.552229814028E+01  0.224303071522E+02  0.444528658983E+02  0.552234697194E+02
 -0.102911230411E+01 -0.290951070433E+00  0.399497056028E+00  0.177442905601E+01 -0.473954101855E-01  0.202156124409E+01 -0.156423823642E+01
 -0.760030004582E-01  0.501967469271E+00  0.183131004688E+01 -0.185944042991E+01 -0.769034180038E+00 -0.188778181158E+01 -0.167226325736E+01
 -0.169684275357E+01 -0.110022846740E+01 -0.153064158390E+01 -0.151686953933E+01 -0.166999745088E+01 -0.101370948105E+01 -0.714389706041E+00
  0.361242848103E+00  0.151082035470E+01 -0.258273413191E+00  0.989941928464E+00 -0.832017763508E+00  0.766373397950E+00  0.212209371535E+01
  0.903389508738E+01 -0.314935061464E+00  0.218739383959E+01  0.671518608464E+01  0.113417327865E+02
 -0.704358757331E-01 -0.995695747177E-01  0.696579242288E-01  0.397472167085E+00  0.201401960638E+00  0.564455132303E+00 -0.978454494731E-01
 -0.207564245146E+00 -0.283835567600E+00  0.670726229093E-01 -0.202909636366E-01 -0.930056690087E-01  0.220504526150E-01 -0.113140500442E-01
 -0.296612013389E-02  0.138987389195E-01 -0.185631742599E-01  0.384574729626E-03  0.594222517219E-01  0.778981117603E-01 -0.449276402178E-02
  0.345573518585E-02 -0.123745405435E+00 -0.368242918173E-01 -0.378315209457E-01  0.147242170430E-02 -0.614378849731E-02 -0.276791602059E-01
 -0.565629648441E-02 -0.534534808029E-03  0.289922886779E-03 -0.287805796929E-02 -0.224844660705E-01
 -0.333514613333E+00 -0.116502174683E+01 -0.144644485360E+01 -0.604381670469E+01 -0.131444651708E+01 -0.761578263323E+01 -0.110350263726E+01
 -0.263311076729E+01 -0.116181216009E+01 -0.455280785400E+01 -0.150390063053E+00 -0.136742513970E+01 -0.406475290242E+00 -0.237491273198E+00
 -0.909993288006E+00 -0.322416517785E+00 -0.101870365328E+01 -0.153983443387E+01 -0.172820316030E+01 -0.243056805816E+01 -0.177784085746E+01
 -0.285128090723E+01 -0.485337319944E+01 -0.248935033459E+01 -0.187656788998E+01 -0.151850791154E+01 -0.332156121739E+01 -0.204243146848E+01
 -0.127161355734E+01 -0.592402004004E+00 -0.137733955665E+01 -0.156461373278E+01 -0.867553702709E+00
 -0.539989774271E+00  0.117731634825E-01  0.372062533901E-02 -0.223416610866E+01 -0.151131071796E-01 -0.259918942261E+01 -0.149692254032E+01
 -0.155639272621E+01 -0.914956468362E+00 -0.266966944054E+01 -0.189683577850E+01 -0.177952872274E+01 -0.162694954615E+01 -0.122284733080E+01
 -0.847107947534E+00 -0.947436003180E+00 -0.397967766599E+00 -0.596348216961E+00 -0.845206807483E+00 -0.329164765646E+00 -0.145945715127E+01
 -0.128247158893E+01 -0.228845969748E+01 -0.258509615424E+00 -0.349413018865E+01 -0.180409826045E+01 -0.286518625182E+00 -0.363766469933E+01
 -0.208981566131E+02 -0.165524292590E+01 -0.839802925367E+01 -0.176190870157E+02 -0.228775974288E+02
        15         7        19        19
         8        20        19        19
        18        19        21        21
         7         4         8         8
         3         6         4         4
        19         7         8         8
        19        18        15        15
        14        13        15        15
         8        22        20        20
        27        24        22        22
        19        20        21        21
        32        26        21        21
        17        18        26        26
        17        16        15        15
        25        29        21        21
        12         7        13        13
        10         8         6         6
        25        20        24        24
         4         6         8         8
        12         2         4         4
        10        23        22        22
        26        31        17        17
        30        16        17        17
         4         7        12        12
        13        11        12        12
        21        20        25        25
        24        28        25        25
        22         8        10        10
         6         5        10        10
        31        26        32        32
         4         2         3         3
         5         6         3         3
        11        13        14        14
        22        23        27        27
        28        24        27        27
        15        13         7         7
         2        12         1         1
        29        25        33        33
        23        10         9         9
        21        26        18        18
        16        14        15        15
        18        17        15        15
        29        32        21        21
        22        24        20        20
        28        33        25        25
        11         1        12        12
        31        30        17        17
         5         9        10        10
zone t="boundary 3 bc-3", solutiontime= 0.1000000E+02, strandid=1003, i=33, j=48, f=feblock
  0.375059096892E+01  0.249769609313E+01  0.500322133174E+01  0.403612218725E+01  0.287976772365E+01  0.124541910518E+01  0.190552237404E+01
  0.500000000000E+01  0.326671104552E+01  0.423253755448E+01  0.201271136506E+01 -0.547468544169E-02  0.958895643487E+00  0.500000000000E+01
  0.266968147299E+01  0.385584487271E+01  0.890374214836E+00  0.154654013699E+01  0.000000000000E+00  0.500000000000E+01  0.315261136744E+01
  0.218304199515E+01  0.398195307895E+01  0.000000000000E+00  0.697379952124E+00  0.963757277315E+00  0.125000000000E+01  0.000000000000E+00
  0.500000000000E+01  0.310330738524E+01  0.250000000000E+01  0.375000000000E+01  0.000000000000E+00
  0.250494197117E+01  0.250494197117E+01  0.250494197117E+01  0.250494197117E+01  0.250494197117E+01  0.250494197117E+01  0.250494197117E+01
  0.250494197117E+01  0.250494197117E+01  0.250494197117E+01  0.250494197117E+01  0.250494197117E+01  0.250494197117E+01  0.250494197117E+01
  0.250494197117E+01  0.250494197117E+01  0.250494197117E+01  0.250494197117E+01  0.250494197117E+01  0.250494197117E+01  0.250494197117E+01
  0.250494197117E+01  0.250494197117E+01  0.250494197117E+01  0.250494197117E+01  0.250494197117E+01  0.250494197117E+01  0.250494197117E+01
  0.250494197117E+01  0.250494197117E+01  0.250494197117E+01  0.250494197117E+01  0.250494197117E+01
  0.135649900494E-03  0.110129816467E-03  0.966887303890E-04  0.101756752009E+01  0.908094589218E+00  0.103942505801E-03  0.722629083213E+00
  0.125000000000E+01  0.188965661746E+01  0.191862696980E+01  0.176708239098E+01  0.803813859867E-04  0.969652551954E+00  0.250000000000E+01
  0.285339433501E+01  0.293325058812E+01  0.205656223819E+01  0.293157016932E+01  0.125000000000E+01  0.375000000000E+01  0.363766838842E+01
  0.396069444983E+01  0.407056385475E+01  0.250000000000E+01  0.307031995245E+01  0.397359820314E+01  0.500000000000E+01  0.375000000000E+01
  0.500000000000E+01  0.433260781310E+01  0.500000000000E+01  0.500000000000E+01  0.500000000000E+01
  0.000000000000E+00  0.000000000000E+00  0.000000000000E+00  0.444930326687E+00  0.402807304829E+00  0.000000000000E+00  0.379033816204E+00
  0.508818740007E+00  0.575701380330E+00  0.573472074602E+00  0.562547829758E+00  0.000000000000E+00  0.491637802825E+00  0.534336813543E+00
  0.556352181579E+00  0.564140551432E+00  0.522485305911E+00  0.521817734730E+00  0.440666214091E+00  0.517132977413E+00  0.524068294234E+00
  0.503616120436E+00  0.509419881731E+00  0.469884091894E+00  0.495645014420E+00  0.494503343531E+00  0.488630212220E+00  0.489034104323E+00
  0.492987209122E+00  0.498957573931E+00  0.486507800265E+00  0.484614058974E+00  0.495364297290E+00
  0.999989345567E+00  0.999989414891E+00  0.999989632591E+00  0.981380974378E+00  0.988680684584E+00  0.999989832933E+00  0.982276351823E+00
  0.984074897465E+00  0.990406099424E+00  0.990319064682E+00  0.994391010835E+00  0.999990300362E+00  0.988748587757E+00  0.100365238200E+01
  0.999773192633E+00  0.100117376381E+01  0.100830261588E+01  0.100251270964E+01  0.102983027301E+01  0.100441979611E+01  0.100199190108E+01
  0.100081961865E+01  0.100137906157E+01  0.100825880510E+01  0.100297440226E+01  0.100191721483E+01  0.100214792073E+01  0.100354834274E+01
  0.100047555022E+01  0.100056537700E+01  0.100126704333E+01  0.100066742194E+01  0.100178631734E+01
  0.972221164892E+01  0.305914550799E+01  0.985194968935E+01  0.836628452174E+01  0.781872743643E+01  0.167690213948E+01  0.709001715082E+01
  0.111198005597E+02  0.915247307236E+01  0.951009662555E+01  0.816547930751E+01  0.909311276760E+00  0.822482178027E+01  0.764144757830E+01
  0.631030973218E+01  0.683875769843E+01  0.654201999889E+01  0.387699180684E+01  0.530637430981E+01  0.537906056841E+01  0.438380997109E+01
  0.532752709650E+01  0.408944700227E+01  0.165403307800E+01  0.235272668263E+01  0.135274942921E+02  0.477743899300E+02  0.109621144634E+02
  0.507693125071E+01  0.676019587305E+01  0.432832109351E+02  0.234120970268E+02  0.598247566879E+02
  0.659753319354E+00  0.902735902791E+00 -0.178445344903E+01  0.283425918447E+01  0.504992148891E+01  0.123048333076E+00  0.404173539890E+01
 -0.245432348827E+01 -0.147605168498E+01 -0.250725093954E+01  0.127310035269E+01  0.288635967556E+00  0.322837154356E+01 -0.202573156564E+01
 -0.127519506168E+01 -0.167398466105E+01  0.208700641861E+01 -0.401315465048E+00  0.206081508385E+01 -0.132116977119E+01 -0.153703131339E+01
 -0.889016288884E+00 -0.154526444350E+01  0.122620345972E+01  0.358870522808E+00  0.172907480300E+01  0.827150723639E+01  0.249850362566E+01
 -0.502479097261E+00 -0.924983886982E+00  0.648518252014E+01  0.223775437875E+01  0.121393044256E+02
 -0.169271214633E+00 -0.151279003433E+00  0.140034718788E+00 -0.794090260662E+00 -0.971740095523E+00 -0.974703932802E-01 -0.896738965294E-01
  0.632450021785E-01  0.205535589685E+00  0.245816558881E-01  0.198186641621E+00  0.739290081703E-01 -0.591705221955E-02 -0.214450839349E-01
 -0.214295801033E-01  0.309355843207E-01 -0.538029307529E-01 -0.109770206848E+00  0.456042804034E-01 -0.276895013830E-01 -0.960195899062E-02
  0.207867150592E-01  0.513817346470E-02  0.130433594531E-01  0.565978615528E-01  0.802026636578E-01 -0.219454339021E-01  0.143766549485E-01
 -0.148133432791E-01 -0.323388846737E-02 -0.803343917753E-02 -0.445576421103E-02 -0.633662575426E-02
 -0.229215867567E+01 -0.163575205890E+01 -0.139951864348E+01 -0.859875299340E+01 -0.882417659164E+01 -0.119037074291E+01 -0.635013751897E+01
 -0.749426717616E+00 -0.294762481836E+01 -0.110342260320E+01 -0.392774517218E+01 -0.860925416057E+00 -0.392031621959E+01 -0.414579064383E+00
 -0.270982923585E+01 -0.142713127353E+01 -0.391030686476E+01 -0.343647002687E+01 -0.337206040527E+01 -0.465827226113E+00 -0.187545949045E+01
 -0.222975740611E+01 -0.123911065656E+01 -0.384155615183E+01 -0.350433249623E+01 -0.232192771717E+01 -0.138701855842E+01 -0.266725010034E+01
 -0.588901330456E+00 -0.171662267637E+01 -0.164833754648E+01 -0.145519749277E+01 -0.892753184467E+00
 -0.129260242739E-01 -0.649048339992E-01 -0.114519191864E+01 -0.329519184301E+01 -0.377161839484E+01 -0.696442916956E-01 -0.364505139990E+01
 -0.252086813345E+01 -0.198647337558E+01 -0.189401511664E+01 -0.242489014032E+01 -0.441899783628E+00 -0.347982052498E+01 -0.144123896657E+01
 -0.139371258114E+01 -0.137974048300E+01 -0.236363012659E+01 -0.825870375674E+00 -0.219173561199E+01 -0.105921047996E+01 -0.657308731555E+00
 -0.124186491721E+01 -0.580006475265E+00 -0.497614952201E+00 -0.576414586874E+00 -0.502892756534E+01 -0.192633642420E+02 -0.432384818072E+01
 -0.142087553760E+01 -0.175489343527E+01 -0.171120546404E+02 -0.874427162414E+01 -0.247812054231E+02
        15         9        16        16
        15        18        11        11
        22        15        21        21
        11         5         9         9
         5         7         2         2
        11         9        15        15
        16        21        15        15
        16        10        14        14
        18        17        11        11
        17        25        24        24
        22        18        15        15
        22        30        31        31
        30        21        23        23
        16        20        23        23
        22        27        26        26
        10         9         4         4
         7        11        13        13
        25        18        26        26
        11         7         5         5
         5         1         4         4
        17        19        13        13
        23        32        30        30
        23        20        29        29
         4         9         5         5
         4         8        10        10
        26        18        22        22
        26        28        25        25
        13        11        17        17
        13         6         7         7
        31        30        32        32
         2         1         5         5
         2         7         6         6
        14        10         8         8
        24        19        17        17
        24        25        28        28
         9        10        16        16
         3         4         1         1
        33        26        27        27
        12        13        19        19
        21        30        22        22
        16        14        20        20
        16        23        21        21
        22        31        27        27
        18        25        17        17
        26        33        28        28
         4         3         8         8
        23        29        32        32
        13        12         6         6
zone t="boundary 4 bc-4", solutiontime= 0.1000000E+02, strandid=1004, i=32, j=46, f=feblock
  0.125000000000E+01  0.219251206392E+01  0.103724302461E+01  0.500000000000E+01  0.250000000000E+01  0.375000000000E+01  0.404200324774E+01
  0.500000000000E+01  0.000000000000E+00  0.310152362409E+01  0.202479342020E+01  0.324151231464E+01  0.922061490191E+00  0.000000000000E+00
  0.299062775774E+01  0.394624082883E+01  0.500000000000E+01  0.409252726285E+01  0.500000000000E+01  0.429310310915E+01  0.175434191980E+01
  0.284428995242E+01  0.000000000000E+00  0.000000000000E+00  0.715990576545E+00  0.930412228790E+00  0.125000000000E+01  0.187029682677E+01
  0.500000000000E+01  0.375000000000E+01  0.250000000000E+01  0.000000000000E+00
  0.250494197117E+01  0.157686156160E+01  0.146289271009E+01  0.250494197117E+01  0.250494197117E+01  0.250494197117E+01  0.155830813274E+01
  0.125000000000E+01  0.250494197117E+01  0.177790177481E+01  0.477386199275E+00  0.742988685424E+00  0.308372018325E+00  0.125000000000E+01
 -0.487811078581E+00 -0.144524380962E+01 -0.125000000000E+01 -0.345533899378E+00  0.000000000000E+00  0.627766083140E+00 -0.739814786992E+00
 -0.158811787973E+01  0.000000000000E+00 -0.125000000000E+01 -0.600232012419E+00 -0.154800130438E+01 -0.249658903664E+01 -0.178862290564E+01
 -0.249658903664E+01 -0.249658903664E+01 -0.249658903664E+01 -0.249658903664E+01
  0.500000000000E+01  0.500000000000E+01  0.500000000000E+01  0.500000000000E+01  0.500000000000E+01  0.500000000000E+01  0.500000000000E+01
  0.500000000000E+01  0.500000000000E+01  0.500000000000E+01  0.500000000000E+01  0.500000000000E+01  0.500000000000E+01  0.500000000000E+01
  0.500000000000E+01  0.500000000000E+01  0.500000000000E+01  0.500000000000E+01  0.500000000000E+01  0.500000000000E+01  0.500000000000E+01
  0.500000000000E+01  0.500000000000E+01  0.500000000000E+01  0.500000000000E+01  0.500000000000E+01  0.500000000000E+01  0.500000000000E+01
  0.500000000000E+01  0.500000000000E+01  0.500000000000E+01  0.500000000000E+01
  0.488630212220E+00  0.488908716439E+00  0.490613563023E+00  0.492987209122E+00  0.486507800265E+00  0.484614058974E+00  0.485349379989E+00
  0.494165072826E+00  0.495364297290E+00  0.486547191318E+00  0.487827844382E+00  0.487055837589E+00  0.494058544536E+00  0.496127933522E+00
  0.487591516691E+00  0.483167459327E+00  0.492383185910E+00  0.487198277340E+00  0.494738152002E+00  0.487948631654E+00  0.489652457880E+00
  0.487975472983E+00  0.497248722542E+00  0.496055921459E+00  0.494948818827E+00  0.492779385287E+00  0.489961991134E+00  0.489965023644E+00
  0.491321546659E+00  0.486017931588E+00  0.489981935261E+00  0.495091099977E+00
  0.100214792073E+01  0.100152366602E+01  0.100177921758E+01  0.100047555022E+01  0.100126704333E+01  0.100066742194E+01  0.100025486927E+01
  0.100050300652E+01  0.100178631734E+01  0.100112357820E+01  0.100132836583E+01  0.100072276399E+01  0.100164069721E+01  0.100168367826E+01
  0.100096358335E+01  0.100001091236E+01  0.100083203976E+01  0.100022366105E+01  0.100062122326E+01  0.100023363627E+01  0.100174700863E+01
  0.100098998959E+01  0.100118707696E+01  0.100134422954E+01  0.100132700903E+01  0.100179943015E+01  0.100192580062E+01  0.100163765934E+01
  0.100045822703E+01  0.100058944082E+01  0.100110055989E+01  0.100176392267E+01
  0.477743899300E+02  0.450157517998E+02  0.465998133351E+02  0.507693125071E+01  0.432832109351E+02  0.234120970268E+02  0.160327750386E+02
  0.498183993168E+01  0.598247566879E+02  0.353959715950E+02  0.472744206874E+02  0.332114331830E+02  0.542050410466E+02  0.611544140459E+02
  0.365723579210E+02  0.145910052052E+02  0.534054236241E+01  0.189613671594E+02  0.446823146076E+01  0.193007155416E+02  0.568606130486E+02
  0.339409515705E+02  0.649105614072E+02  0.582636504266E+02  0.627595015320E+02  0.506928492609E+02  0.515885551445E+02  0.533303646810E+02
  0.552229814028E+01  0.224303071522E+02  0.444528658983E+02  0.552234697194E+02