title="tecplot geometry and solution file"
variables = x y z mach temperature lambda1 lambda2 lambda3 lambda4 lambda5
zone t="boundary 1 bc-1", solutiontime= 0.5000000E+02, strandid=1001, i=32, j=46, f=feblock
 -0.547468544169E-02  0.000000000000E+00 -0.567606031243E-02  0.000000000000E+00  0.000000000000E+00  0.000000000000E+00 -0.525159244851E-02
 -0.425776897977E-02  0.000000000000E+00  0.000000000000E+00  0.000000000000E+00  0.000000000000E+00  0.000000000000E+00  0.000000000000E+00
  0.000000000000E+00  0.000000000000E+00 -0.338395986572E-02  0.000000000000E+00  0.000000000000E+00  0.000000000000E+00  0.000000000000E+00
  0.000000000000E+00  0.000000000000E+00  0.000000000000E+00  0.000000000000E+00  0.000000000000E+00  0.000000000000E+00  0.000000000000E+00
  0.000000000000E+00  0.000000000000E+00  0.000000000000E+00  0.000000000000E+00
  0.250494197117E+01  0.250494197117E+01  0.127822156907E+01  0.146289271009E+01  0.157686156160E+01  0.308372018325E+00  0.261948602442E-01
 -0.122573481164E+01 -0.600232012419E+00  0.250494197117E+01  0.477386199275E+00  0.742988685424E+00 -0.739814786992E+00  0.177790177481E+01
  0.155830813274E+01  0.250494197117E+01 -0.249658903664E+01 -0.154800130438E+01 -0.487811078581E+00  0.250494197117E+01  0.627766083140E+00
 -0.345533899378E+00 -0.178862290564E+01 -0.158811787973E+01  0.125000000000E+01 -0.249658903664E+01 -0.144524380962E+01  0.000000000000E+00
 -0.125000000000E+01 -0.249658903664E+01 -0.249658903664E+01 -0.249658903664E+01
  0.803813859867E-04  0.125000000000E+01  0.822460170215E-04  0.103724302461E+01  0.219251206392E+01  0.922061490191E+00  0.103872438719E-03
  0.341545874230E-04  0.715990576545E+00  0.250000000000E+01  0.202479342020E+01  0.324151231464E+01  0.175434191980E+01  0.310152362409E+01
  0.404200324774E+01  0.375000000000E+01  0.810725962649E-04  0.930412228790E+00  0.299062775774E+01  0.500000000000E+01  0.429310310915E+01
  0.409252726285E+01  0.187029682677E+01  0.284428995242E+01  0.500000000000E+01  0.125000000000E+01  0.394624082883E+01  0.500000000000E+01
  0.500000000000E+01  0.250000000000E+01  0.375000000000E+01  0.500000000000E+01
  0.000000000000E+00  0.440666214091E+00  0.000000000000E+00  0.474617251435E+00  0.460123126357E+00  0.468636774984E+00  0.000000000000E+00
  0.000000000000E+00  0.402549872254E+00  0.469884091894E+00  0.464193478194E+00  0.478749614938E+00  0.489549465334E+00  0.483128669053E+00
  0.488002259909E+00  0.489034104323E+00  0.000000000000E+00  0.465240564346E+00  0.473760502823E+00  0.495364297290E+00  0.490293371229E+00
  0.486277598054E+00  0.445854520604E+00  0.464358879564E+00  0.496127933522E+00  0.443900347073E+00  0.486930056481E+00  0.497248722542E+00
  0.496055921459E+00  0.467744048732E+00  0.488189258165E+00  0.495091099977E+00
  0.999990300362E+00  0.102983027301E+01  0.999990762612E+00  0.104241479569E+01  0.101187755093E+01  0.102516586953E+01  0.999991420552E+00
  0.999992171067E+00  0.103882587599E+01  0.100825880510E+01  0.101253541373E+01  0.100301664923E+01  0.102705528947E+01  0.100604152563E+01
  0.100244540576E+01  0.100354834274E+01  0.999992724186E+00  0.103209927148E+01  0.100459382920E+01  0.100178631734E+01  0.100260315206E+01
  0.100234717451E+01  0.101657069468E+01  0.100620508927E+01  0.100168367826E+01  0.104024762909E+01  0.100303428499E+01  0.100118707696E+01
  0.100134422954E+01  0.100976315298E+01  0.100405567247E+01  0.100176392267E+01
  0.855166989629E+00  0.538310736394E+01  0.901922536181E+00  0.649804801878E+01  0.375658480314E+01  0.356687401157E+01  0.308226921899E+01
  0.356341283971E+01  0.385025920563E+00  0.181176587353E+01  0.519639491678E+01  0.277094961017E+01  0.630448899068E+01  0.123827270592E+01
  0.125229092578E+02  0.985817607428E+01  0.475817056718E+01  0.371525665007E+01  0.193321240355E+01  0.641711157931E+02  0.185695923049E+02
  0.102437526767E+02  0.523569976605E+01  0.149332417349E+01  0.652588114780E+02  0.690479052323E+01  0.857047699939E+01  0.700067740264E+02
  0.609352952667E+02  0.182390855799E+01  0.819981496744E+01  0.568856237996E+02
  0.280950478359E+00  0.211315098013E+01  0.513497626594E+00  0.235859786651E+01  0.176531686943E+01  0.257725005280E+01  0.418143850453E+00
  0.828310153397E+00  0.190395272100E+01  0.122948344315E+01  0.182737655595E+01  0.960652810072E+00  0.191770951110E+01  0.818757084575E+00
  0.256262611301E+01  0.220786703757E+01  0.490691051182E+00  0.204275811282E+01  0.758538460078E+00  0.132148164686E+02  0.376715653778E+01
  0.203790488217E+01  0.163489397006E+01  0.637095173542E+00  0.136422006942E+02  0.166271084860E+01  0.173713740332E+01  0.146625838014E+02
  0.127224607313E+02  0.813106641474E+00  0.186651200073E+01  0.118224588968E+02
  0.744597638642E-01  0.460160385176E-01 -0.127701886701E+00 -0.329551306880E+00 -0.612556706141E-01 -0.705186637346E+00 -0.336412827436E-01
 -0.407289701395E+00 -0.360624442611E+00  0.120500621910E-01 -0.165022632032E-01  0.398532347321E+00  0.795223110156E-01  0.236860392835E+00
  0.408568828243E+00  0.886443005456E-02 -0.282514013133E+00 -0.692280698863E+00  0.391560140987E+00 -0.162969972333E-01  0.440349441791E+00
  0.334653366182E+00  0.260685552200E+00  0.180960677835E+00  0.112278020743E+00 -0.123467518036E+00  0.177704736398E+00  0.274537987586E+00
  0.164344713177E+00 -0.640452412050E-02 -0.228312679646E-01 -0.154082951483E-01
 -0.858650616628E+00 -0.343920330251E+01 -0.141973231573E+01 -0.356370851357E+01 -0.375015242782E+01 -0.650380694822E+01 -0.104742132958E+01
 -0.169173489644E+01 -0.794253851209E+01 -0.392936920525E+01 -0.339560044921E+01 -0.293427478687E+01 -0.261292401695E+01 -0.347233291793E+01
 -0.225169972413E+01 -0.266051184045E+01 -0.115989296445E+01 -0.652475335794E+01 -0.280319132999E+01 -0.903417244739E+00 -0.186462850738E+01
 -0.196535756237E+01 -0.317757041739E+01 -0.282928883794E+01 -0.839140087776E+00 -0.484280492420E+01 -0.193104638964E+01 -0.756010428318E+00
 -0.906336409747E+00 -0.333969039987E+01 -0.207351746850E+01 -0.927305152025E+00
 -0.407253545998E+00 -0.222738175537E+01 -0.486911462772E+00 -0.268453657388E+01 -0.139742670689E+01 -0.189717444932E+01 -0.439803403489E+00
 -0.738189837264E+00 -0.698911377213E+00 -0.561277708706E+00 -0.184033011113E+01 -0.945423633704E+00 -0.214643311093E+01 -0.308591693848E+00
 -0.491591798989E+01 -0.385175135896E+01 -0.891740705687E+00 -0.176726636929E+01 -0.612611862354E+00 -0.266485207542E+02 -0.744562957961E+01
 -0.396432239425E+01 -0.174225137914E+01 -0.402721122417E+00 -0.271389798994E+02 -0.260716528141E+01 -0.326203143913E+01 -0.291956725237E+02
 -0.253563656580E+02 -0.439323153584E+00 -0.316157154571E+01 -0.236048752966E+02
        12        19        11        11
        11         5        12        12
        10        14         5         5
        19        13        11        11
        19        24        13        13
        30        23        24        24
        19        12        22        22
        28        22        21        21
        11        13         6         6
         7         6         9         9
        15        12        14        14
        18        13        23        23
        15        25        21        21
        27        19        22        22
        18         8         9         9
        27        31        24        24
         4        11         6         6
         5        14        12        12
         4         2         5         5
        21        12        15        15
        14        16        15        15
        24        19        27        27
        22        29        27        27
        23        26        18        18
        17         8        18        18
         5        11         4         4
         6         3         4         4
        26        23        30        30
         5         2        10        10
        16        14        10        10
         3         6         7         7
        21        25        28        28
        29        22        28        28
         6        13         9         9
         2         4         1         1
        31        27        32        32
        25        15        20        20
        24        23        13        13
         8         7         9         9
        13        18         9         9
        31        30        24        24
        12        21        22        22
        29        32        27        27
         3         1         4         4
        26        17        18        18
        16        20        15        15
zone t="boundary 2 bc-2", solutiontime= 0.5000000E+02, strandid=1002, i=33, j=48, f=feblock
  0.500195253374E+01  0.375034811161E+01  0.249861146299E+01  0.288036674177E+01  0.124717526933E+01  0.190856698521E+01  0.326577190273E+01
  0.201394856120E+01 -0.338395986572E-02  0.962374249381E+00  0.500000000000E+01  0.403430190008E+01  0.423029563807E+01  0.500000000000E+01
  0.385439188940E+01  0.500000000000E+01  0.398133433176E+01  0.315200081417E+01  0.266958028869E+01  0.154798029824E+01  0.218327860466E+01
  0.893688440338E+00  0.000000000000E+00  0.699009761768E+00  0.964460899052E+00  0.310303671659E+01  0.000000000000E+00  0.000000000000E+00
  0.125000000000E+01  0.500000000000E+01  0.375000000000E+01  0.250000000000E+01  0.000000000000E+00
 -0.249658903664E+01 -0.249658903664E+01 -0.249658903664E+01 -0.249658903664E+01 -0.249658903664E+01 -0.249658903664E+01 -0.249658903664E+01
 -0.249658903664E+01 -0.249658903664E+01 -0.249658903664E+01 -0.249658903664E+01 -0.249658903664E+01 -0.249658903664E+01 -0.249658903664E+01
 -0.249658903664E+01 -0.249658903664E+01 -0.249658903664E+01 -0.249658903664E+01 -0.249658903664E+01 -0.249658903664E+01 -0.249658903664E+01
 -0.249658903664E+01 -0.249658903664E+01 -0.249658903664E+01 -0.249658903664E+01 -0.249658903664E+01 -0.249658903664E+01 -0.249658903664E+01
 -0.249658903664E+01 -0.249658903664E+01 -0.249658903664E+01 -0.249658903664E+01 -0.249658903664E+01
  0.108225889030E-03  0.145875369682E-03  0.100893326425E-03  0.901663374396E+00  0.110858761917E-03  0.714928318829E+00  0.188140648011E+01
  0.175892165504E+01  0.810725962649E-04  0.957504300331E+00  0.125000000000E+01  0.100596698996E+01  0.191313519089E+01  0.250000000000E+01
  0.292898096716E+01  0.375000000000E+01  0.406883369524E+01  0.363389289944E+01  0.284756860985E+01  0.292582308120E+01  0.395754054931E+01
  0.205027256979E+01  0.125000000000E+01  0.306703272692E+01  0.397155766662E+01  0.433068622168E+01  0.250000000000E+01  0.375000000000E+01
  0.500000000000E+01  0.500000000000E+01  0.500000000000E+01  0.500000000000E+01  0.500000000000E+01
  0.000000000000E+00  0.000000000000E+00  0.000000000000E+00  0.380610262149E+00  0.000000000000E+00  0.343302163911E+00  0.585285498568E+00
  0.579523873721E+00  0.000000000000E+00  0.500979747332E+00  0.508782814017E+00  0.434361560749E+00  0.572843977212E+00  0.537166654001E+00
  0.569106490033E+00  0.515013352172E+00  0.508252450097E+00  0.527349030424E+00  0.567655252726E+00  0.531857855076E+00  0.506012444339E+00
  0.521051129094E+00  0.443900347073E+00  0.490706184896E+00  0.492149786373E+00  0.501385664791E+00  0.467744048732E+00  0.488189258165E+00
  0.489961991134E+00  0.491321546659E+00  0.486017931588E+00  0.489981935261E+00  0.495091099977E+00
  0.999993488485E+00  0.999993690942E+00  0.999993544242E+00  0.989581137391E+00  0.999993139053E+00  0.985581489207E+00  0.989839349776E+00
  0.991729030504E+00  0.999992724186E+00  0.984216351929E+00  0.985140607796E+00  0.984808793931E+00  0.990067211347E+00  0.100292629404E+01
  0.999859927063E+00  0.100487346357E+01  0.100122739133E+01  0.100057008832E+01  0.997888967161E+00  0.100350843654E+01  0.100059307424E+01
  0.101090476404E+01  0.104024762909E+01  0.100327844767E+01  0.100254887617E+01  0.100046793890E+01  0.100976315298E+01  0.100405567247E+01
  0.100192580062E+01  0.100045822703E+01  0.100058944082E+01  0.100110055989E+01  0.100176392267E+01
  0.416031866817E+01  0.628373217399E+01  0.761181003584E+01  0.622717510845E+01  0.463726355338E+01  0.609245776679E+01  0.732353571689E+01
  0.646848621633E+01  0.475817056718E+01  0.649663375533E+01  0.849023407231E+01  0.734230544385E+01  0.779590240346E+01  0.642893701629E+01
  0.518633406550E+01  0.468952214366E+01  0.348724530959E+01  0.415081883883E+01  0.524714548573E+01  0.286632526584E+01  0.547699905888E+01
  0.489753915576E+01  0.690479052323E+01  0.240106555861E+01  0.906983482448E+01  0.660923400608E+01  0.182390855799E+01  0.819981496744E+01
  0.508601145568E+02  0.549533537081E+01  0.222413685798E+02  0.438831194793E+02  0.568856237996E+02
 -0.102749684842E+01 -0.292493263347E+00  0.400170147690E+00  0.181100443861E+01 -0.435676470872E-01  0.207893095969E+01 -0.156060705265E+01
 -0.627943825797E-01  0.490691051182E+00  0.181184443896E+01 -0.185462368998E+01 -0.766838949766E+00 -0.187685047511E+01 -0.167041839558E+01
 -0.169630701590E+01 -0.109747912504E+01 -0.154247820378E+01 -0.150497149923E+01 -0.159879425215E+01 -0.101807718222E+01 -0.810006548061E+00
  0.430832579780E+00  0.166271084860E+01 -0.162973159196E+00  0.791686450759E+00 -0.909435833368E+00  0.813106641474E+00  0.186651200073E+01
  0.902663728490E+01 -0.315438862464E+00  0.216020694110E+01  0.667743330064E+01  0.118224588968E+02
 -0.716883557005E-01 -0.987470351019E-01  0.710460807924E-01  0.399692337673E+00  0.199240786517E+00  0.563782700132E+00 -0.982185361090E-01
 -0.207512855641E+00 -0.282514013133E+00  0.631846614194E-01 -0.206826318325E-01 -0.934751678301E-01  0.218323242734E-01 -0.113077707366E-01
 -0.275193622227E-02  0.141313814229E-01 -0.187022823207E-01  0.213278747399E-02  0.599579440449E-01  0.750626829022E-01 -0.490386738862E-02
  0.107600768004E-02 -0.123467518036E+00 -0.363319338493E-01 -0.401871556720E-01  0.103909104920E-02 -0.640452412050E-02 -0.228312679646E-01
 -0.578473061988E-02 -0.272825143196E-03 -0.610862742719E-03 -0.502594176424E-02 -0.154082951483E-01
 -0.333592759589E+00 -0.116616638093E+01 -0.144724609794E+01 -0.604704641004E+01 -0.131522618388E+01 -0.760821484782E+01 -0.109726311376E+01
 -0.263922704735E+01 -0.115989296445E+01 -0.454403413858E+01 -0.147097134890E+00 -0.135722402049E+01 -0.398243355052E+00 -0.236763817530E+00
 -0.898052711214E+00 -0.322889420629E+00 -0.101259133711E+01 -0.151624056104E+01 -0.171671438770E+01 -0.244452552081E+01 -0.180708157208E+01
 -0.287128493682E+01 -0.484280492420E+01 -0.249700081866E+01 -0.192154764415E+01 -0.153865401095E+01 -0.333969039987E+01 -0.207351746850E+01
 -0.127542859893E+01 -0.589177549801E+00 -0.137186593629E+01 -0.154047156457E+01 -0.927305152025E+00
 -0.535977009717E+00  0.111325577547E-01  0.438166692814E-02 -0.224863031500E+01 -0.132868906752E-01 -0.266085141733E+01 -0.148342706679E+01
 -0.153279963110E+01 -0.891740705687E+00 -0.257349443962E+01 -0.189270273846E+01 -0.176992097756E+01 -0.163330060955E+01 -0.122176309514E+01
 -0.844813870988E+00 -0.948102303081E+00 -0.396745753389E+00 -0.626264471192E+00 -0.947828613586E+00 -0.344345444072E+00 -0.134787778819E+01
 -0.136019868689E+01 -0.260716528141E+01 -0.497733080571E+00 -0.317148663420E+01 -0.172911273509E+01 -0.439323153584E+00 -0.316157154571E+01
 -0.206282201136E+02 -0.164565911990E+01 -0.832208489233E+01 -0.174062833302E+02 -0.236048752966E+02
        15         7        19        19
         8        20        19        19
        18        19        21        21
         7         4         8         8
         3         6         4         4
        19         7         8         8
        19        18        15        15
        14        13        15        15
         8        22        20        20
        27        24        22        22
        19        20        21        21
        32        26        21        21
        17        18        26        26
        17        16        15        15
        25        29        21        21
        12         7        13        13
        10         8         6         6
        25        20        24        24
         4         6         8         8
        12         2         4         4
        10        23        22        22
        26        31        17        17
        30        16        17        17
         4         7        12        12
        13        11        12        12
        21        20        25        25
        24        28        25        25
        22         8        10        10
         6         5        10        10
        31        26        32        32
         4         2         3         3
         5         6         3         3
        11        13        14        14
        22        23        27        27
        28        24        27        27
        15        13         7         7
         2        12         1         1
        29        25        33        33
        23        10         9         9
        21        26        18        18
        16        14        15        15
        18        17        15        15
        29        32        21        21
        22        24        20        20
        28        33        25        25
        11         1        12        12
        31        30        17        17
         5         9        10        10
zone t="boundary 3 bc-3", solutiontime= 0.5000000E+02, strandid=1003, i=33, j=48, f=feblock
  0.375059096892E+01  0.249769609313E+01  0.500322133174E+01  0.403612218725E+01  0.287976772365E+01  0.124541910518E+01  0.190552237404E+01
  0.500000000000E+01  0.326671104552E+01  0.423253755448E+01  0.201271136506E+01 -0.547468544169E-02  0.958895643487E+00  0.500000000000E+01
  0.266968147299E+01  0.385584487271E+01  0.890374214836E+00  0.154654013699E+01  0.000000000000E+00  0.500000000000E+01  0.315261136744E+01
  0.218304199515E+01  0.398195307895E+01  0.000000000000E+00  0.697379952124E+00  0.963757277315E+00  0.125000000000E+01  0.000000000000E+00
  0.500000000000E+01  0.310330738524E+01  0.250000000000E+01  0.375000000000E+01  0.000000000000E+00
  0.250494197117E+01  0.250494197117E+01  0.250494197117E+01  0.250494197117E+01  0.250494197117E+01  0.250494197117E+01  0.250494197117E+01
  0.250494197117E+01  0.250494197117E+01  0.250494197117E+01  0.250494197117E+01  0.250494197117E+01  0.250494197117E+01  0.250494197117E+01
  0.250494197117E+01  0.250494197117E+01  0.250494197117E+01  0.250494197117E+01  0.250494197117E+01  0.250494197117E+01  0.250494197117E+01
  0.250494197117E+01  0.250494197117E+01  0.250494197117E+01  0.250494197117E+01  0.250494197117E+01  0.250494197117E+01  0.250494197117E+01
  0.250494197117E+01  0.250494197117E+01  0.250494197117E+01  0.250494197117E+01  0.250494197117E+01
  0.135649900494E-03  0.110129816467E-03  0.966887303890E-04  0.101756752009E+01  0.908094589218E+00  0.103942505801E-03  0.722629083213E+00
  0.125000000000E+01  0.188965661746E+01  0.191862696980E+01  0.176708239098E+01  0.803813859867E-04  0.969652551954E+00  0.250000000000E+01
  0.285339433501E+01  0.293325058812E+01  0.205656223819E+01  0.293157016932E+01  0.125000000000E+01  0.375000000000E+01  0.363766838842E+01
  0.396069444983E+01  0.407056385475E+01  0.250000000000E+01  0.307031995245E+01  0.397359820314E+01  0.500000000000E+01  0.375000000000E+01
  0.500000000000E+01  0.433260781310E+01  0.500000000000E+01  0.500000000000E+01  0.500000000000E+01
  0.000000000000E+00  0.000000000000E+00  0.000000000000E+00  0.444930326687E+00  0.402807304829E+00  0.000000000000E+00  0.379033816204E+00
  0.508818740007E+00  0.575701380330E+00  0.573472074602E+00  0.562547829758E+00  0.000000000000E+00  0.491637802825E+00  0.534336813543E+00
  0.556352181579E+00  0.564140551432E+00  0.522485305911E+00  0.521817734730E+00  0.440666214091E+00  0.517132977413E+00  0.524068294234E+00
  0.503616120436E+00  0.509419881731E+00  0.469884091894E+00  0.495645014420E+00  0.494503343531E+00  0.488630212220E+00  0.489034104323E+00
  0.492987209122E+00  0.498957573931E+00  0.486507800265E+00  0.484614058974E+00  0.495364297290E+00
  0.999989345567E+00  0.999989414891E+00  0.999989632591E+00  0.981380974378E+00  0.988680684584E+00  0.999989832933E+00  0.982276351823E+00
  0.984074897465E+00  0.990406099424E+00  0.990319064682E+00  0.994391010835E+00  0.999990300362E+00  0.988748587757E+00  0.100365238200E+01
  0.999773192633E+00  0.100117376381E+01  0.100830261588E+01  0.100251270964E+01  0.102983027301E+01  0.100441979611E+01  0.100199190108E+01
  0.100081961865E+01  0.100137906157E+01  0.100825880510E+01  0.100297440226E+01  0.100191721483E+01  0.100214792073E+01  0.100354834274E+01
  0.100047555022E+01  0.100056537700E+01  0.100126704333E+01  0.100066742194E+01  0.100178631734E+01
  0.969224522553E+01  0.304897802114E+01  0.984060577359E+01  0.840663760131E+01  0.802547450417E+01  0.167415907274E+01  0.712395431531E+01
  0.111122899443E+02  0.907025882753E+01  0.951947348733E+01  0.806291126623E+01  0.855166989629E+00  0.788545479334E+01  0.764457531293E+01
  0.638323374778E+01  0.676126106796E+01  0.630454622656E+01  0.397687465186E+01  0.538310736394E+01  0.535051065110E+01  0.458455344450E+01
  0.522528276614E+01  0.411664309967E+01  0.181176587353E+01  0.278507168675E+01  0.129140673442E+02  0.470106223162E+02  0.985817607428E+01
  0.507343605446E+01  0.656997788744E+01  0.433321393533E+02  0.230853937040E+02  0.641711157931E+02
  0.655964698522E+00  0.903688780702E+00 -0.178489462715E+01  0.293546400231E+01  0.521586431900E+01  0.129400934485E+00  0.416289621474E+01
 -0.244810086242E+01 -0.150083994407E+01 -0.250990551480E+01  0.129518951443E+01  0.280950478359E+00  0.326347557595E+01 -0.202097458424E+01
 -0.126577288908E+01 -0.168560476827E+01  0.204085531435E+01 -0.432708481090E+00  0.211315098013E+01 -0.132699740859E+01 -0.148842076980E+01
 -0.974018977127E+00 -0.154768518758E+01  0.122948344315E+01  0.372909014859E+00  0.155608107022E+01  0.826553921158E+01  0.220786703757E+01
 -0.496426499283E+00 -0.100490739288E+01  0.659648495001E+01  0.219457675586E+01  0.132148164686E+02
 -0.171183742364E+00 -0.151111542253E+00  0.141271463725E+00 -0.802048416319E+00 -0.977340665776E+00 -0.982137901223E-01 -0.888991059486E-01
  0.634924479703E-01  0.206210888209E+00  0.244741849554E-01  0.201443615381E+00  0.744597638642E-01  0.161633911623E-02 -0.208072599804E-01
 -0.216934764754E-01  0.310925373424E-01 -0.464798586090E-01 -0.110783116662E+00  0.460160385176E-01 -0.270869955070E-01 -0.113620497930E-01
  0.168546053632E-01  0.585964774681E-02  0.120500621910E-01  0.523129486221E-01  0.779809593982E-01 -0.204083329977E-01  0.886443005456E-02
 -0.147697066175E-01 -0.129856258429E-02 -0.733160680834E-02 -0.224098913683E-02 -0.162969972333E-01
 -0.229243805645E+01 -0.164160750672E+01 -0.139895976143E+01 -0.859783298782E+01 -0.886499715949E+01 -0.119246294437E+01 -0.638222009928E+01
 -0.747559163066E+00 -0.293898302884E+01 -0.108730186536E+01 -0.396036292013E+01 -0.858650616628E+00 -0.393157048429E+01 -0.415276647943E+00
 -0.269462794316E+01 -0.141773926443E+01 -0.392769024003E+01 -0.344398812623E+01 -0.343920330251E+01 -0.468025441745E+00 -0.184977447538E+01
 -0.225195776748E+01 -0.123061487137E+01 -0.392936920525E+01 -0.350176194244E+01 -0.234710147243E+01 -0.140512717767E+01 -0.266051184045E+01
 -0.585616972819E+00 -0.173306208649E+01 -0.163934217908E+01 -0.145546069994E+01 -0.903417244739E+00
 -0.111860904053E-01 -0.726346947701E-01 -0.114359024028E+01 -0.333491083181E+01 -0.388257040849E+01 -0.690689983790E-01 -0.368343417954E+01
 -0.252157775339E+01 -0.194916592350E+01 -0.189691113783E+01 -0.239021308497E+01 -0.407253545998E+00 -0.335190998782E+01 -0.144495267883E+01
 -0.142444839448E+01 -0.134814954498E+01 -0.226277935452E+01 -0.860042346849E+00 -0.222738175537E+01 -0.104733406447E+01 -0.746340586763E+00
 -0.118400544733E+01 -0.590305167018E+00 -0.561277708706E+00 -0.750569197748E+00 -0.475709070126E+01 -0.189745739277E+02 -0.385175135896E+01
 -0.142240431073E+01 -0.166276512678E+01 -0.171619834434E+02 -0.861292522281E+01 -0.266485207542E+02
        15         9        16        16
        15        18        11        11
        22        15        21        21
        11         5         9         9
         5         7         2         2
        11         9        15        15
        16        21        15        15
        16        10        14        14
        18        17        11        11
        17        25        24        24
        22        18        15        15
        22        30        31        31
        30        21        23        23
        16        20        23        23
        22        27        26        26
        10         9         4         4
         7        11        13        13
        25        18        26        26
        11         7         5         5
         5         1         4         4
        17        19        13        13
        23        32        30        30
        23        20        29        29
         4         9         5         5
         4         8        10        10
        26        18        22        22
        26        28        25        25
        13        11        17        17
        13         6         7         7
        31        30        32        32
         2         1         5         5
         2         7         6         6
        14        10         8         8
        24        19        17        17
        24        25        28        28
         9        10        16        16
         3         4         1         1
        33        26        27        27
        12        13        19        19
        21        30        22        22
        16        14        20        20
        16        23        21        21
        22        31        27        27
        18        25        17        17
        26        33        28        28
         4         3         8         8
        23        29        32        32
        13        12         6         6
zone t="boundary 4 bc-4", solutiontime= 0.5000000E+02, strandid=1004, i=32, j=46, f=feblock
  0.125000000000E+01  0.219251206392E+01  0.103724302461E+01  0.500000000000E+01  0.250000000000E+01  0.375000000000E+01  0.404200324774E+01
  0.500000000000E+01  0.000000000000E+00  0.310152362409E+01  0.202479342020E+01  0.324151231464E+01  0.922061490191E+00  0.000000000000E+00
  0.299062775774E+01  0.394624082883E+01  0.500000000000E+01  0.409252726285E+01  0.500000000000E+01  0.429310310915E+01  0.175434191980E+01
  0.284428995242E+01  0.000000000000E+00  0.000000000000E+00  0.715990576545E+00  0.930412228790E+00  0.125000000000E+01  0.187029682677E+01
  0.500000000000E+01  0.375000000000E+01  0.250000000000E+01  0.000000000000E+00
  0.250494197117E+01  0.157686156160E+01  0.146289271009E+01  0.250494197117E+01  0.250494197117E+01  0.250494197117E+01  0.155830813274E+01
  0.125000000000E+01  0.250494197117E+01  0.177790177481E+01  0.477386199275E+00  0.742988685424E+00  0.308372018325E+00  0.125000000000E+01
 -0.487811078581E+00 -0.144524380962E+01 -0.125000000000E+01 -0.345533899378E+00  0.000000000000E+00  0.627766083140E+00 -0.739814786992E+00
 -0.158811787973E+01  0.000000000000E+00 -0.125000000000E+01 -0.600232012419E+00 -0.154800130438E+01 -0.249658903664E+01 -0.178862290564E+01
 -0.249658903664E+01 -0.249658903664E+01 -0.249658903664E+01 -0.249658903664E+01
  0.500000000000E+01  0.500000000000E+01  0.500000000000E+01  0.500000000000E+01  0.500000000000E+01  0.500000000000E+01  0.500000000000E+01
  0.500000000000E+01  0.500000000000E+01  0.500000000000E+01  0.500000000000E+01  0.500000000000E+01  0.500000000000E+01  0.500000000000E+01
  0.500000000000E+01  0.500000000000E+01  0.500000000000E+01  0.500000000000E+01  0.500000000000E+01  0.500000000000E+01  0.500000000000E+01
  0.500000000000E+01  0.500000000000E+01  0.500000000000E+01  0.500000000000E+01  0.500000000000E+01  0.500000000000E+01  0.500000000000E+01
  0.500000000000E+01  0.500000000000E+01  0.500000000000E+01  0.500000000000E+01
  0.488630212220E+00  0.488908716439E+00  0.490613563023E+00  0.492987209122E+00  0.486507800265E+00  0.484614058974E+00  0.485349379989E+00
  0.494165072826E+00  0.495364297290E+00  0.486547191318E+00  0.487827844382E+00  0.487055837589E+00  0.494058544536E+00  0.496127933522E+00
  0.487591516691E+00  0.483167459327E+00  0.492383185910E+00  0.487198277340E+00  0.494738152002E+00  0.487948631654E+00  0.489652457880E+00
  0.487975472983E+00  0.497248722542E+00  0.496055921459E+00  0.494948818827E+00  0.492779385287E+00  0.489961991134E+00  0.489965023644E+00
  0.491321546659E+00  0.486017931588E+00  0.489981935261E+00  0.495091099977E+00
  0.100214792073E+01  0.100152366602E+01  0.100177921758E+01  0.100047555022E+01  0.100126704333E+01  0.100066742194E+01  0.100025486927E+01
  0.100050300652E+01  0.100178631734E+01  0.100112357820E+01  0.100132836583E+01  0.100072276399E+01  0.100164069721E+01  0.100168367826E+01
  0.100096358335E+01  0.100001091236E+01  0.100083203976E+01  0.100022366105E+01  0.100062122326E+01  0.100023363627E+01  0.100174700863E+01
  0.100098998959E+01  0.100118707696E+01  0.100134422954E+01  0.100132700903E+01  0.100179943015E+01  0.100192580062E+01  0.100163765934E+01
  0.100045822703E+01  0.100058944082E+01  0.100110055989E+01  0.100176392267E+01
  0.470106223162E+02  0.451369463712E+02  0.472596866080E+02  0.507343605446E+01  0.433321393533E+02  0.230853937040E+02  0.158787032899E+02
  0.499546110223E+01  0.641711157931E+02  0.355305687506E+02  0.473996499816E+02  0.328546642603E+02  0.565737897718E+02  0.652588114780E+02
  0.364431323783E+02  0.145590916583E+02  0.533506680633E+01  0.187451335662E+02  0.449336885769E+01  0.191748799980E+02  0.575129646270E+02
  0.341103767627E+02  0.700067740264E+02  0.609352952667E+02  0.649557302475E+02  0.508839356852E+02  0.508601145568E+02  0.533324346895E+02
  0.549533537081E+01  0.222413685798E+02  0.438831194793E+02  0.568856237996E+02