title="tecplot geometry and solution file"
variables = x y z mach temperature lambda1 lambda2 lambda3 lambda4 lambda5
zone t="boundary 1 bc-1", solutiontime= 0.6000000E+02, strandid=1001, i=32, j=46, f=feblock
 -0.547468544169E-02  0.000000000000E+00 -0.567606031243E-02  0.000000000000E+00  0.000000000000E+00  0.000000000000E+00 -0.525159244851E-02
 -0.425776897977E-02  0.000000000000E+00  0.000000000000E+00  0.000000000000E+00  0.000000000000E+00  0.000000000000E+00  0.000000000000E+00
  0.000000000000E+00  0.000000000000E+00 -0.338395986572E-02  0.000000000000E+00  0.000000000000E+00  0.000000000000E+00  0.000000000000E+00
  0.000000000000E+00  0.000000000000E+00  0.000000000000E+00  0.000000000000E+00  0.000000000000E+00  0.000000000000E+00  0.000000000000E+00
  0.000000000000E+00  0.000000000000E+00  0.000000000000E+00  0.000000000000E+00
  0.250494197117E+01  0.250494197117E+01  0.127822156907E+01  0.146289271009E+01  0.157686156160E+01  0.308372018325E+00  0.261948602442E-01
 -0.122573481164E+01 -0.600232012419E+00  0.250494197117E+01  0.477386199275E+00  0.742988685424E+00 -0.739814786992E+00  0.177790177481E+01
  0.155830813274E+01  0.250494197117E+01 -0.249658903664E+01 -0.154800130438E+01 -0.487811078581E+00  0.250494197117E+01  0.627766083140E+00
 -0.345533899378E+00 -0.178862290564E+01 -0.158811787973E+01  0.125000000000E+01 -0.249658903664E+01 -0.144524380962E+01  0.000000000000E+00
 -0.125000000000E+01 -0.249658903664E+01 -0.249658903664E+01 -0.249658903664E+01
  0.803813859867E-04  0.125000000000E+01  0.822460170215E-04  0.103724302461E+01  0.219251206392E+01  0.922061490191E+00  0.103872438719E-03
  0.341545874230E-04  0.715990576545E+00  0.250000000000E+01  0.202479342020E+01  0.324151231464E+01  0.175434191980E+01  0.310152362409E+01
  0.404200324774E+01  0.375000000000E+01  0.810725962649E-04  0.930412228790E+00  0.299062775774E+01  0.500000000000E+01  0.429310310915E+01
  0.409252726285E+01  0.187029682677E+01  0.284428995242E+01  0.500000000000E+01  0.125000000000E+01  0.394624082883E+01  0.500000000000E+01
  0.500000000000E+01  0.250000000000E+01  0.375000000000E+01  0.500000000000E+01
  0.000000000000E+00  0.440666214091E+00  0.000000000000E+00  0.474617251435E+00  0.460123126357E+00  0.468636774984E+00  0.000000000000E+00
  0.000000000000E+00  0.402549872254E+00  0.469884091894E+00  0.464193478194E+00  0.478749614938E+00  0.489549465334E+00  0.483128669053E+00
  0.488002259909E+00  0.489034104323E+00  0.000000000000E+00  0.465240564346E+00  0.473760502823E+00  0.495364297290E+00  0.490293371229E+00
  0.486277598054E+00  0.445854520604E+00  0.464358879564E+00  0.496127933522E+00  0.443900347073E+00  0.486930056481E+00  0.497248722542E+00
  0.496055921459E+00  0.467744048732E+00  0.488189258165E+00  0.495091099977E+00
  0.999990300362E+00  0.102983027301E+01  0.999990762612E+00  0.104241479569E+01  0.101187755093E+01  0.102516586953E+01  0.999991420552E+00
  0.999992171067E+00  0.103882587599E+01  0.100825880510E+01  0.101253541373E+01  0.100301664923E+01  0.102705528947E+01  0.100604152563E+01
  0.100244540576E+01  0.100354834274E+01  0.999992724186E+00  0.103209927148E+01  0.100459382920E+01  0.100178631734E+01  0.100260315206E+01
  0.100234717451E+01  0.101657069468E+01  0.100620508927E+01  0.100168367826E+01  0.104024762909E+01  0.100303428499E+01  0.100118707696E+01
  0.100134422954E+01  0.100976315298E+01  0.100405567247E+01  0.100176392267E+01
  0.855167026957E+00  0.538310804563E+01  0.901922400677E+00  0.649804836847E+01  0.375658469192E+01  0.356687331462E+01  0.308226924052E+01
  0.356341289718E+01  0.385026409808E+00  0.181176548828E+01  0.519639510529E+01  0.277094842690E+01  0.630449033331E+01  0.123827281970E+01
  0.125229105993E+02  0.985817644746E+01  0.475817063566E+01  0.371525792432E+01  0.193321097217E+01  0.641711134405E+02  0.185695958546E+02
  0.102437548684E+02  0.523569938697E+01  0.149332439011E+01  0.652588076953E+02  0.690478725509E+01  0.857047802039E+01  0.700067680593E+02
  0.609352938914E+02  0.182390852103E+01  0.819981577875E+01  0.568856216450E+02
  0.280950477811E+00  0.211315114862E+01  0.513497630731E+00  0.235859797077E+01  0.176531688119E+01  0.257724983006E+01  0.418143844555E+00
  0.828310152273E+00  0.190395276450E+01  0.122948340541E+01  0.182737657939E+01  0.960652550518E+00  0.191770979487E+01  0.818757123595E+00
  0.256262635253E+01  0.220786713628E+01  0.490691052595E+00  0.204275831974E+01  0.758538150236E+00  0.132148160454E+02  0.376715742331E+01
  0.203790555196E+01  0.163489392155E+01  0.637095205576E+00  0.136421999436E+02  0.166271029708E+01  0.173713751015E+01  0.146625824949E+02
  0.127224605252E+02  0.813106656088E+00  0.186651211892E+01  0.118224586206E+02
  0.744597781852E-01  0.460160407737E-01 -0.127701879745E+00 -0.329551184125E+00 -0.612555976625E-01 -0.705186565523E+00 -0.336412991946E-01
 -0.407289707332E+00 -0.360624361163E+00  0.120500652094E-01 -0.165022526344E-01  0.398532303723E+00  0.795222671669E-01  0.236860415140E+00
  0.408568864436E+00  0.886444088722E-02 -0.282514019626E+00 -0.692280769590E+00  0.391560086456E+00 -0.162969904164E-01  0.440349529080E+00
  0.334653353343E+00  0.260685464054E+00  0.180960661074E+00  0.112277975206E+00 -0.123467525161E+00  0.177704684716E+00  0.274538042731E+00
  0.164344763504E+00 -0.640452156264E-02 -0.228312728804E-01 -0.154082992145E-01
 -0.858650622069E+00 -0.343920329980E+01 -0.141973228071E+01 -0.356370842530E+01 -0.375015235237E+01 -0.650380681708E+01 -0.104742132566E+01
 -0.169173490210E+01 -0.794253847202E+01 -0.392936920667E+01 -0.339560040323E+01 -0.293427490833E+01 -0.261292403581E+01 -0.347233297728E+01
 -0.225169973237E+01 -0.266051180337E+01 -0.115989296753E+01 -0.652475333338E+01 -0.280319137803E+01 -0.903417232467E+00 -0.186462837086E+01
 -0.196535749518E+01 -0.317757045866E+01 -0.282928889432E+01 -0.839139997026E+00 -0.484280499186E+01 -0.193104635498E+01 -0.756010263501E+00
 -0.906336363483E+00 -0.333969045748E+01 -0.207351736552E+01 -0.927305144492E+00
 -0.407253588600E+00 -0.222738204811E+01 -0.486911301113E+00 -0.268453672516E+01 -0.139742667125E+01 -0.189717415317E+01 -0.439803401135E+00
 -0.738189854810E+00 -0.698911567245E+00 -0.561277558376E+00 -0.184033019801E+01 -0.945423128011E+00 -0.214643367794E+01 -0.308591750138E+00
 -0.491591857486E+01 -0.385175153455E+01 -0.891740739853E+00 -0.176726688855E+01 -0.612611251110E+00 -0.266485197592E+02 -0.744563115261E+01
 -0.396432339818E+01 -0.174225122500E+01 -0.402721210615E+00 -0.271389783063E+02 -0.260716393702E+01 -0.326203186290E+01 -0.291956699881E+02
 -0.253563650797E+02 -0.439323144621E+00 -0.316157189850E+01 -0.236048743985E+02
        12        19        11        11
        11         5        12        12
        10        14         5         5
        19        13        11        11
        19        24        13        13
        30        23        24        24
        19        12        22        22
        28        22        21        21
        11        13         6         6
         7         6         9         9
        15        12        14        14
        18        13        23        23
        15        25        21        21
        27        19        22        22
        18         8         9         9
        27        31        24        24
         4        11         6         6
         5        14        12        12
         4         2         5         5
        21        12        15        15
        14        16        15        15
        24        19        27        27
        22        29        27        27
        23        26        18        18
        17         8        18        18
         5        11         4         4
         6         3         4         4
        26        23        30        30
         5         2        10        10
        16        14        10        10
         3         6         7         7
        21        25        28        28
        29        22        28        28
         6        13         9         9
         2         4         1         1
        31        27        32        32
        25        15        20        20
        24        23        13        13
         8         7         9         9
        13        18         9         9
        31        30        24        24
        12        21        22        22
        29        32        27        27
         3         1         4         4
        26        17        18        18
        16        20        15        15
zone t="boundary 2 bc-2", solutiontime= 0.6000000E+02, strandid=1002, i=33, j=48, f=feblock
  0.500195253374E+01  0.375034811161E+01  0.249861146299E+01  0.288036674177E+01  0.124717526933E+01  0.190856698521E+01  0.326577190273E+01
  0.201394856120E+01 -0.338395986572E-02  0.962374249381E+00  0.500000000000E+01  0.403430190008E+01  0.423029563807E+01  0.500000000000E+01
  0.385439188940E+01  0.500000000000E+01  0.398133433176E+01  0.315200081417E+01  0.266958028869E+01  0.154798029824E+01  0.218327860466E+01
  0.893688440338E+00  0.000000000000E+00  0.699009761768E+00  0.964460899052E+00  0.310303671659E+01  0.000000000000E+00  0.000000000000E+00
  0.125000000000E+01  0.500000000000E+01  0.375000000000E+01  0.250000000000E+01  0.000000000000E+00
 -0.249658903664E+01 -0.249658903664E+01 -0.249658903664E+01 -0.249658903664E+01 -0.249658903664E+01 -0.249658903664E+01 -0.249658903664E+01
 -0.249658903664E+01 -0.249658903664E+01 -0.249658903664E+01 -0.249658903664E+01 -0.249658903664E+01 -0.249658903664E+01 -0.249658903664E+01
 -0.249658903664E+01 -0.249658903664E+01 -0.249658903664E+01 -0.249658903664E+01 -0.249658903664E+01 -0.249658903664E+01 -0.249658903664E+01
 -0.249658903664E+01 -0.249658903664E+01 -0.249658903664E+01 -0.249658903664E+01 -0.249658903664E+01 -0.249658903664E+01 -0.249658903664E+01
 -0.249658903664E+01 -0.249658903664E+01 -0.249658903664E+01 -0.249658903664E+01 -0.249658903664E+01
  0.108225889030E-03  0.145875369682E-03  0.100893326425E-03  0.901663374396E+00  0.110858761917E-03  0.714928318829E+00  0.188140648011E+01
  0.175892165504E+01  0.810725962649E-04  0.957504300331E+00  0.125000000000E+01  0.100596698996E+01  0.191313519089E+01  0.250000000000E+01
  0.292898096716E+01  0.375000000000E+01  0.406883369524E+01  0.363389289944E+01  0.284756860985E+01  0.292582308120E+01  0.395754054931E+01
  0.205027256979E+01  0.125000000000E+01  0.306703272692E+01  0.397155766662E+01  0.433068622168E+01  0.250000000000E+01  0.375000000000E+01
  0.500000000000E+01  0.500000000000E+01  0.500000000000E+01  0.500000000000E+01  0.500000000000E+01
  0.000000000000E+00  0.000000000000E+00  0.000000000000E+00  0.380610262149E+00  0.000000000000E+00  0.343302163911E+00  0.585285498568E+00
  0.579523873721E+00  0.000000000000E+00  0.500979747332E+00  0.508782814017E+00  0.434361560749E+00  0.572843977212E+00  0.537166654001E+00
  0.569106490033E+00  0.515013352172E+00  0.508252450097E+00  0.527349030424E+00  0.567655252726E+00  0.531857855076E+00  0.506012444339E+00
  0.521051129094E+00  0.443900347073E+00  0.490706184896E+00  0.492149786373E+00  0.501385664791E+00  0.467744048732E+00  0.488189258165E+00
  0.489961991134E+00  0.491321546659E+00  0.486017931588E+00  0.489981935261E+00  0.495091099977E+00
  0.999993488485E+00  0.999993690942E+00  0.999993544242E+00  0.989581137391E+00  0.999993139053E+00  0.985581489207E+00  0.989839349776E+00
  0.991729030504E+00  0.999992724186E+00  0.984216351929E+00  0.985140607796E+00  0.984808793931E+00  0.990067211347E+00  0.100292629404E+01
  0.999859927063E+00  0.100487346357E+01  0.100122739133E+01  0.100057008832E+01  0.997888967161E+00  0.100350843654E+01  0.100059307424E+01
  0.101090476404E+01  0.104024762909E+01  0.100327844767E+01  0.100254887617E+01  0.100046793890E+01  0.100976315298E+01  0.100405567247E+01
  0.100192580062E+01  0.100045822703E+01  0.100058944082E+01  0.100110055989E+01  0.100176392267E+01
  0.416031865421E+01  0.628373216643E+01  0.761181002026E+01  0.622717484807E+01  0.463726358314E+01  0.609245848532E+01  0.732353569842E+01
  0.646848603337E+01  0.475817063566E+01  0.649663380715E+01  0.849023407833E+01  0.734230514246E+01  0.779590240698E+01  0.642893700055E+01
  0.518633404211E+01  0.468952216459E+01  0.348724521975E+01  0.415081886076E+01  0.524714522283E+01  0.286632494050E+01  0.547699942936E+01
  0.489753899374E+01  0.690478725509E+01  0.240106548598E+01  0.906983568413E+01  0.660923416897E+01  0.182390852103E+01  0.819981577875E+01
  0.508601139753E+02  0.549533533463E+01  0.222413685677E+02  0.438831197011E+02  0.568856216450E+02
 -0.102749684575E+01 -0.292493264329E+00  0.400170145379E+00  0.181100439500E+01 -0.435676571519E-01  0.207893106599E+01 -0.156060704110E+01
 -0.627944130977E-01  0.490691052595E+00  0.181184442379E+01 -0.185462367652E+01 -0.766839004105E+00 -0.187685046314E+01 -0.167041839120E+01
 -0.169630701430E+01 -0.109747911904E+01 -0.154247822354E+01 -0.150497149806E+01 -0.159879429584E+01 -0.101807723566E+01 -0.810006492059E+00
  0.430832661547E+00  0.166271029708E+01 -0.162973144260E+00  0.791686575517E+00 -0.909435813255E+00  0.813106656088E+00  0.186651211892E+01
  0.902663706879E+01 -0.315438865141E+00  0.216020696021E+01  0.667743338675E+01  0.118224586206E+02
 -0.716883542207E-01 -0.987470344144E-01  0.710460806055E-01  0.399692333566E+00  0.199240780932E+00  0.563782699882E+00 -0.982185380060E-01
 -0.207512856291E+00 -0.282514019626E+00  0.631846659190E-01 -0.206826318252E-01 -0.934751704752E-01  0.218323243755E-01 -0.113077704814E-01
 -0.275193655975E-02  0.141313817744E-01 -0.187022840389E-01  0.213278676181E-02  0.599579426244E-01  0.750626825816E-01 -0.490386469805E-02
  0.107602737701E-02 -0.123467525161E+00 -0.363319244110E-01 -0.401871586114E-01  0.103909088826E-02 -0.640452156264E-02 -0.228312728804E-01
 -0.578473542059E-02 -0.272825337052E-03 -0.610863069350E-03 -0.502593876780E-02 -0.154082992145E-01
 -0.333592759964E+00 -0.116616638190E+01 -0.144724609582E+01 -0.604704638870E+01 -0.131522619101E+01 -0.760821480548E+01 -0.109726310990E+01
 -0.263922704990E+01 -0.115989296753E+01 -0.454403413500E+01 -0.147097134238E+00 -0.135722401062E+01 -0.398243356375E+00 -0.236763816017E+00
 -0.898052705170E+00 -0.322889421095E+00 -0.101259134098E+01 -0.151624055531E+01 -0.171671438834E+01 -0.244452552157E+01 -0.180708156131E+01
 -0.287128487086E+01 -0.484280499186E+01 -0.249700080846E+01 -0.192154760723E+01 -0.153865400642E+01 -0.333969045748E+01 -0.207351736552E+01
 -0.127542860195E+01 -0.589177549092E+00 -0.137186593142E+01 -0.154047156279E+01 -0.927305144492E+00
 -0.535977004871E+00  0.111325570570E-01  0.438167813158E-02 -0.224863020651E+01 -0.132868990293E-01 -0.266085171885E+01 -0.148342706598E+01
 -0.153279955515E+01 -0.891740739853E+00 -0.257349445032E+01 -0.189270274683E+01 -0.176992085093E+01 -0.163330061612E+01 -0.122176309227E+01
 -0.844813865031E+00 -0.948102313092E+00 -0.396745715808E+00 -0.626264481171E+00 -0.947828504153E+00 -0.344345310819E+00 -0.134787794404E+01
 -0.136019864969E+01 -0.260716393702E+01 -0.497733054314E+00 -0.317148699218E+01 -0.172911280323E+01 -0.439323144621E+00 -0.316157189850E+01
 -0.206282198409E+02 -0.164565910690E+01 -0.832208489373E+01 -0.174062834319E+02 -0.236048743985E+02
        15         7        19        19
         8        20        19        19
        18        19        21        21
         7         4         8         8
         3         6         4         4
        19         7         8         8
        19        18        15        15
        14        13        15        15
         8        22        20        20
        27        24        22        22
        19        20        21        21
        32        26        21        21
        17        18        26        26
        17        16        15        15
        25        29        21        21
        12         7        13        13
        10         8         6         6
        25        20        24        24
         4         6         8         8
        12         2         4         4
        10        23        22        22
        26        31        17        17
        30        16        17        17
         4         7        12        12
        13        11        12        12
        21        20        25        25
        24        28        25        25
        22         8        10        10
         6         5        10        10
        31        26        32        32
         4         2         3         3
         5         6         3         3
        11        13        14        14
        22        23        27        27
        28        24        27        27
        15        13         7         7
         2        12         1         1
        29        25        33        33
        23        10         9         9
        21        26        18        18
        16        14        15        15
        18        17        15        15
        29        32        21        21
        22        24        20        20
        28        33        25        25
        11         1        12        12
        31        30        17        17
         5         9        10        10
zone t="boundary 3 bc-3", solutiontime= 0.6000000E+02, strandid=1003, i=33, j=48, f=feblock
  0.375059096892E+01  0.249769609313E+01  0.500322133174E+01  0.403612218725E+01  0.287976772365E+01  0.124541910518E+01  0.190552237404E+01
  0.500000000000E+01  0.326671104552E+01  0.423253755448E+01  0.201271136506E+01 -0.547468544169E-02  0.958895643487E+00  0.500000000000E+01
  0.266968147299E+01  0.385584487271E+01  0.890374214836E+00  0.154654013699E+01  0.000000000000E+00  0.500000000000E+01  0.315261136744E+01
  0.218304199515E+01  0.398195307895E+01  0.000000000000E+00  0.697379952124E+00  0.963757277315E+00  0.125000000000E+01  0.000000000000E+00
  0.500000000000E+01  0.310330738524E+01  0.250000000000E+01  0.375000000000E+01  0.000000000000E+00
  0.250494197117E+01  0.250494197117E+01  0.250494197117E+01  0.250494197117E+01  0.250494197117E+01  0.250494197117E+01  0.250494197117E+01
  0.250494197117E+01  0.250494197117E+01  0.250494197117E+01  0.250494197117E+01  0.250494197117E+01  0.250494197117E+01  0.250494197117E+01
  0.250494197117E+01  0.250494197117E+01  0.250494197117E+01  0.250494197117E+01  0.250494197117E+01  0.250494197117E+01  0.250494197117E+01
  0.250494197117E+01  0.250494197117E+01  0.250494197117E+01  0.250494197117E+01  0.250494197117E+01  0.250494197117E+01  0.250494197117E+01
  0.250494197117E+01  0.250494197117E+01  0.250494197117E+01  0.250494197117E+01  0.250494197117E+01
  0.135649900494E-03  0.110129816467E-03  0.966887303890E-04  0.101756752009E+01  0.908094589218E+00  0.103942505801E-03  0.722629083213E+00
  0.125000000000E+01  0.188965661746E+01  0.191862696980E+01  0.176708239098E+01  0.803813859867E-04  0.969652551954E+00  0.250000000000E+01
  0.285339433501E+01  0.293325058812E+01  0.205656223819E+01  0.293157016932E+01  0.125000000000E+01  0.375000000000E+01  0.363766838842E+01
  0.396069444983E+01  0.407056385475E+01  0.250000000000E+01  0.307031995245E+01  0.397359820314E+01  0.500000000000E+01  0.375000000000E+01
  0.500000000000E+01  0.433260781310E+01  0.500000000000E+01  0.500000000000E+01  0.500000000000E+01
  0.000000000000E+00  0.000000000000E+00  0.000000000000E+00  0.444930326687E+00  0.402807304829E+00  0.000000000000E+00  0.379033816204E+00
  0.508818740007E+00  0.575701380330E+00  0.573472074602E+00  0.562547829758E+00  0.000000000000E+00  0.491637802825E+00  0.534336813543E+00
  0.556352181579E+00  0.564140551432E+00  0.522485305911E+00  0.521817734730E+00  0.440666214091E+00  0.517132977413E+00  0.524068294234E+00
  0.503616120436E+00  0.509419881731E+00  0.469884091894E+00  0.495645014420E+00  0.494503343531E+00  0.488630212220E+00  0.489034104323E+00
  0.492987209122E+00  0.498957573931E+00  0.486507800265E+00  0.484614058974E+00  0.495364297290E+00
  0.999989345567E+00  0.999989414891E+00  0.999989632591E+00  0.981380974378E+00  0.988680684584E+00  0.999989832933E+00  0.982276351823E+00
  0.984074897465E+00  0.990406099424E+00  0.990319064682E+00  0.994391010835E+00  0.999990300362E+00  0.988748587757E+00  0.100365238200E+01
  0.999773192633E+00  0.100117376381E+01  0.100830261588E+01  0.100251270964E+01  0.102983027301E+01  0.100441979611E+01  0.100199190108E+01
  0.100081961865E+01  0.100137906157E+01  0.100825880510E+01  0.100297440226E+01  0.100191721483E+01  0.100214792073E+01  0.100354834274E+01
  0.100047555022E+01  0.100056537700E+01  0.100126704333E+01  0.100066742194E+01  0.100178631734E+01
  0.969224510942E+01  0.304897800339E+01  0.984060576251E+01  0.840663671528E+01  0.802547589317E+01  0.167415909230E+01  0.712395598317E+01
  0.111122900568E+02  0.907025848291E+01  0.951947361340E+01  0.806291114376E+01  0.855167026957E+00  0.788545586323E+01  0.764457526660E+01
  0.638323379585E+01  0.676126111268E+01  0.630454616981E+01  0.397687468869E+01  0.538310804563E+01  0.535051066053E+01  0.458455333872E+01
  0.522528304182E+01  0.411664303100E+01  0.181176548828E+01  0.278507152582E+01  0.129140673268E+02  0.470106223181E+02  0.985817644746E+01
  0.507343601326E+01  0.656997798886E+01  0.433321391954E+02  0.230853938102E+02  0.641711134405E+02
  0.655964690189E+00  0.903688763911E+00 -0.178489461461E+01  0.293546402614E+01  0.521586479603E+01  0.129400919723E+00  0.416289675714E+01
 -0.244810080928E+01 -0.150084003167E+01 -0.250990546314E+01  0.129518958723E+01  0.280950477811E+00  0.326347598842E+01 -0.202097458825E+01
 -0.126577289012E+01 -0.168560474535E+01  0.204085543303E+01 -0.432708503470E+00  0.211315114862E+01 -0.132699739979E+01 -0.148842078102E+01
 -0.974018909727E+00 -0.154768519751E+01  0.122948340541E+01  0.372909096845E+00  0.155608104572E+01  0.826553906611E+01  0.220786713628E+01
 -0.496426505932E+00 -0.100490735088E+01  0.659648494189E+01  0.219457678027E+01  0.132148160454E+02
 -0.171183743312E+00 -0.151111541590E+00  0.141271468372E+00 -0.802048425361E+00 -0.977340691348E+00 -0.982137874385E-01 -0.888991168469E-01
  0.634924470502E-01  0.206210894963E+00  0.244741831187E-01  0.201443618064E+00  0.744597781852E-01  0.161631688333E-02 -0.208072600377E-01
 -0.216934748892E-01  0.310925373967E-01 -0.464798789248E-01 -0.110783116550E+00  0.460160407737E-01 -0.270869953517E-01 -0.113620493987E-01
  0.168546010455E-01  0.585964769188E-02  0.120500652094E-01  0.523129430351E-01  0.779809640672E-01 -0.204083364535E-01  0.886444088722E-02
 -0.147697067561E-01 -0.129856248475E-02 -0.733161200585E-02 -0.224098865341E-02 -0.162969904164E-01
 -0.229243804395E+01 -0.164160752575E+01 -0.139895976480E+01 -0.859783294969E+01 -0.886499720532E+01 -0.119246295908E+01 -0.638222018377E+01
 -0.747559181463E+00 -0.293898302592E+01 -0.108730186265E+01 -0.396036293070E+01 -0.858650622069E+00 -0.393157057267E+01 -0.415276644888E+00
 -0.269462793747E+01 -0.141773925760E+01 -0.392769031591E+01 -0.344398813911E+01 -0.343920329980E+01 -0.468025442034E+00 -0.184977447532E+01
 -0.225195774559E+01 -0.123061487125E+01 -0.392936920667E+01 -0.350176197353E+01 -0.234710143089E+01 -0.140512715393E+01 -0.266051180337E+01
 -0.585616973051E+00 -0.173306208094E+01 -0.163934217899E+01 -0.145546069123E+01 -0.903417232467E+00
 -0.111860570803E-01 -0.726347121242E-01 -0.114359026086E+01 -0.333491049967E+01 -0.388257104297E+01 -0.690690237870E-01 -0.368343494411E+01
 -0.252157781797E+01 -0.194916576859E+01 -0.189691120236E+01 -0.239021304706E+01 -0.407253588600E+00 -0.335191048080E+01 -0.144495266242E+01
 -0.142444841480E+01 -0.134814956978E+01 -0.226277935154E+01 -0.860042355438E+00 -0.222738204811E+01 -0.104733407201E+01 -0.746340544867E+00
 -0.118400556830E+01 -0.590305140428E+00 -0.561277558376E+00 -0.750569146576E+00 -0.475709069471E+01 -0.189745739029E+02 -0.385175153455E+01
 -0.142240429418E+01 -0.166276517714E+01 -0.171619833767E+02 -0.861292527062E+01 -0.266485197592E+02
        15         9        16        16
        15        18        11        11
        22        15        21        21
        11         5         9         9
         5         7         2         2
        11         9        15        15
        16        21        15        15
        16        10        14        14
        18        17        11        11
        17        25        24        24
        22        18        15        15
        22        30        31        31
        30        21        23        23
        16        20        23        23
        22        27        26        26
        10         9         4         4
         7        11        13        13
        25        18        26        26
        11         7         5         5
         5         1         4         4
        17        19        13        13
        23        32        30        30
        23        20        29        29
         4         9         5         5
         4         8        10        10
        26        18        22        22
        26        28        25        25
        13        11        17        17
        13         6         7         7
        31        30        32        32
         2         1         5         5
         2         7         6         6
        14        10         8         8
        24        19        17        17
        24        25        28        28
         9        10        16        16
         3         4         1         1
        33        26        27        27
        12        13        19        19
        21        30        22        22
        16        14        20        20
        16        23        21        21
        22        31        27        27
        18        25        17        17
        26        33        28        28
         4         3         8         8
        23        29        32        32
        13        12         6         6
zone t="boundary 4 bc-4", solutiontime= 0.6000000E+02, strandid=1004, i=32, j=46, f=feblock
  0.125000000000E+01  0.219251206392E+01  0.103724302461E+01  0.500000000000E+01  0.250000000000E+01  0.375000000000E+01  0.404200324774E+01
  0.500000000000E+01  0.000000000000E+00  0.310152362409E+01  0.202479342020E+01  0.324151231464E+01  0.922061490191E+00  0.000000000000E+00
  0.299062775774E+01  0.394624082883E+01  0.500000000000E+01  0.409252726285E+01  0.500000000000E+01  0.429310310915E+01  0.175434191980E+01
  0.284428995242E+01  0.000000000000E+00  0.000000000000E+00  0.715990576545E+00  0.930412228790E+00  0.125000000000E+01  0.187029682677E+01
  0.500000000000E+01  0.375000000000E+01  0.250000000000E+01  0.000000000000E+00
  0.250494197117E+01  0.157686156160E+01  0.146289271009E+01  0.250494197117E+01  0.250494197117E+01  0.250494197117E+01  0.155830813274E+01
  0.125000000000E+01  0.250494197117E+01  0.177790177481E+01  0.477386199275E+00  0.742988685424E+00  0.308372018325E+00  0.125000000000E+01
 -0.487811078581E+00 -0.144524380962E+01 -0.125000000000E+01 -0.345533899378E+00  0.000000000000E+00  0.627766083140E+00 -0.739814786992E+00
 -0.158811787973E+01  0.000000000000E+00 -0.125000000000E+01 -0.600232012419E+00 -0.154800130438E+01 -0.249658903664E+01 -0.178862290564E+01
 -0.249658903664E+01 -0.249658903664E+01 -0.249658903664E+01 -0.249658903664E+01
  0.500000000000E+01  0.500000000000E+01  0.500000000000E+01  0.500000000000E+01  0.500000000000E+01  0.500000000000E+01  0.500000000000E+01
  0.500000000000E+01  0.500000000000E+01  0.500000000000E+01  0.500000000000E+01  0.500000000000E+01  0.500000000000E+01  0.500000000000E+01
  0.500000000000E+01  0.500000000000E+01  0.500000000000E+01  0.500000000000E+01  0.500000000000E+01  0.500000000000E+01  0.500000000000E+01
  0.500000000000E+01  0.500000000000E+01  0.500000000000E+01  0.500000000000E+01  0.500000000000E+01  0.500000000000E+01  0.500000000000E+01
  0.500000000000E+01  0.500000000000E+01  0.500000000000E+01  0.500000000000E+01
  0.488630212220E+00  0.488908716439E+00  0.490613563023E+00  0.492987209122E+00  0.486507800265E+00  0.484614058974E+00  0.485349379989E+00
  0.494165072826E+00  0.495364297290E+00  0.486547191318E+00  0.487827844382E+00  0.487055837589E+00  0.494058544536E+00  0.496127933522E+00
  0.487591516691E+00  0.483167459327E+00  0.492383185910E+00  0.487198277340E+00  0.494738152002E+00  0.487948631654E+00  0.489652457880E+00
  0.487975472983E+00  0.497248722542E+00  0.496055921459E+00  0.494948818827E+00  0.492779385287E+00  0.489961991134E+00  0.489965023644E+00
  0.491321546659E+00  0.486017931588E+00  0.489981935261E+00  0.495091099977E+00
  0.100214792073E+01  0.100152366602E+01  0.100177921758E+01  0.100047555022E+01  0.100126704333E+01  0.100066742194E+01  0.100025486927E+01
  0.100050300652E+01  0.100178631734E+01  0.100112357820E+01  0.100132836583E+01  0.100072276399E+01  0.100164069721E+01  0.100168367826E+01
  0.100096358335E+01  0.100001091236E+01  0.100083203976E+01  0.100022366105E+01  0.100062122326E+01  0.100023363627E+01  0.100174700863E+01
  0.100098998959E+01  0.100118707696E+01  0.100134422954E+01  0.100132700903E+01  0.100179943015E+01  0.100192580062E+01  0.100163765934E+01
  0.100045822703E+01  0.100058944082E+01  0.100110055989E+01  0.100176392267E+01
  0.470106223181E+02  0.451369456455E+02  0.472596864214E+02  0.507343601326E+01  0.433321391954E+02  0.230853938102E+02  0.158787033837E+02
  0.499546106812E+01  0.641711134405E+02  0.355305684471E+02  0.473996503000E+02  0.328546638543E+02  0.565737884688E+02  0.652588076953E+02
  0.364431317117E+02  0.145590916947E+02  0.533506675519E+01  0.187451336212E+02  0.449336884712E+01  0.191748799822E+02  0.575129631301E+02
  0.341103759981E+02  0.700067680593E+02  0.609352938914E+02  0.649557304761E+02  0.508839350545E+02  0.508601139753E+02  0.533324338145E+02
  0.549533533463E+01  0.222413685677E+02  0.438831197011E+02  0.568856216450E+02