title="tecplot geometry and solution file"
variables = x y z mach temperature lambda1 lambda2 lambda3 lambda4 lambda5
zone t="boundary 1 bc-1", solutiontime= 0.3000000E+02, strandid=1001, i=32, j=46, f=feblock
 -0.547468544169E-02  0.000000000000E+00 -0.567606031243E-02  0.000000000000E+00  0.000000000000E+00  0.000000000000E+00 -0.525159244851E-02
 -0.425776897977E-02  0.000000000000E+00  0.000000000000E+00  0.000000000000E+00  0.000000000000E+00  0.000000000000E+00  0.000000000000E+00
  0.000000000000E+00  0.000000000000E+00 -0.338395986572E-02  0.000000000000E+00  0.000000000000E+00  0.000000000000E+00  0.000000000000E+00
  0.000000000000E+00  0.000000000000E+00  0.000000000000E+00  0.000000000000E+00  0.000000000000E+00  0.000000000000E+00  0.000000000000E+00
  0.000000000000E+00  0.000000000000E+00  0.000000000000E+00  0.000000000000E+00
  0.250494197117E+01  0.250494197117E+01  0.127822156907E+01  0.146289271009E+01  0.157686156160E+01  0.308372018325E+00  0.261948602442E-01
 -0.122573481164E+01 -0.600232012419E+00  0.250494197117E+01  0.477386199275E+00  0.742988685424E+00 -0.739814786992E+00  0.177790177481E+01
  0.155830813274E+01  0.250494197117E+01 -0.249658903664E+01 -0.154800130438E+01 -0.487811078581E+00  0.250494197117E+01  0.627766083140E+00
 -0.345533899378E+00 -0.178862290564E+01 -0.158811787973E+01  0.125000000000E+01 -0.249658903664E+01 -0.144524380962E+01  0.000000000000E+00
 -0.125000000000E+01 -0.249658903664E+01 -0.249658903664E+01 -0.249658903664E+01
  0.803813859867E-04  0.125000000000E+01  0.822460170215E-04  0.103724302461E+01  0.219251206392E+01  0.922061490191E+00  0.103872438719E-03
  0.341545874230E-04  0.715990576545E+00  0.250000000000E+01  0.202479342020E+01  0.324151231464E+01  0.175434191980E+01  0.310152362409E+01
  0.404200324774E+01  0.375000000000E+01  0.810725962649E-04  0.930412228790E+00  0.299062775774E+01  0.500000000000E+01  0.429310310915E+01
  0.409252726285E+01  0.187029682677E+01  0.284428995242E+01  0.500000000000E+01  0.125000000000E+01  0.394624082883E+01  0.500000000000E+01
  0.500000000000E+01  0.250000000000E+01  0.375000000000E+01  0.500000000000E+01
  0.000000000000E+00  0.440666214091E+00  0.000000000000E+00  0.474617251435E+00  0.460123126357E+00  0.468636774984E+00  0.000000000000E+00
  0.000000000000E+00  0.402549872254E+00  0.469884091894E+00  0.464193478194E+00  0.478749614938E+00  0.489549465334E+00  0.483128669053E+00
  0.488002259909E+00  0.489034104323E+00  0.000000000000E+00  0.465240564346E+00  0.473760502823E+00  0.495364297290E+00  0.490293371229E+00
  0.486277598054E+00  0.445854520604E+00  0.464358879564E+00  0.496127933522E+00  0.443900347073E+00  0.486930056481E+00  0.497248722542E+00
  0.496055921459E+00  0.467744048732E+00  0.488189258165E+00  0.495091099977E+00
  0.999990300362E+00  0.102983027301E+01  0.999990762612E+00  0.104241479569E+01  0.101187755093E+01  0.102516586953E+01  0.999991420552E+00
  0.999992171067E+00  0.103882587599E+01  0.100825880510E+01  0.101253541373E+01  0.100301664923E+01  0.102705528947E+01  0.100604152563E+01
  0.100244540576E+01  0.100354834274E+01  0.999992724186E+00  0.103209927148E+01  0.100459382920E+01  0.100178631734E+01  0.100260315206E+01
  0.100234717451E+01  0.101657069468E+01  0.100620508927E+01  0.100168367826E+01  0.104024762909E+01  0.100303428499E+01  0.100118707696E+01
  0.100134422954E+01  0.100976315298E+01  0.100405567247E+01  0.100176392267E+01
  0.855104398353E+00  0.538248976166E+01  0.901878393876E+00  0.649798982699E+01  0.375749272019E+01  0.356685027833E+01  0.308223140752E+01
  0.356333003860E+01  0.384906393435E+00  0.181189159277E+01  0.519729780396E+01  0.276975679717E+01  0.630564439484E+01  0.123782693907E+01
  0.125233408860E+02  0.985631479327E+01  0.475816599341E+01  0.371400936482E+01  0.193281533338E+01  0.641722567020E+02  0.185694094200E+02
  0.102394651806E+02  0.523578980386E+01  0.149406981125E+01  0.652603134665E+02  0.690441088183E+01  0.856992192699E+01  0.700116024636E+02
  0.609386065207E+02  0.182404710026E+01  0.819957887678E+01  0.568857435377E+02
  0.280950035181E+00  0.211303545794E+01  0.513496001473E+00  0.235860211550E+01  0.176549070620E+01  0.257725892678E+01  0.418133736169E+00
  0.828317161149E+00  0.190392606854E+01  0.122951713830E+01  0.182754367357E+01  0.960388592931E+00  0.191798274242E+01  0.818715580463E+00
  0.256302176887E+01  0.220755170033E+01  0.490704435759E+00  0.204255403751E+01  0.758400725967E+00  0.132146287378E+02  0.376736821668E+01
  0.203710175704E+01  0.163490591669E+01  0.637277016203E+00  0.136421833464E+02  0.166262581860E+01  0.173716095771E+01  0.146631453369E+02
  0.127229973272E+02  0.813127474069E+00  0.186652098045E+01  0.118223080327E+02
  0.744636380305E-01  0.460204295525E-01 -0.127711046439E+00 -0.329588918608E+00 -0.612318912177E-01 -0.705223073588E+00 -0.336394221088E-01
 -0.407296064236E+00 -0.360642771297E+00  0.120541762255E-01 -0.165030286293E-01  0.398476655282E+00  0.794928568643E-01  0.236883303142E+00
  0.408578121717E+00  0.886751029459E-02 -0.282517527393E+00 -0.692331259233E+00  0.391555190692E+00 -0.162921957883E-01  0.440187083691E+00
  0.334549687663E+00  0.260658946297E+00  0.180938281406E+00  0.112342700576E+00 -0.123465289799E+00  0.177681478378E+00  0.274828533359E+00
  0.164526507243E+00 -0.640385937525E-02 -0.228281498823E-01 -0.154080364032E-01
 -0.858637146391E+00 -0.343915660050E+01 -0.141971964588E+01 -0.356363562129E+01 -0.375010672666E+01 -0.650379211914E+01 -0.104741783750E+01
 -0.169172092832E+01 -0.794253153135E+01 -0.392937059891E+01 -0.339561479921E+01 -0.293421895538E+01 -0.261296483498E+01 -0.347228276875E+01
 -0.225175409786E+01 -0.266065432677E+01 -0.115989599345E+01 -0.652481957119E+01 -0.280318893107E+01 -0.903317769053E+00 -0.186482637389E+01
 -0.196556122959E+01 -0.317754930175E+01 -0.282922536459E+01 -0.839089649981E+00 -0.484281584984E+01 -0.193100283321E+01 -0.755992955251E+00
 -0.906349601561E+00 -0.333961623214E+01 -0.207350478358E+01 -0.927297840646E+00
 -0.407194646717E+00 -0.222712912530E+01 -0.486855866113E+00 -0.268451875168E+01 -0.139780988245E+01 -0.189717250384E+01 -0.439805107159E+00
 -0.738120017083E+00 -0.698875715345E+00 -0.561340102454E+00 -0.184070890437E+01 -0.944921432627E+00 -0.214692202424E+01 -0.308416444390E+00
 -0.491616364255E+01 -0.385096479510E+01 -0.891750949554E+00 -0.176676155260E+01 -0.612441785318E+00 -0.266489519888E+02 -0.744559349048E+01
 -0.396250955754E+01 -0.174228698495E+01 -0.403036028333E+00 -0.271395719081E+02 -0.260701252389E+01 -0.326181729082E+01 -0.291976629569E+02
 -0.253577573330E+02 -0.439383827275E+00 -0.316147729597E+01 -0.236049082206E+02
        12        19        11        11
        11         5        12        12
        10        14         5         5
        19        13        11        11
        19        24        13        13
        30        23        24        24
        19        12        22        22
        28        22        21        21
        11        13         6         6
         7         6         9         9
        15        12        14        14
        18        13        23        23
        15        25        21        21
        27        19        22        22
        18         8         9         9
        27        31        24        24
         4        11         6         6
         5        14        12        12
         4         2         5         5
        21        12        15        15
        14        16        15        15
        24        19        27        27
        22        29        27        27
        23        26        18        18
        17         8        18        18
         5        11         4         4
         6         3         4         4
        26        23        30        30
         5         2        10        10
        16        14        10        10
         3         6         7         7
        21        25        28        28
        29        22        28        28
         6        13         9         9
         2         4         1         1
        31        27        32        32
        25        15        20        20
        24        23        13        13
         8         7         9         9
        13        18         9         9
        31        30        24        24
        12        21        22        22
        29        32        27        27
         3         1         4         4
        26        17        18        18
        16        20        15        15
zone t="boundary 2 bc-2", solutiontime= 0.3000000E+02, strandid=1002, i=33, j=48, f=feblock
  0.500195253374E+01  0.375034811161E+01  0.249861146299E+01  0.288036674177E+01  0.124717526933E+01  0.190856698521E+01  0.326577190273E+01
  0.201394856120E+01 -0.338395986572E-02  0.962374249381E+00  0.500000000000E+01  0.403430190008E+01  0.423029563807E+01  0.500000000000E+01
  0.385439188940E+01  0.500000000000E+01  0.398133433176E+01  0.315200081417E+01  0.266958028869E+01  0.154798029824E+01  0.218327860466E+01
  0.893688440338E+00  0.000000000000E+00  0.699009761768E+00  0.964460899052E+00  0.310303671659E+01  0.000000000000E+00  0.000000000000E+00
  0.125000000000E+01  0.500000000000E+01  0.375000000000E+01  0.250000000000E+01  0.000000000000E+00
 -0.249658903664E+01 -0.249658903664E+01 -0.249658903664E+01 -0.249658903664E+01 -0.249658903664E+01 -0.249658903664E+01 -0.249658903664E+01
 -0.249658903664E+01 -0.249658903664E+01 -0.249658903664E+01 -0.249658903664E+01 -0.249658903664E+01 -0.249658903664E+01 -0.249658903664E+01
 -0.249658903664E+01 -0.249658903664E+01 -0.249658903664E+01 -0.249658903664E+01 -0.249658903664E+01 -0.249658903664E+01 -0.249658903664E+01
 -0.249658903664E+01 -0.249658903664E+01 -0.249658903664E+01 -0.249658903664E+01 -0.249658903664E+01 -0.249658903664E+01 -0.249658903664E+01
 -0.249658903664E+01 -0.249658903664E+01 -0.249658903664E+01 -0.249658903664E+01 -0.249658903664E+01
  0.108225889030E-03  0.145875369682E-03  0.100893326425E-03  0.901663374396E+00  0.110858761917E-03  0.714928318829E+00  0.188140648011E+01
  0.175892165504E+01  0.810725962649E-04  0.957504300331E+00  0.125000000000E+01  0.100596698996E+01  0.191313519089E+01  0.250000000000E+01
  0.292898096716E+01  0.375000000000E+01  0.406883369524E+01  0.363389289944E+01  0.284756860985E+01  0.292582308120E+01  0.395754054931E+01
  0.205027256979E+01  0.125000000000E+01  0.306703272692E+01  0.397155766662E+01  0.433068622168E+01  0.250000000000E+01  0.375000000000E+01
  0.500000000000E+01  0.500000000000E+01  0.500000000000E+01  0.500000000000E+01  0.500000000000E+01
  0.000000000000E+00  0.000000000000E+00  0.000000000000E+00  0.380610262149E+00  0.000000000000E+00  0.343302163911E+00  0.585285498568E+00
  0.579523873721E+00  0.000000000000E+00  0.500979747332E+00  0.508782814017E+00  0.434361560749E+00  0.572843977212E+00  0.537166654001E+00
  0.569106490033E+00  0.515013352172E+00  0.508252450097E+00  0.527349030424E+00  0.567655252726E+00  0.531857855076E+00  0.506012444339E+00
  0.521051129094E+00  0.443900347073E+00  0.490706184896E+00  0.492149786373E+00  0.501385664791E+00  0.467744048732E+00  0.488189258165E+00
  0.489961991134E+00  0.491321546659E+00  0.486017931588E+00  0.489981935261E+00  0.495091099977E+00
  0.999993488485E+00  0.999993690942E+00  0.999993544242E+00  0.989581137391E+00  0.999993139053E+00  0.985581489207E+00  0.989839349776E+00
  0.991729030504E+00  0.999992724186E+00  0.984216351929E+00  0.985140607796E+00  0.984808793931E+00  0.990067211347E+00  0.100292629404E+01
  0.999859927063E+00  0.100487346357E+01  0.100122739133E+01  0.100057008832E+01  0.997888967161E+00  0.100350843654E+01  0.100059307424E+01
  0.101090476404E+01  0.104024762909E+01  0.100327844767E+01  0.100254887617E+01  0.100046793890E+01  0.100976315298E+01  0.100405567247E+01
  0.100192580062E+01  0.100045822703E+01  0.100058944082E+01  0.100110055989E+01  0.100176392267E+01
  0.416032216898E+01  0.628373116332E+01  0.761179289452E+01  0.622705574778E+01  0.463727524403E+01  0.609265789016E+01  0.732354861650E+01
  0.646858146088E+01  0.475816599341E+01  0.649710142646E+01  0.849021948515E+01  0.734244862166E+01  0.779588432860E+01  0.642894133913E+01
  0.518634092012E+01  0.468951785691E+01  0.348722281730E+01  0.415081387019E+01  0.524713692705E+01  0.286594294150E+01  0.547684304351E+01
  0.489692909828E+01  0.690441088183E+01  0.240095221161E+01  0.907019444056E+01  0.660915434909E+01  0.182404710026E+01  0.819957887678E+01
  0.508618910186E+02  0.549536261145E+01  0.222414822589E+02  0.438834480485E+02  0.568857435377E+02
 -0.102749829743E+01 -0.292490771020E+00  0.400168397049E+00  0.181100320841E+01 -0.435694362544E-01  0.207895958958E+01 -0.156060306983E+01
 -0.627813177389E-01  0.490704435759E+00  0.181194787789E+01 -0.185462759955E+01 -0.766802585734E+00 -0.187685754860E+01 -0.167041894982E+01
 -0.169630986809E+01 -0.109747805297E+01 -0.154246972061E+01 -0.150495544211E+01 -0.159883520629E+01 -0.101820906775E+01 -0.809961997415E+00
  0.430667336532E+00  0.166262581860E+01 -0.162975300744E+00  0.791842595935E+00 -0.909393271020E+00  0.813127474069E+00  0.186652098045E+01
  0.902680315542E+01 -0.315439053260E+00  0.216019877442E+01  0.667735445636E+01  0.118223080327E+02
 -0.716887754697E-01 -0.987477775488E-01  0.710459380705E-01  0.399692500256E+00  0.199247654442E+00  0.563789270198E+00 -0.982173900492E-01
 -0.207512358493E+00 -0.282517527393E+00  0.632003691599E-01 -0.206829284017E-01 -0.934738965869E-01  0.218325434211E-01 -0.113078634699E-01
 -0.275170372928E-02  0.141310731764E-01 -0.187019717898E-01  0.213226921018E-02  0.599564898088E-01  0.750614000293E-01 -0.490694149346E-02
  0.108240454844E-02 -0.123465289799E+00 -0.363294087532E-01 -0.401839784357E-01  0.104005645640E-02 -0.640385937525E-02 -0.228281498823E-01
 -0.578201556286E-02 -0.273160168014E-03 -0.610928737479E-03 -0.502587790920E-02 -0.154080364032E-01
 -0.333592953081E+00 -0.116616654993E+01 -0.144724368856E+01 -0.604704362652E+01 -0.131523041967E+01 -0.760823217697E+01 -0.109726514490E+01
 -0.263921500655E+01 -0.115989599345E+01 -0.454405661780E+01 -0.147097992912E+00 -0.135723388520E+01 -0.398242120550E+00 -0.236764666707E+00
 -0.898059003696E+00 -0.322888734402E+00 -0.101258693060E+01 -0.151624887161E+01 -0.171672576089E+01 -0.244454716033E+01 -0.180705272709E+01
 -0.287131902472E+01 -0.484281584984E+01 -0.249698419254E+01 -0.192150398281E+01 -0.153861349843E+01 -0.333961623214E+01 -0.207350478358E+01
 -0.127543292710E+01 -0.589182172472E+00 -0.137186929994E+01 -0.154049333534E+01 -0.927297840646E+00
 -0.535981915177E+00  0.111295300918E-01  0.438681506685E-02 -0.224858300580E+01 -0.132908871625E-01 -0.266093752125E+01 -0.148343245009E+01
 -0.153283791323E+01 -0.891750949554E+00 -0.257369774669E+01 -0.189269621004E+01 -0.176998484901E+01 -0.163329132452E+01 -0.122176411472E+01
 -0.844814387038E+00 -0.948101541968E+00 -0.396739451491E+00 -0.626263836346E+00 -0.947814626573E+00 -0.344165310323E+00 -0.134782746981E+01
 -0.135993177834E+01 -0.260701252389E+01 -0.497686299331E+00 -0.317165576193E+01 -0.172909424742E+01 -0.439383827275E+00 -0.316147729597E+01
 -0.206289311200E+02 -0.164566764172E+01 -0.832212349331E+01 -0.174063836414E+02 -0.236049082206E+02
        15         7        19        19
         8        20        19        19
        18        19        21        21
         7         4         8         8
         3         6         4         4
        19         7         8         8
        19        18        15        15
        14        13        15        15
         8        22        20        20
        27        24        22        22
        19        20        21        21
        32        26        21        21
        17        18        26        26
        17        16        15        15
        25        29        21        21
        12         7        13        13
        10         8         6         6
        25        20        24        24
         4         6         8         8
        12         2         4         4
        10        23        22        22
        26        31        17        17
        30        16        17        17
         4         7        12        12
        13        11        12        12
        21        20        25        25
        24        28        25        25
        22         8        10        10
         6         5        10        10
        31        26        32        32
         4         2         3         3
         5         6         3         3
        11        13        14        14
        22        23        27        27
        28        24        27        27
        15        13         7         7
         2        12         1         1
        29        25        33        33
        23        10         9         9
        21        26        18        18
        16        14        15        15
        18        17        15        15
        29        32        21        21
        22        24        20        20
        28        33        25        25
        11         1        12        12
        31        30        17        17
         5         9        10        10
zone t="boundary 3 bc-3", solutiontime= 0.3000000E+02, strandid=1003, i=33, j=48, f=feblock
  0.375059096892E+01  0.249769609313E+01  0.500322133174E+01  0.403612218725E+01  0.287976772365E+01  0.124541910518E+01  0.190552237404E+01
  0.500000000000E+01  0.326671104552E+01  0.423253755448E+01  0.201271136506E+01 -0.547468544169E-02  0.958895643487E+00  0.500000000000E+01
  0.266968147299E+01  0.385584487271E+01  0.890374214836E+00  0.154654013699E+01  0.000000000000E+00  0.500000000000E+01  0.315261136744E+01
  0.218304199515E+01  0.398195307895E+01  0.000000000000E+00  0.697379952124E+00  0.963757277315E+00  0.125000000000E+01  0.000000000000E+00
  0.500000000000E+01  0.310330738524E+01  0.250000000000E+01  0.375000000000E+01  0.000000000000E+00
  0.250494197117E+01  0.250494197117E+01  0.250494197117E+01  0.250494197117E+01  0.250494197117E+01  0.250494197117E+01  0.250494197117E+01
  0.250494197117E+01  0.250494197117E+01  0.250494197117E+01  0.250494197117E+01  0.250494197117E+01  0.250494197117E+01  0.250494197117E+01
  0.250494197117E+01  0.250494197117E+01  0.250494197117E+01  0.250494197117E+01  0.250494197117E+01  0.250494197117E+01  0.250494197117E+01
  0.250494197117E+01  0.250494197117E+01  0.250494197117E+01  0.250494197117E+01  0.250494197117E+01  0.250494197117E+01  0.250494197117E+01
  0.250494197117E+01  0.250494197117E+01  0.250494197117E+01  0.250494197117E+01  0.250494197117E+01
  0.135649900494E-03  0.110129816467E-03  0.966887303890E-04  0.101756752009E+01  0.908094589218E+00  0.103942505801E-03  0.722629083213E+00
  0.125000000000E+01  0.188965661746E+01  0.191862696980E+01  0.176708239098E+01  0.803813859867E-04  0.969652551954E+00  0.250000000000E+01
  0.285339433501E+01  0.293325058812E+01  0.205656223819E+01  0.293157016932E+01  0.125000000000E+01  0.375000000000E+01  0.363766838842E+01
  0.396069444983E+01  0.407056385475E+01  0.250000000000E+01  0.307031995245E+01  0.397359820314E+01  0.500000000000E+01  0.375000000000E+01
  0.500000000000E+01  0.433260781310E+01  0.500000000000E+01  0.500000000000E+01  0.500000000000E+01
  0.000000000000E+00  0.000000000000E+00  0.000000000000E+00  0.444930326687E+00  0.402807304829E+00  0.000000000000E+00  0.379033816204E+00
  0.508818740007E+00  0.575701380330E+00  0.573472074602E+00  0.562547829758E+00  0.000000000000E+00  0.491637802825E+00  0.534336813543E+00
  0.556352181579E+00  0.564140551432E+00  0.522485305911E+00  0.521817734730E+00  0.440666214091E+00  0.517132977413E+00  0.524068294234E+00
  0.503616120436E+00  0.509419881731E+00  0.469884091894E+00  0.495645014420E+00  0.494503343531E+00  0.488630212220E+00  0.489034104323E+00
  0.492987209122E+00  0.498957573931E+00  0.486507800265E+00  0.484614058974E+00  0.495364297290E+00
  0.999989345567E+00  0.999989414891E+00  0.999989632591E+00  0.981380974378E+00  0.988680684584E+00  0.999989832933E+00  0.982276351823E+00
  0.984074897465E+00  0.990406099424E+00  0.990319064682E+00  0.994391010835E+00  0.999990300362E+00  0.988748587757E+00  0.100365238200E+01
  0.999773192633E+00  0.100117376381E+01  0.100830261588E+01  0.100251270964E+01  0.102983027301E+01  0.100441979611E+01  0.100199190108E+01
  0.100081961865E+01  0.100137906157E+01  0.100825880510E+01  0.100297440226E+01  0.100191721483E+01  0.100214792073E+01  0.100354834274E+01
  0.100047555022E+01  0.100056537700E+01  0.100126704333E+01  0.100066742194E+01  0.100178631734E+01
  0.969230544064E+01  0.304896375221E+01  0.984060643592E+01  0.840686846721E+01  0.802440707461E+01  0.167414707477E+01  0.712359717053E+01
  0.111122528157E+02  0.907040179290E+01  0.951940427137E+01  0.806286583315E+01  0.855104398353E+00  0.788426172916E+01  0.764458749489E+01
  0.638321690103E+01  0.676124999257E+01  0.630425565705E+01  0.397719481514E+01  0.538248976166E+01  0.535050339072E+01  0.458456952995E+01
  0.522530228596E+01  0.411670413250E+01  0.181189159277E+01  0.278512689601E+01  0.129136937480E+02  0.470116412348E+02  0.985631479327E+01
  0.507344673846E+01  0.656976564574E+01  0.433322627781E+02  0.230855250958E+02  0.641722567020E+02
  0.655970447895E+00  0.903692230571E+00 -0.178489906535E+01  0.293542467348E+01  0.521560044667E+01  0.129420558879E+00  0.416279148374E+01
 -0.244811177720E+01 -0.150080689943E+01 -0.250992530522E+01  0.129514099621E+01  0.280950035181E+00  0.326320777058E+01 -0.202097275668E+01
 -0.126579391206E+01 -0.168561180031E+01  0.204082421959E+01 -0.432610821305E+00  0.211303545794E+01 -0.132700223153E+01 -0.148843150318E+01
 -0.973968202761E+00 -0.154767046986E+01  0.122951713830E+01  0.373045171035E+00  0.155602882568E+01  0.826587772115E+01  0.220755170033E+01
 -0.496429738040E+00 -0.100491844262E+01  0.659631409816E+01  0.219459404257E+01  0.132146287378E+02
 -0.171181752287E+00 -0.151112060532E+00  0.141269601517E+00 -0.802041838128E+00 -0.977322514715E+00 -0.982103880389E-01 -0.888966098950E-01
  0.634934241783E-01  0.206210183629E+00  0.244755917376E-01  0.201443104471E+00  0.744636380305E-01  0.162655354084E-02 -0.208072108423E-01
 -0.216947963723E-01  0.310928144026E-01 -0.464698624829E-01 -0.110790950617E+00  0.460204295525E-01 -0.270867286164E-01 -0.113622077017E-01
  0.168537025421E-01  0.585859002373E-02  0.120541762255E-01  0.523120775426E-01  0.779701360320E-01 -0.204186710241E-01  0.886751029459E-02
 -0.147700348414E-01 -0.130026986744E-02 -0.732987345687E-02 -0.224276046896E-02 -0.162921957883E-01
 -0.229244469774E+01 -0.164159663431E+01 -0.139896174441E+01 -0.859784672743E+01 -0.886494806450E+01 -0.119246144077E+01 -0.638218255366E+01
 -0.747553051869E+00 -0.293897235518E+01 -0.108729898121E+01 -0.396031709112E+01 -0.858637146391E+00 -0.393162915045E+01 -0.415275874959E+00
 -0.269462374800E+01 -0.141774109675E+01 -0.392779601628E+01 -0.344395316890E+01 -0.343915660050E+01 -0.468023520652E+00 -0.184978628945E+01
 -0.225194536924E+01 -0.123061881069E+01 -0.392937059891E+01 -0.350175211684E+01 -0.234703521423E+01 -0.140515600750E+01 -0.266065432677E+01
 -0.585618723632E+00 -0.173303392254E+01 -0.163934278721E+01 -0.145546747799E+01 -0.903317769053E+00
 -0.112044278399E-01 -0.726121833522E-01 -0.114358609601E+01 -0.333499112835E+01 -0.388210576966E+01 -0.690837708400E-01 -0.368327692673E+01
 -0.252155941828E+01 -0.194922967165E+01 -0.189687870142E+01 -0.239018917305E+01 -0.407194646717E+00 -0.335139304959E+01 -0.144495733650E+01
 -0.142443634330E+01 -0.134814249749E+01 -0.226266110815E+01 -0.860183608312E+00 -0.222712912530E+01 -0.104732901665E+01 -0.746341447522E+00
 -0.118402353181E+01 -0.590330812601E+00 -0.561340102454E+00 -0.750624753983E+00 -0.475694051521E+01 -0.189750331373E+02 -0.385096479510E+01
 -0.142240644180E+01 -0.166268168559E+01 -0.171619959597E+02 -0.861297437221E+01 -0.266489519888E+02
        15         9        16        16
        15        18        11        11
        22        15        21        21
        11         5         9         9
         5         7         2         2
        11         9        15        15
        16        21        15        15
        16        10        14        14
        18        17        11        11
        17        25        24        24
        22        18        15        15
        22        30        31        31
        30        21        23        23
        16        20        23        23
        22        27        26        26
        10         9         4         4
         7        11        13        13
        25        18        26        26
        11         7         5         5
         5         1         4         4
        17        19        13        13
        23        32        30        30
        23        20        29        29
         4         9         5         5
         4         8        10        10
        26        18        22        22
        26        28        25        25
        13        11        17        17
        13         6         7         7
        31        30        32        32
         2         1         5         5
         2         7         6         6
        14        10         8         8
        24        19        17        17
        24        25        28        28
         9        10        16        16
         3         4         1         1
        33        26        27        27
        12        13        19        19
        21        30        22        22
        16        14        20        20
        16        23        21        21
        22        31        27        27
        18        25        17        17
        26        33        28        28
         4         3         8         8
        23        29        32        32
        13        12         6         6
zone t="boundary 4 bc-4", solutiontime= 0.3000000E+02, strandid=1004, i=32, j=46, f=feblock
  0.125000000000E+01  0.219251206392E+01  0.103724302461E+01  0.500000000000E+01  0.250000000000E+01  0.375000000000E+01  0.404200324774E+01
  0.500000000000E+01  0.000000000000E+00  0.310152362409E+01  0.202479342020E+01  0.324151231464E+01  0.922061490191E+00  0.000000000000E+00
  0.299062775774E+01  0.394624082883E+01  0.500000000000E+01  0.409252726285E+01  0.500000000000E+01  0.429310310915E+01  0.175434191980E+01
  0.284428995242E+01  0.000000000000E+00  0.000000000000E+00  0.715990576545E+00  0.930412228790E+00  0.125000000000E+01  0.187029682677E+01
  0.500000000000E+01  0.375000000000E+01  0.250000000000E+01  0.000000000000E+00
  0.250494197117E+01  0.157686156160E+01  0.146289271009E+01  0.250494197117E+01  0.250494197117E+01  0.250494197117E+01  0.155830813274E+01
  0.125000000000E+01  0.250494197117E+01  0.177790177481E+01  0.477386199275E+00  0.742988685424E+00  0.308372018325E+00  0.125000000000E+01
 -0.487811078581E+00 -0.144524380962E+01 -0.125000000000E+01 -0.345533899378E+00  0.000000000000E+00  0.627766083140E+00 -0.739814786992E+00
 -0.158811787973E+01  0.000000000000E+00 -0.125000000000E+01 -0.600232012419E+00 -0.154800130438E+01 -0.249658903664E+01 -0.178862290564E+01
 -0.249658903664E+01 -0.249658903664E+01 -0.249658903664E+01 -0.249658903664E+01
  0.500000000000E+01  0.500000000000E+01  0.500000000000E+01  0.500000000000E+01  0.500000000000E+01  0.500000000000E+01  0.500000000000E+01
  0.500000000000E+01  0.500000000000E+01  0.500000000000E+01  0.500000000000E+01  0.500000000000E+01  0.500000000000E+01  0.500000000000E+01
  0.500000000000E+01  0.500000000000E+01  0.500000000000E+01  0.500000000000E+01  0.500000000000E+01  0.500000000000E+01  0.500000000000E+01
  0.500000000000E+01  0.500000000000E+01  0.500000000000E+01  0.500000000000E+01  0.500000000000E+01  0.500000000000E+01  0.500000000000E+01
  0.500000000000E+01  0.500000000000E+01  0.500000000000E+01  0.500000000000E+01
  0.488630212220E+00  0.488908716439E+00  0.490613563023E+00  0.492987209122E+00  0.486507800265E+00  0.484614058974E+00  0.485349379989E+00
  0.494165072826E+00  0.495364297290E+00  0.486547191318E+00  0.487827844382E+00  0.487055837589E+00  0.494058544536E+00  0.496127933522E+00
  0.487591516691E+00  0.483167459327E+00  0.492383185910E+00  0.487198277340E+00  0.494738152002E+00  0.487948631654E+00  0.489652457880E+00
  0.487975472983E+00  0.497248722542E+00  0.496055921459E+00  0.494948818827E+00  0.492779385287E+00  0.489961991134E+00  0.489965023644E+00
  0.491321546659E+00  0.486017931588E+00  0.489981935261E+00  0.495091099977E+00
  0.100214792073E+01  0.100152366602E+01  0.100177921758E+01  0.100047555022E+01  0.100126704333E+01  0.100066742194E+01  0.100025486927E+01
  0.100050300652E+01  0.100178631734E+01  0.100112357820E+01  0.100132836583E+01  0.100072276399E+01  0.100164069721E+01  0.100168367826E+01
  0.100096358335E+01  0.100001091236E+01  0.100083203976E+01  0.100022366105E+01  0.100062122326E+01  0.100023363627E+01  0.100174700863E+01
  0.100098998959E+01  0.100118707696E+01  0.100134422954E+01  0.100132700903E+01  0.100179943015E+01  0.100192580062E+01  0.100163765934E+01
  0.100045822703E+01  0.100058944082E+01  0.100110055989E+01  0.100176392267E+01
  0.470116412348E+02  0.451368136601E+02  0.472606256684E+02  0.507344673846E+01  0.433322627781E+02  0.230855250958E+02  0.158786530504E+02
  0.499548000774E+01  0.641722567020E+02  0.355312688728E+02  0.474005143546E+02  0.328545667190E+02  0.565773318104E+02  0.652603134665E+02
  0.364431706365E+02  0.145591624779E+02  0.533505101533E+01  0.187452785475E+02  0.449333273149E+01  0.191749420247E+02  0.575124318640E+02
  0.341106845256E+02  0.700116024636E+02  0.609386065207E+02  0.649600126893E+02  0.508838927719E+02  0.508618910186E+02  0.533331843328E+02
  0.549536261145E+01  0.222414822589E+02  0.438834480485E+02  0.568857435377E+02