title="tecplot geometry and solution file"
variables = x y z mach temperature lambda1 lambda2 lambda3 lambda4 lambda5
zone t="boundary 1 bc-1", solutiontime= 0.3000000E+02, strandid=1001, i=32, j=46, f=feblock
 -0.547473805950E-02  0.000000000000E+00 -0.567611393137E-02  0.000000000000E+00  0.000000000000E+00  0.000000000000E+00 -0.525163715706E-02
 -0.425779957523E-02  0.000000000000E+00  0.000000000000E+00  0.000000000000E+00  0.000000000000E+00  0.000000000000E+00  0.000000000000E+00
  0.000000000000E+00  0.000000000000E+00 -0.338397811579E-02  0.000000000000E+00  0.000000000000E+00  0.000000000000E+00  0.000000000000E+00
  0.000000000000E+00  0.000000000000E+00  0.000000000000E+00  0.000000000000E+00  0.000000000000E+00  0.000000000000E+00  0.000000000000E+00
  0.000000000000E+00  0.000000000000E+00  0.000000000000E+00  0.000000000000E+00
  0.250494199996E+01  0.250494199996E+01  0.127822171177E+01  0.146289271009E+01  0.157686156160E+01  0.308372018325E+00  0.261949834557E-01
 -0.122573470438E+01 -0.600232012419E+00  0.250494199996E+01  0.477386199275E+00  0.742988685424E+00 -0.739814786992E+00  0.177790177481E+01
  0.155830813274E+01  0.250494199996E+01 -0.249658902117E+01 -0.154800130438E+01 -0.487811078581E+00  0.250494199996E+01  0.627766083140E+00
 -0.345533899378E+00 -0.178862290564E+01 -0.158811787973E+01  0.125000000000E+01 -0.249658902117E+01 -0.144524380962E+01  0.000000000000E+00
 -0.125000000000E+01 -0.249658902117E+01 -0.249658902117E+01 -0.249658902117E+01
  0.805555099614E-04  0.125000000000E+01  0.823774297186E-04  0.103724302461E+01  0.219251206392E+01  0.922061490191E+00  0.103961354043E-03
  0.342005475212E-04  0.715990576545E+00  0.250000000000E+01  0.202479342020E+01  0.324151231464E+01  0.175434191980E+01  0.310152362409E+01
  0.404200324774E+01  0.375000000000E+01  0.810770748851E-04  0.930412228790E+00  0.299062775774E+01  0.500000000000E+01  0.429310310915E+01
  0.409252726285E+01  0.187029682677E+01  0.284428995242E+01  0.500000000000E+01  0.125000000000E+01  0.394624082883E+01  0.500000000000E+01
  0.500000000000E+01  0.250000000000E+01  0.375000000000E+01  0.500000000000E+01
  0.000000000000E+00  0.447917893105E+00  0.000000000000E+00  0.476275931555E+00  0.468523764259E+00  0.473519703687E+00  0.000000000000E+00
  0.000000000000E+00  0.412988885572E+00  0.477443348004E+00  0.472504673047E+00  0.485153442298E+00  0.492070550376E+00  0.488543839064E+00
  0.491923380126E+00  0.493078169939E+00  0.000000000000E+00  0.471586654449E+00  0.480934095627E+00  0.498012892236E+00  0.493689909583E+00
  0.490409919456E+00  0.456073457025E+00  0.472047037772E+00  0.498545864547E+00  0.449257989220E+00  0.491117573798E+00  0.499470102958E+00
  0.498443302005E+00  0.475665752879E+00  0.492352552841E+00  0.497648492019E+00
  0.104242640687E+01  0.102508330221E+01  0.104242640687E+01  0.103461472126E+01  0.100936211481E+01  0.102707647030E+01  0.104242640687E+01
  0.104242640687E+01  0.104103512175E+01  0.100608607954E+01  0.100935928681E+01  0.100173207642E+01  0.101882157420E+01  0.100399703841E+01
  0.100113916075E+01  0.100201867166E+01  0.104242640687E+01  0.103067303883E+01  0.100321571449E+01  0.100090132497E+01  0.100133271257E+01
  0.100116394826E+01  0.101357751416E+01  0.100469368551E+01  0.100084556817E+01  0.103269876849E+01  0.100165718156E+01  0.100040727367E+01
  0.100050934991E+01  0.100724883558E+01  0.100246497717E+01  0.100085386850E+01
  0.425703013137E+01  0.594161186707E+01  0.378636215807E+01  0.761827596922E+01  0.604365140690E+01  0.517034515214E+01  0.654015832916E+01
  0.505842317626E+01  0.196745550189E+01  0.441612428706E+01  0.769573346185E+01  0.452845872251E+01  0.960167524030E+01  0.333735744471E+01
  0.107900288824E+02  0.886465676881E+01  0.649275857371E+01  0.374165071925E+01  0.463865473663E+01  0.552032611935E+02  0.156112783023E+02
  0.808229569244E+01  0.854791700118E+01  0.480379729395E+01  0.591592906192E+02  0.953892320512E+01  0.625790536959E+01  0.615939809292E+02
  0.459271675349E+02  0.604586954386E+01  0.690063443749E+01  0.385742175234E+02
  0.112698960108E+01  0.243069738826E+01  0.125622283264E+01  0.253878621562E+01  0.217821401241E+01  0.270703193554E+01  0.685130122323E+00
  0.125526660080E+01  0.214468748676E+01  0.177824856132E+01  0.234173095019E+01  0.130746104837E+01  0.270914102180E+01  0.117884649280E+01
  0.212649544957E+01  0.189139096965E+01  0.105234374648E+01  0.272321137935E+01  0.137084864539E+01  0.114275654227E+02  0.314942361490E+01
  0.157280625467E+01  0.262246565354E+01  0.146670469961E+01  0.124738413694E+02  0.236666787384E+01  0.127053326738E+01  0.129980092066E+02
  0.968442952052E+01  0.187556098436E+01  0.168446274913E+01  0.809666686367E+01
  0.308450276526E+00  0.140255727750E+00  0.257652672097E+00  0.483490626743E+00  0.153324274797E-02 -0.185256645656E+00  0.169763519842E+00
 -0.452391114095E+00  0.274278308079E+00  0.165758225118E-02 -0.274756656275E-01  0.138018608798E+00 -0.299815002361E+00  0.134986308532E+00
  0.233044679477E+00  0.103850572558E-01 -0.370892459354E+00 -0.686412662968E+00 -0.440877857121E-01 -0.837262760851E-02  0.959246457624E-01
 -0.858884145273E-01 -0.115477554238E+00 -0.229467472246E+00 -0.995943244582E-01 -0.156610636620E+00 -0.116287352835E+00  0.255266758575E-01
  0.361451168983E-02 -0.194358095032E-01 -0.352284861922E-01 -0.468376253431E-02
 -0.238304672676E+01 -0.646612016256E+01 -0.267593814788E+01 -0.643193526438E+01 -0.491996877195E+01 -0.856561067089E+01 -0.179532657006E+01
 -0.249343551308E+01 -0.106371206415E+02 -0.497150672164E+01 -0.410777573934E+01 -0.359571065549E+01 -0.348605341542E+01 -0.418256499427E+01
 -0.261683369722E+01 -0.296038902754E+01 -0.191744101851E+01 -0.996414515323E+01 -0.379261598670E+01 -0.115391154378E+01 -0.231089305902E+01
 -0.262379754426E+01 -0.513255839555E+01 -0.430152702143E+01 -0.109909446394E+01 -0.800087765438E+01 -0.275045593335E+01 -0.100988368037E+01
 -0.124352422114E+01 -0.528187534122E+01 -0.303421300685E+01 -0.126035474056E+01
 -0.126957539958E+01 -0.250311687376E+01 -0.144454581999E+01 -0.301854655929E+01 -0.214866171993E+01 -0.242627961649E+01 -0.139676768516E+01
 -0.127262919891E+01 -0.133624704466E+01 -0.150755812966E+01 -0.269371112549E+01 -0.162119051145E+01 -0.331697291616E+01 -0.109314511488E+01
 -0.410770963161E+01 -0.337452663505E+01 -0.147786769025E+01 -0.204745497507E+01 -0.167801798988E+01 -0.228586434224E+02 -0.613199694886E+01
 -0.297986576799E+01 -0.296596526895E+01 -0.172098451632E+01 -0.245503015963E+02 -0.368651600431E+01 -0.220617673560E+01 -0.256408013547E+02
 -0.190154513029E+02 -0.210421154390E+01 -0.255950619426E+01 -0.158707188616E+02
        12        19        11        11
        11         5        12        12
        10        14         5         5
        19        13        11        11
        19        24        13        13
        30        23        24        24
        19        12        22        22
        28        22        21        21
        11        13         6         6
         7         6         9         9
        15        12        14        14
        18        13        23        23
        15        25        21        21
        27        19        22        22
        18         8         9         9
        27        31        24        24
         4        11         6         6
         5        14        12        12
         4         2         5         5
        21        12        15        15
        14        16        15        15
        24        19        27        27
        22        29        27        27
        23        26        18        18
        17         8        18        18
         5        11         4         4
         6         3         4         4
        26        23        30        30
         5         2        10        10
        16        14        10        10
         3         6         7         7
        21        25        28        28
        29        22        28        28
         6        13         9         9
         2         4         1         1
        31        27        32        32
        25        15        20        20
        24        23        13        13
         8         7         9         9
        13        18         9         9
        31        30        24        24
        12        21        22        22
        29        32        27        27
         3         1         4         4
        26        17        18        18
        16        20        15        15
zone t="boundary 2 bc-2", solutiontime= 0.3000000E+02, strandid=1002, i=33, j=48, f=feblock
  0.500195254569E+01  0.375034811445E+01  0.249861145586E+01  0.288036674135E+01  0.124717525353E+01  0.190856697906E+01  0.326577190006E+01
  0.201394855912E+01 -0.338397811579E-02  0.962374243892E+00  0.500000000000E+01  0.403430189815E+01  0.423029563516E+01  0.500000000000E+01
  0.385439188840E+01  0.500000000000E+01  0.398133433219E+01  0.315200081383E+01  0.266958028789E+01  0.154798029748E+01  0.218327860401E+01
  0.893688440127E+00  0.000000000000E+00  0.699009761219E+00  0.964460898511E+00  0.310303671661E+01  0.000000000000E+00  0.000000000000E+00
  0.125000000000E+01  0.500000000000E+01  0.375000000000E+01  0.250000000000E+01  0.000000000000E+00
 -0.249658902117E+01 -0.249658902117E+01 -0.249658902117E+01 -0.249658902117E+01 -0.249658902117E+01 -0.249658902117E+01 -0.249658902117E+01
 -0.249658902117E+01 -0.249658902117E+01 -0.249658902117E+01 -0.249658902117E+01 -0.249658902117E+01 -0.249658902117E+01 -0.249658902117E+01
 -0.249658902117E+01 -0.249658902117E+01 -0.249658902117E+01 -0.249658902117E+01 -0.249658902117E+01 -0.249658902117E+01 -0.249658902117E+01
 -0.249658902117E+01 -0.249658902117E+01 -0.249658902117E+01 -0.249658902117E+01 -0.249658902117E+01 -0.249658902117E+01 -0.249658902117E+01
 -0.249658902117E+01 -0.249658902117E+01 -0.249658902117E+01 -0.249658902117E+01 -0.249658902117E+01
  0.108218466124E-03  0.145871002877E-03  0.100891403625E-03  0.901663364691E+00  0.110859770246E-03  0.714928312397E+00  0.188140647111E+01
  0.175892165294E+01  0.810770748851E-04  0.957504290555E+00  0.125000000000E+01  0.100596696999E+01  0.191313518634E+01  0.250000000000E+01
  0.292898096729E+01  0.375000000000E+01  0.406883369623E+01  0.363389290091E+01  0.284756861229E+01  0.292582308304E+01  0.395754055152E+01
  0.205027257041E+01  0.125000000000E+01  0.306703272778E+01  0.397155766783E+01  0.433068622257E+01  0.250000000000E+01  0.375000000000E+01
  0.500000000000E+01  0.500000000000E+01  0.500000000000E+01  0.500000000000E+01  0.500000000000E+01
  0.000000000000E+00  0.000000000000E+00  0.000000000000E+00  0.384516102379E+00  0.000000000000E+00  0.340285873075E+00  0.586752973058E+00
  0.575426018814E+00  0.000000000000E+00  0.487199378467E+00  0.520641040018E+00  0.445423555755E+00  0.576269221497E+00  0.533962376915E+00
  0.567224534025E+00  0.511735128316E+00  0.508063929882E+00  0.527166122502E+00  0.565842714108E+00  0.531744059129E+00  0.508272212923E+00
  0.522388437206E+00  0.449257989220E+00  0.494521458294E+00  0.495788427677E+00  0.503678485303E+00  0.475665752879E+00  0.492352552841E+00
  0.494346755559E+00  0.491660272583E+00  0.489529542899E+00  0.494638536198E+00  0.497648492019E+00
  0.104242640687E+01  0.104242640687E+01  0.104242640687E+01  0.100355246665E+01  0.104242640687E+01  0.100599607839E+01  0.989008031489E+00
  0.992225316054E+00  0.104242640687E+01  0.997058798899E+00  0.987964542596E+00  0.995589876967E+00  0.989405264241E+00  0.100087323765E+01
  0.997203119671E+00  0.100346283424E+01  0.100053321078E+01  0.999080757420E+00  0.995647250027E+00  0.100095637499E+01  0.999458338897E+00
  0.100692573083E+01  0.103269876849E+01  0.100216635877E+01  0.100130290772E+01  0.999493814465E+00  0.100724883558E+01  0.100246497717E+01
  0.100077487280E+01  0.100026599126E+01  0.999860681535E+00  0.999993717468E+00  0.100085386850E+01
  0.816353387829E+01  0.780691181590E+01  0.857667443219E+01  0.810353604909E+01  0.951227686775E+01  0.804686032265E+01  0.100402422237E+02
  0.884649891855E+01  0.649275857371E+01  0.896884496227E+01  0.117128227373E+02  0.954551511546E+01  0.109852792616E+02  0.935649660420E+01
  0.785294524498E+01  0.624959992533E+01  0.683580913962E+01  0.727815953250E+01  0.847960598362E+01  0.718539968033E+01  0.579606517033E+01
  0.764025458950E+01  0.953892320512E+01  0.524564737932E+01  0.542197797004E+01  0.909989793473E+01  0.604586954386E+01  0.690063443749E+01
  0.250093012242E+02  0.978150208033E+01  0.116014677354E+02  0.351549219152E+01  0.385742175234E+02
 -0.155676985843E+01  0.224298939816E+00  0.224537918704E+00  0.323084344819E+01  0.945453595441E-02  0.263561231749E+01 -0.177207256942E+01
  0.220128288705E+00  0.105234374648E+01  0.287045136595E+01 -0.269555607303E+01  0.125589411639E+00 -0.265954633233E+01 -0.239253912033E+01
 -0.211457344553E+01 -0.153609795367E+01 -0.160574235718E+01 -0.156933623410E+01 -0.168697951429E+01 -0.500165951702E+00 -0.134741310760E+01
  0.103673568098E+01  0.236666787384E+01  0.290887334457E+00 -0.274611914426E+00 -0.108506772983E+01  0.187556098436E+01  0.168446274913E+01
  0.330423601421E+01  0.635727993573E-01 -0.801992174459E+00 -0.236251745596E+01  0.809666686367E+01
 -0.234991281510E+00 -0.988141805393E-01  0.295809179122E+00  0.640647830159E+00  0.222684785766E+00  0.998927767343E+00 -0.176463299421E+00
 -0.341436535851E+00 -0.370892459354E+00  0.175594145725E+00 -0.797079283746E-01 -0.218598354519E+00  0.555789780601E-01 -0.149215929500E-01
 -0.772751090245E-02  0.247898420637E-01 -0.274929684275E-01  0.237748384497E-01  0.658830441526E-01  0.931238398255E-01 -0.699594864803E-02
 -0.251995444317E-01 -0.156610636620E+00 -0.480264493144E-01 -0.612917502708E-01  0.630248002383E-02 -0.194358095032E-01 -0.352284861922E-01
 -0.926983657314E-03  0.458547849734E-02  0.397695142246E-02 -0.979821513144E-02 -0.468376253431E-02
 -0.116984828014E+01 -0.191430836694E+01 -0.180398255561E+01 -0.876383489318E+01 -0.285478142940E+01 -0.126486036831E+02 -0.208028297397E+01
 -0.428045477232E+01 -0.191744101851E+01 -0.829747509413E+01 -0.722394304695E+00 -0.309986664482E+01 -0.896289041721E+00 -0.372745150685E+00
 -0.141822377819E+01 -0.454682293309E+00 -0.139862572309E+01 -0.213459993908E+01 -0.267778586244E+01 -0.371309766106E+01 -0.251190029764E+01
 -0.478741746996E+01 -0.800087765438E+01 -0.382457038717E+01 -0.271508929057E+01 -0.210360117344E+01 -0.528187534122E+01 -0.303421300685E+01
 -0.177842697859E+01 -0.797128022535E+00 -0.179641734728E+01 -0.203804556321E+01 -0.126035474056E+01
 -0.854670538678E+00 -0.644260044580E-02  0.513832956343E-02 -0.328918122429E+01 -0.581066391643E-03 -0.366896307240E+01 -0.209076383353E+01
 -0.215909022036E+01 -0.147786769025E+01 -0.371242052351E+01 -0.254805228174E+01 -0.256210808387E+01 -0.229894102912E+01 -0.181361480313E+01
 -0.150343820906E+01 -0.123469120564E+01 -0.144112546782E+01 -0.159504655578E+01 -0.193392999190E+01 -0.191276041688E+01 -0.118536301231E+01
 -0.229015194102E+01 -0.368651600431E+01 -0.153679148922E+01 -0.145311751071E+01 -0.244823690684E+01 -0.210421154390E+01 -0.255950619426E+01
 -0.958221556151E+01 -0.321238647186E+01 -0.352360318498E+01 -0.146778905258E+00 -0.158707188616E+02
        15         7        19        19
         8        20        19        19
        18        19        21        21
         7         4         8         8
         3         6         4         4
        19         7         8         8
        19        18        15        15
        14        13        15        15
         8        22        20        20
        27        24        22        22
        19        20        21        21
        32        26        21        21
        17        18        26        26
        17        16        15        15
        25        29        21        21
        12         7        13        13
        10         8         6         6
        25        20        24        24
         4         6         8         8
        12         2         4         4
        10        23        22        22
        26        31        17        17
        30        16        17        17
         4         7        12        12
        13        11        12        12
        21        20        25        25
        24        28        25        25
        22         8        10        10
         6         5        10        10
        31        26        32        32
         4         2         3         3
         5         6         3         3
        11        13        14        14
        22        23        27        27
        28        24        27        27
        15        13         7         7
         2        12         1         1
        29        25        33        33
        23        10         9         9
        21        26        18        18
        16        14        15        15
        18        17        15        15
        29        32        21        21
        22        24        20        20
        28        33        25        25
        11         1        12        12
        31        30        17        17
         5         9        10        10
zone t="boundary 3 bc-3", solutiontime= 0.3000000E+02, strandid=1003, i=33, j=48, f=feblock
  0.375059098657E+01  0.249769607633E+01  0.500322138025E+01  0.403612219887E+01  0.287976772043E+01  0.124541906321E+01  0.190552234484E+01
  0.500000000000E+01  0.326671105082E+01  0.423253757181E+01  0.201271135153E+01 -0.547473805950E-02  0.958895614436E+00  0.500000000000E+01
  0.266968147277E+01  0.385584488388E+01  0.890374186977E+00  0.154654012335E+01  0.000000000000E+00  0.500000000000E+01  0.315261137201E+01
  0.218304199244E+01  0.398195308498E+01  0.000000000000E+00  0.697379936714E+00  0.963757270369E+00  0.125000000000E+01  0.000000000000E+00
  0.500000000000E+01  0.310330738803E+01  0.250000000000E+01  0.375000000000E+01  0.000000000000E+00
  0.250494199996E+01  0.250494199996E+01  0.250494199996E+01  0.250494199996E+01  0.250494199996E+01  0.250494199996E+01  0.250494199996E+01
  0.250494199996E+01  0.250494199996E+01  0.250494199996E+01  0.250494199996E+01  0.250494199996E+01  0.250494199996E+01  0.250494199996E+01
  0.250494199996E+01  0.250494199996E+01  0.250494199996E+01  0.250494199996E+01  0.250494199996E+01  0.250494199996E+01  0.250494199996E+01
  0.250494199996E+01  0.250494199996E+01  0.250494199996E+01  0.250494199996E+01  0.250494199996E+01  0.250494199996E+01  0.250494199996E+01
  0.250494199996E+01  0.250494199996E+01  0.250494199996E+01  0.250494199996E+01  0.250494199996E+01
  0.135804630540E-03  0.110291624817E-03  0.968352334446E-04  0.101756767185E+01  0.908094754997E+00  0.104111079957E-03  0.722629266617E+00
  0.125000000000E+01  0.188965673342E+01  0.191862703992E+01  0.176708252859E+01  0.805555099614E-04  0.969652727920E+00  0.250000000000E+01
  0.285339441810E+01  0.293325064381E+01  0.205656233203E+01  0.293157024792E+01  0.125000000000E+01  0.375000000000E+01  0.363766843534E+01
  0.396069448925E+01  0.407056387650E+01  0.250000000000E+01  0.307031999891E+01  0.397359822904E+01  0.500000000000E+01  0.375000000000E+01
  0.500000000000E+01  0.433260783674E+01  0.500000000000E+01  0.500000000000E+01  0.500000000000E+01
  0.000000000000E+00  0.000000000000E+00  0.000000000000E+00  0.453747912967E+00  0.402545502453E+00  0.000000000000E+00  0.369629009544E+00
  0.520525438577E+00  0.575220780219E+00  0.575502697133E+00  0.558260174275E+00  0.000000000000E+00  0.478252962454E+00  0.530976530200E+00
  0.555830976399E+00  0.562793219653E+00  0.524675235835E+00  0.523282018189E+00  0.447917893105E+00  0.513796076167E+00  0.524673097209E+00
  0.506323914759E+00  0.509686671337E+00  0.477443348004E+00  0.499194823541E+00  0.497912967444E+00  0.492962759871E+00  0.493078169939E+00
  0.493192027983E+00  0.501531684732E+00  0.491169160322E+00  0.488098785874E+00  0.498012892236E+00
  0.104242640687E+01  0.104242640687E+01  0.104242640687E+01  0.992555420605E+00  0.100338777628E+01  0.104242640687E+01  0.100275102529E+01
  0.987610948162E+00  0.990360755947E+00  0.989796153239E+00  0.994453865708E+00  0.104242640687E+01  0.999323382885E+00  0.100158433896E+01
  0.997121320216E+00  0.998147046672E+00  0.100443205293E+01  0.100036233051E+01  0.102508330221E+01  0.100269535219E+01  0.100014129837E+01
  0.999693737613E+00  0.100036856474E+01  0.100608607954E+01  0.100156234007E+01  0.100069385186E+01  0.100096903929E+01  0.100201867166E+01
  0.100024531101E+01  0.999658107118E+00  0.100018113529E+01  0.100002132966E+01  0.100090132497E+01
  0.110667786113E+02  0.731811541136E+01  0.871419239594E+01  0.909463464747E+01  0.872061108489E+01  0.714060170438E+01  0.802981965919E+01
  0.116305522465E+02  0.101712972038E+02  0.104443102502E+02  0.942795890288E+01  0.425703013137E+01  0.870291535280E+01  0.881503606775E+01
  0.782194683545E+01  0.797447030365E+01  0.754091137778E+01  0.603744648718E+01  0.594161186707E+01  0.649252302744E+01  0.575084156112E+01
  0.514162388641E+01  0.504243435088E+01  0.441612428706E+01  0.413288806077E+01  0.991404156978E+01  0.336982204168E+02  0.886465676881E+01
  0.626159209006E+01  0.918728188452E+01  0.131114320497E+02  0.179739502862E+02  0.552032611935E+02
  0.163968197045E+00  0.385217854800E+00 -0.178113554020E+01  0.131439487331E+01  0.334213891100E+01  0.177736468481E+00  0.357503741069E+01
 -0.266379699415E+01 -0.220755971323E+01 -0.279951872195E+01 -0.227266684179E+00  0.112698960108E+01  0.306413851799E+01 -0.227690185225E+01
 -0.169186697223E+01 -0.204766711761E+01  0.132022515561E+01 -0.831967767053E+00  0.243069738826E+01 -0.157843637702E+01 -0.186763212257E+01
 -0.160373620740E+01 -0.192136698727E+01  0.177824856132E+01 -0.638523723505E-02  0.594586069567E+00  0.512316098489E+01  0.189139096965E+01
 -0.603299175044E+00 -0.106638871839E+01 -0.279017336979E+00  0.541414519010E+00  0.114275654227E+02
  0.889348569405E-01  0.118440261001E+00  0.174130480739E+00 -0.616646418481E+00 -0.596192004533E+00  0.454190167963E-01  0.188015849872E-01
  0.514502202467E-01  0.206645333103E+00  0.371373879197E-01  0.231966771168E+00  0.308450276526E+00  0.270397865064E+00 -0.171233829219E-01
 -0.352769837304E-01  0.120033899201E-01 -0.198413348220E-01 -0.150801961624E+00  0.140255727750E+00 -0.238179700234E-01 -0.703910981183E-02
  0.184973083866E-01  0.466266541529E-02  0.165758225118E-02  0.398134414613E-01  0.716818747449E-01 -0.232226897488E-01  0.103850572558E-01
 -0.139621746228E-01 -0.719598103305E-03 -0.604601834665E-02 -0.212704368836E-02 -0.837262760851E-02
 -0.258146538543E+01 -0.240857570649E+01 -0.105512140782E+01 -0.721873860036E+01 -0.832451030298E+01 -0.269323326495E+01 -0.908903890547E+01
 -0.502723950648E+00 -0.269090324661E+01 -0.952123452999E+00 -0.390888811676E+01 -0.238304672676E+01 -0.700671424543E+01 -0.418419079951E+00
 -0.275552772374E+01 -0.141475283051E+01 -0.450566051637E+01 -0.373827650144E+01 -0.646612016256E+01 -0.529476949617E+00 -0.201140725863E+01
 -0.255815086429E+01 -0.139937109190E+01 -0.497150672164E+01 -0.393643301111E+01 -0.274253189071E+01 -0.182309200250E+01 -0.296038902754E+01
 -0.718545805352E+00 -0.199097259777E+01 -0.204534071670E+01 -0.176320537370E+01 -0.115391154378E+01
  0.599759450041E-02 -0.212722180475E-01 -0.812924727321E+00 -0.296401045135E+01 -0.340053183214E+01 -0.284494482356E-01 -0.355979056223E+01
 -0.254492330217E+01 -0.205092892866E+01 -0.205578180222E+01 -0.230677600849E+01 -0.126957539958E+01 -0.341992698606E+01 -0.170459976709E+01
 -0.170467819019E+01 -0.157759402391E+01 -0.230680506554E+01 -0.139372976137E+01 -0.250311687376E+01 -0.129448499226E+01 -0.954524870083E+00
 -0.876663728827E+00 -0.725804362166E+00 -0.150755812966E+01 -0.110146400741E+01 -0.332796221715E+01 -0.132067245545E+02 -0.337452663505E+01
 -0.176067683202E+01 -0.249973612062E+01 -0.420823223611E+01 -0.621320000506E+01 -0.228586434224E+02
        15         9        16        16
        15        18        11        11
        22        15        21        21
        11         5         9         9
         5         7         2         2
        11         9        15        15
        16        21        15        15
        16        10        14        14
        18        17        11        11
        17        25        24        24
        22        18        15        15
        22        30        31        31
        30        21        23        23
        16        20        23        23
        22        27        26        26
        10         9         4         4
         7        11        13        13
        25        18        26        26
        11         7         5         5
         5         1         4         4
        17        19        13        13
        23        32        30        30
        23        20        29        29
         4         9         5         5
         4         8        10        10
        26        18        22        22
        26        28        25        25
        13        11        17        17
        13         6         7         7
        31        30        32        32
         2         1         5         5
         2         7         6         6
        14        10         8         8
        24        19        17        17
        24        25        28        28
         9        10        16        16
         3         4         1         1
        33        26        27        27
        12        13        19        19
        21        30        22        22
        16        14        20        20
        16        23        21        21
        22        31        27        27
        18        25        17        17
        26        33        28        28
         4         3         8         8
        23        29        32        32
        13        12         6         6
zone t="boundary 4 bc-4", solutiontime= 0.3000000E+02, strandid=1004, i=32, j=46, f=feblock
  0.125000000000E+01  0.219251206392E+01  0.103724302461E+01  0.500000000000E+01  0.250000000000E+01  0.375000000000E+01  0.404200324774E+01
  0.500000000000E+01  0.000000000000E+00  0.310152362409E+01  0.202479342020E+01  0.324151231464E+01  0.922061490191E+00  0.000000000000E+00
  0.299062775774E+01  0.394624082883E+01  0.500000000000E+01  0.409252726285E+01  0.500000000000E+01  0.429310310915E+01  0.175434191980E+01
  0.284428995242E+01  0.000000000000E+00  0.000000000000E+00  0.715990576545E+00  0.930412228790E+00  0.125000000000E+01  0.187029682677E+01
  0.500000000000E+01  0.375000000000E+01  0.250000000000E+01  0.000000000000E+00
  0.250494199996E+01  0.157686156160E+01  0.146289271009E+01  0.250494199996E+01  0.250494199996E+01  0.250494199996E+01  0.155830813274E+01
  0.125000000000E+01  0.250494199996E+01  0.177790177481E+01  0.477386199275E+00  0.742988685424E+00  0.308372018325E+00  0.125000000000E+01
 -0.487811078581E+00 -0.144524380962E+01 -0.125000000000E+01 -0.345533899378E+00  0.000000000000E+00  0.627766083140E+00 -0.739814786992E+00
 -0.158811787973E+01  0.000000000000E+00 -0.125000000000E+01 -0.600232012419E+00 -0.154800130438E+01 -0.249658902117E+01 -0.178862290564E+01
 -0.249658902117E+01 -0.249658902117E+01 -0.249658902117E+01 -0.249658902117E+01
  0.500000000000E+01  0.500000000000E+01  0.500000000000E+01  0.500000000000E+01  0.500000000000E+01  0.500000000000E+01  0.500000000000E+01
  0.500000000000E+01  0.500000000000E+01  0.500000000000E+01  0.500000000000E+01  0.500000000000E+01  0.500000000000E+01  0.500000000000E+01
  0.500000000000E+01  0.500000000000E+01  0.500000000000E+01  0.500000000000E+01  0.500000000000E+01  0.500000000000E+01  0.500000000000E+01
  0.500000000000E+01  0.500000000000E+01  0.500000000000E+01  0.500000000000E+01  0.500000000000E+01  0.500000000000E+01  0.500000000000E+01
  0.500000000000E+01  0.500000000000E+01  0.500000000000E+01  0.500000000000E+01
  0.492962759871E+00  0.493501811672E+00  0.494482154832E+00  0.493192027983E+00  0.491169160322E+00  0.488098785874E+00  0.488213915628E+00
  0.494128983540E+00  0.498012892236E+00  0.490743060294E+00  0.492687813005E+00  0.491182349970E+00  0.497494162823E+00  0.498545864547E+00
  0.492035510720E+00  0.486141829064E+00  0.492132924673E+00  0.489715881183E+00  0.494539390222E+00  0.490046920039E+00  0.494491364916E+00
  0.492624363645E+00  0.499470102958E+00  0.498443302005E+00  0.498085503859E+00  0.496394045645E+00  0.494346755559E+00  0.494728908772E+00
  0.491660272583E+00  0.489529542899E+00  0.494638536198E+00  0.497648492019E+00
  0.100096903929E+01  0.100040310406E+01  0.100072208318E+01  0.100024531101E+01  0.100018113529E+01  0.100002132966E+01  0.999888523338E+00
  0.100031159626E+01  0.100090132497E+01  0.100020963142E+01  0.100030894110E+01  0.999990940254E+00  0.100060759990E+01  0.100084556817E+01
  0.100008167760E+01  0.999676407531E+00  0.100057119101E+01  0.999878618045E+00  0.100042307878E+01  0.999981274937E+00  0.100055778173E+01
  0.999986005540E+00  0.100040727367E+01  0.100050934991E+01  0.100040913615E+01  0.100074102371E+01  0.100077487280E+01  0.100045005174E+01
  0.100026599126E+01  0.999860681535E+00  0.999993717468E+00  0.100085386850E+01
  0.336982204168E+02  0.329770758156E+02  0.390602666883E+02  0.626159209006E+01  0.131114320497E+02  0.179739502862E+02  0.232605784007E+02
  0.525446880954E+01  0.552032611935E+02  0.210712129792E+02  0.332241435508E+02  0.183963865234E+02  0.454482310403E+02  0.591592906192E+02
  0.819155301735E+01  0.100198848900E+02  0.856506620462E+01  0.115069845685E+02  0.671964318135E+01  0.289884026587E+02  0.352156079030E+02
  0.717094486628E+01  0.615939809292E+02  0.459271675349E+02  0.510752252231E+02  0.323619676638E+02  0.250093012242E+02  0.234970518567E+02
  0.978150208033E+01  0.116014677354E+02  0.351549219152E+01  0.385742175234E+02