# vtk DataFile Version 2.0
FUN3D:global_image_vtk
ASCII
DATASET UNSTRUCTURED_GRID
POINTS 213 double
   -0.5474685438219934E-02    0.2504941971165485E+01    0.8038139422962375E-04
    0.1245419105186371E+01    0.2504941971165485E+01    0.1039425138664848E-03
    0.2497696093130313E+01    0.2504941971165485E+01    0.1101298243385123E-03
    0.3750590968915477E+01    0.2504941971165485E+01    0.1356499081138886E-03
    0.5003221331740107E+01    0.2504941971165485E+01    0.9668873779401495E-04
    0.5004676687976413E+01    0.1281291202155759E+01    0.1638053072896629E-03
    0.5004772673775726E+01    0.2775079905532245E-01    0.1903478042355517E-03
    0.5003581183339734E+01   -0.1225853508891395E+01    0.1607765219616719E-03
    0.5001952533741638E+01   -0.2496589036642705E+01    0.1082258886779814E-03
    0.3750348111606489E+01   -0.2496589036642705E+01    0.1458753694179578E-03
    0.2498611462995409E+01   -0.2496589036642705E+01    0.1008933262505726E-03
    0.1247175269334221E+01   -0.2496589036642705E+01    0.1108587618249278E-03
   -0.3383959864651230E-02   -0.2496589036642705E+01    0.8107259628292726E-04
   -0.4257768977922624E-02   -0.1225734811649804E+01    0.3415458946343391E-04
   -0.5251592445770110E-02    0.2619486023614114E-01    0.1038724427960884E-03
   -0.5676060309056647E-02    0.1278221569056600E+01    0.8224602319013355E-04
    0.9003209617986518E+00    0.1608979112269835E+01    0.8704141386701581E-04
    0.3983172210691884E+01   -0.1561211904847755E+01    0.1757116731322411E-03
    0.4035602039223491E+01    0.1486760030402969E+01    0.1713312920527763E-03
    0.1036613723304493E+01   -0.1455626429924350E+01    0.1047189316918962E-03
    0.1094353480633343E+01   -0.2964622010757078E+00    0.1260590270858502E-03
    0.7298400267511738E+00    0.6874684746626458E+00    0.1044598691311645E-03
    0.1617018659311988E+01    0.8553208024835459E+00    0.1529810957003406E-03
    0.2143199662876900E+01   -0.1627128509224141E+01    0.1606170436690996E-03
    0.4088840445399776E+01   -0.4351047826026346E+00    0.2719933321614949E-03
    0.2977916511249719E+01   -0.8334991483176312E+00    0.2245596954619267E-03
    0.3044093241383834E+01   -0.1814361225115967E+01    0.1617000120313084E-03
    0.3427866614805438E+01    0.3813904839861596E+00    0.2936955524499634E-03
    0.4313225355349884E+01    0.5489133376232666E+00    0.2313009616367663E-03
    0.1823032737599955E+01    0.1771265193532498E+01    0.1836202953985997E-03
    0.2806311152169731E+01    0.1358629373588292E+01    0.1943492222290596E-03
    0.1891860875938631E+01   -0.8481310365690162E+00    0.1670645525760940E-03
    0.2268769200169219E+01    0.7723691818209742E-01    0.2072307821289255E-03
    0.5000000000000000E+01    0.2504941971165485E+01    0.1250000000000000E+01
    0.5000000000000000E+01    0.2504941971165485E+01    0.2500000000000000E+01
    0.5000000000000000E+01    0.2504941971165485E+01    0.3750000000000000E+01
    0.5000000000000000E+01    0.2504941971165485E+01    0.5000000000000000E+01
    0.3750000000000000E+01    0.2504941971165485E+01    0.5000000000000000E+01
    0.2500000000000000E+01    0.2504941971165485E+01    0.5000000000000000E+01
    0.1250000000000000E+01    0.2504941971165485E+01    0.5000000000000000E+01
    0.0000000000000000E+00    0.2504941971165485E+01    0.5000000000000000E+01
    0.0000000000000000E+00    0.2504941971165485E+01    0.3750000000000000E+01
    0.0000000000000000E+00    0.2504941971165485E+01    0.2500000000000000E+01
    0.0000000000000000E+00    0.2504941971165485E+01    0.1250000000000000E+01
    0.9588956434896694E+00    0.2504941971165485E+01    0.9696525519578332E+00
    0.3981953078951595E+01    0.2504941971165485E+01    0.4070563854751879E+01
    0.4036122187252053E+01    0.2504941971165485E+01    0.1017567520098704E+01
    0.9637572773153283E+00    0.2504941971165485E+01    0.3973598203142784E+01
    0.1546540136992696E+01    0.2504941971165485E+01    0.2931570169317361E+01
    0.6973799521245156E+00    0.2504941971165485E+01    0.3070319952454722E+01
    0.8903742148364541E+00    0.2504941971165485E+01    0.2056562238189727E+01
    0.2183041995146080E+01    0.2504941971165485E+01    0.3960694449828992E+01
    0.3855844872710175E+01    0.2504941971165485E+01    0.2933250588120182E+01
    0.3152611367438256E+01    0.2504941971165485E+01    0.3637668388417448E+01
    0.3103307385242002E+01    0.2504941971165485E+01    0.4332607813100358E+01
    0.3266711045518477E+01    0.2504941971165485E+01    0.1889656617467324E+01
    0.4232537554485033E+01    0.2504941971165485E+01    0.1918626969804105E+01
    0.1905522374039041E+01    0.2504941971165485E+01    0.7226290832187846E+00
    0.2879767723646653E+01    0.2504941971165485E+01    0.9080945892241993E+00
    0.2012711365065439E+01    0.2504941971165485E+01    0.1767082390981646E+01
    0.2669681472994992E+01    0.2504941971165485E+01    0.2853394335013179E+01
    0.5000000000000000E+01    0.1250000000000000E+01    0.5000000000000000E+01
    0.5000000000000000E+01    0.0000000000000000E+00    0.5000000000000000E+01
    0.5000000000000000E+01   -0.1250000000000000E+01    0.5000000000000000E+01
    0.5000000000000000E+01   -0.2496589036642705E+01    0.5000000000000000E+01
    0.5000000000000000E+01   -0.2496589036642705E+01    0.3750000000000000E+01
    0.5000000000000000E+01   -0.2496589036642705E+01    0.2500000000000000E+01
    0.5000000000000000E+01   -0.2496589036642705E+01    0.1250000000000000E+01
    0.5000000000000000E+01    0.1578994732800803E+01    0.9058375365086910E+00
    0.5000000000000000E+01   -0.1583989954232354E+01    0.3982050490726493E+01
    0.5000000000000000E+01    0.1453322699199022E+01    0.4033849428301197E+01
    0.5000000000000000E+01   -0.1479596339503735E+01    0.1040505887381675E+01
    0.5000000000000000E+01   -0.3227322616384110E+00    0.1099454400140349E+01
    0.5000000000000000E+01    0.6593508822075582E+00    0.7354504170366591E+00
    0.5000000000000000E+01    0.8256214013940779E+00    0.1622302608453282E+01
    0.5000000000000000E+01   -0.1650070333782557E+01    0.2145871574390382E+01
    0.5000000000000000E+01   -0.4612828702537229E+00    0.4086422318222992E+01
    0.5000000000000000E+01   -0.8579242121530853E+00    0.2979540174134984E+01
    0.5000000000000000E+01   -0.1836846154397680E+01    0.3045064261640043E+01
    0.5000000000000000E+01    0.3508002863614053E+00    0.3428197553792836E+01
    0.5000000000000000E+01    0.5185680230613409E+00    0.4309693860063405E+01
    0.5000000000000000E+01    0.1738996113203182E+01    0.1827272193562204E+01
    0.5000000000000000E+01    0.1325493893339706E+01    0.2808563282768077E+01
    0.5000000000000000E+01   -0.8731419609589618E+00    0.1895995683864404E+01
    0.5000000000000000E+01    0.4906150219227333E-01    0.2273179336307740E+01
    0.0000000000000000E+00    0.1250000000000000E+01    0.5000000000000000E+01
    0.0000000000000000E+00    0.0000000000000000E+00    0.5000000000000000E+01
    0.0000000000000000E+00   -0.1250000000000000E+01    0.5000000000000000E+01
    0.0000000000000000E+00   -0.2496589036642705E+01    0.5000000000000000E+01
    0.1250000000000000E+01   -0.2496589036642705E+01    0.5000000000000000E+01
    0.2500000000000000E+01   -0.2496589036642705E+01    0.5000000000000000E+01
    0.3750000000000000E+01   -0.2496589036642705E+01    0.5000000000000000E+01
    0.4042003247744892E+01    0.1558308132739014E+01    0.5000000000000000E+01
    0.9304122287900499E+00   -0.1548001304379777E+01    0.5000000000000000E+01
    0.1037243024609388E+01    0.1462892710085612E+01    0.5000000000000000E+01
    0.3946240828834967E+01   -0.1445243809615570E+01    0.5000000000000000E+01
    0.4092527262848217E+01   -0.3455338993778935E+00    0.5000000000000000E+01
    0.4293103109154542E+01    0.6277660831404320E+00    0.5000000000000000E+01
    0.3241512314643519E+01    0.7429886854239611E+00    0.5000000000000000E+01
    0.2844289952419609E+01   -0.1588117879734118E+01    0.5000000000000000E+01
    0.7159905765450471E+00   -0.6002320124191652E+00    0.5000000000000000E+01
    0.1754341919796891E+01   -0.7398147869923652E+00    0.5000000000000000E+01
    0.1870296826774691E+01   -0.1788622905643739E+01    0.5000000000000000E+01
    0.9220614901912976E+00    0.3083720183248586E+00    0.5000000000000000E+01
    0.3101523624086016E+01    0.1777901774806180E+01    0.5000000000000000E+01
    0.2192512063922564E+01    0.1576861561598471E+01    0.5000000000000000E+01
    0.2024793420196460E+01    0.4773861992750707E+00    0.5000000000000000E+01
    0.2990627757741975E+01   -0.4878110785814084E+00    0.5000000000000000E+01
    0.0000000000000000E+00   -0.2496589036642705E+01    0.1250000000000000E+01
    0.0000000000000000E+00   -0.2496589036642705E+01    0.2500000000000000E+01
    0.0000000000000000E+00   -0.2496589036642705E+01    0.3750000000000000E+01
    0.0000000000000000E+00    0.1558308132739014E+01    0.4042003247744892E+01
    0.0000000000000000E+00   -0.1548001304379777E+01    0.9304122287900499E+00
    0.0000000000000000E+00    0.1462892710085612E+01    0.1037243024609388E+01
    0.0000000000000000E+00   -0.1445243809615570E+01    0.3946240828834967E+01
    0.0000000000000000E+00   -0.3455338993778935E+00    0.4092527262848217E+01
    0.0000000000000000E+00    0.6277660831404320E+00    0.4293103109154542E+01
    0.0000000000000000E+00    0.7429886854239611E+00    0.3241512314643519E+01
    0.0000000000000000E+00   -0.1588117879734118E+01    0.2844289952419609E+01
    0.0000000000000000E+00   -0.6002320124191652E+00    0.7159905765450471E+00
    0.0000000000000000E+00   -0.7398147869923652E+00    0.1754341919796891E+01
    0.0000000000000000E+00   -0.1788622905643739E+01    0.1870296826774691E+01
    0.0000000000000000E+00    0.3083720183248586E+00    0.9220614901912976E+00
    0.0000000000000000E+00    0.1777901774806180E+01    0.3101523624086016E+01
    0.0000000000000000E+00    0.1576861561598471E+01    0.2192512063922564E+01
[...]
POINT_DATA 213
SCALARS rho double 1
LOOKUP_TABLE default
   0.1346125454348765E+01
   0.9572079204764197E+00
   0.9461014735063689E+00
   0.9421827734980953E+00
   0.8436099990784788E+00
   0.7742020246832401E+00
   0.7627627010242951E+00
   0.7661484592263931E+00
   0.8310478320508803E+00
   0.9353607033366557E+00
   0.9344031119341574E+00
   0.9615892381727085E+00
   0.1448479787031608E+01
   0.1495421336027679E+01
   0.1646754521596490E+01
   0.1426607839843573E+01
   0.1009807573745856E+01
   0.9511452824616451E+00
   0.9438288710223777E+00
   0.9574484738724856E+00
   0.9414827254634806E+00
   0.1037117790803532E+01
   0.9258141539545572E+00
   0.9322491002390938E+00
   0.9538138718259606E+00
   0.9520435503895950E+00
   0.9350967943805876E+00
   0.9565535530928667E+00
   0.9378698048239019E+00
   0.9303313050016886E+00
   0.9446511008940803E+00
   0.8862346329182293E+00
   0.9424042956442819E+00
   0.9637263019127268E+00
   0.1008361093204636E+01
   0.1006714602051671E+01
   0.1001957226680182E+01
   0.1003216266944464E+01
   0.1004119991815538E+01
   0.1005207394718597E+01
   0.1004249481234556E+01
   0.1008267466074943E+01
   0.1023866978432772E+01
   0.1063751299093604E+01
   0.1019385864981021E+01
   0.1001779990666032E+01
   0.9646034864522380E+00
   0.1005262616981761E+01
   0.1000745002589285E+01
   0.1008694639432434E+01
   0.1008032001920798E+01
   0.1002353916995332E+01
   0.9980214295785953E+00
   0.1000593677670955E+01
   0.1001621102737945E+01
   0.9828102828116830E+00
   0.9844015539496380E+00
   0.9834287592849690E+00
   0.9790444718283611E+00
   0.9904791730042681E+00
   0.9935219552963842E+00
   0.1002005911795155E+01
   0.1002129762524864E+01
   0.1002270576425702E+01
   0.1001791040851518E+01
   0.1009816718846011E+01
   0.1006498992990319E+01
   0.9560848435047622E+00
   0.9253012017335405E+00
   0.1007054178032296E+01
   0.1004493323427179E+01
   0.9144889449635923E+00
   0.9091483226007959E+00
   0.8752503710171765E+00
   0.9768030240801375E+00
   0.1000529478075664E+01
   0.1005827574423054E+01
   0.1012895348514070E+01
   0.1011677619131653E+01
   0.1010416996736694E+01
   0.1005458122669266E+01
   0.9909254956314398E+00
   0.1005151469565961E+01
   0.9860797649160182E+00
   0.1005591647191826E+01
   0.1004239622563996E+01
   0.1002886063190681E+01
   0.1003350589896083E+01
   0.1003999119728311E+01
   0.1005116222716064E+01
   0.1003223768909387E+01
   0.1002666993707255E+01
   0.1002586367386159E+01
   0.1004069607200345E+01
   0.1004304329747298E+01
   0.1001640907715758E+01
   0.1002276135520264E+01
   0.1002543450048419E+01
   0.1003470977544191E+01
   0.1003380028816545E+01
   0.1003233377605899E+01
   0.1004430341068948E+01
   0.1004325066753823E+01
   0.1003653095022135E+01
   0.1003718521274996E+01
   0.1004318494861516E+01
   0.1004462313827807E+01
   0.1003628845815121E+01
   0.1064490587959969E+01
   0.1028445288913375E+01
   0.1009607275635732E+01
   0.1006626410039412E+01
   0.1163978993437301E+01
   0.1086025648634967E+01
   0.1007907990569688E+01
   0.1007252228609053E+01
   0.1006796438312544E+01
   0.1013053148515507E+01
   0.1019342089470089E+01
   0.1235143522456892E+01
   0.1032535975411809E+01
   0.1046567126692645E+01
   0.1201702752248817E+01
   0.1014670679288156E+01
   0.1032294773932663E+01
   0.1028221590850743E+01
   0.1014640927037102E+01
   0.1029001810616834E+01
   0.1002003312205366E+01
   0.9607837305534908E+00
   0.1006859117146347E+01
   0.1001326474766385E+01
   0.1010800235371746E+01
   0.1012236850207485E+01
   0.1000939943791764E+01
   0.9979314617869642E+00
   0.9980677398910867E+00
   0.1001191213505615E+01
   0.9841980829630913E+00
   0.9815067511149241E+00
   0.9648652454840391E+00
   0.9680709021217959E+00
   0.9914146138371690E+00
   0.9910913331179101E+00
   0.9925593322941063E+00
   0.1001727918470854E+01
   0.9993245279143077E+00
   0.9941439641930886E+00
   0.1006980890343841E+01
   0.1022611230350320E+01
   0.1001121384814954E+01
   0.1008783719543439E+01
   0.1004774503454828E+01
   0.1009028955286369E+01
   0.9967193981069543E+00
   0.1005567262160149E+01
   0.1003325198825987E+01
   0.9949860507413214E+00
   0.9833519218687967E+00
   0.9944515318439968E+00
   0.9973477161471443E+00
   0.9932512208444693E+00
   0.1001311805345084E+01
   0.1003000816859417E+01
   0.1002188605788514E+01
   0.9947117922336735E+00
   0.9937835385180299E+00
   0.1004861553962239E+01
   0.1020102516243174E+01
   0.1005340863868806E+01
   0.9817060330969212E+00
   0.1004974968458247E+01
   0.1012375958141484E+01
   0.9873744378617693E+00
   0.9551278205331492E+00
   0.9865276069660688E+00
   0.9865949036964599E+00
   0.9920079412056197E+00
   0.9934467302783739E+00
   0.9960652824593040E+00
   0.1037405376006204E+01
   0.1033165378538725E+01
   0.1001443753531407E+01
   0.1001928899987722E+01
   0.9912281114382340E+00
   0.9911116183629658E+00
   0.9649294083350807E+00
   0.9933725172560121E+00
   0.1006089122359150E+01
   0.1001962016708302E+01
   0.9908622924512933E+00
   0.9742274017324817E+00
   0.9420783511796134E+00
   0.9821600015386581E+00
   0.9794772573420020E+00
   0.9704349918902457E+00
   0.9720836519055414E+00
   0.9557866598328935E+00
   0.9497982862629089E+00
   0.9529849105871823E+00
   0.1002636652463897E+01
   0.1002475606829146E+01
   0.1000512975289537E+01
   0.1001675829463251E+01
   0.9610102006186968E+00
   0.9492478701555048E+00
   0.9586434399943105E+00
   0.1001121233860518E+01
   0.1000500337297501E+01
   0.1001160655510122E+01
   0.9807426278906998E+00
   0.9805603110907872E+00
   0.9629216562075074E+00
SCALARS u double 1
LOOKUP_TABLE default
   0.0000000000000000E+00
   0.0000000000000000E+00
   0.0000000000000000E+00
   0.0000000000000000E+00
   0.0000000000000000E+00
   0.0000000000000000E+00
   0.0000000000000000E+00
   0.0000000000000000E+00
   0.0000000000000000E+00
   0.0000000000000000E+00
   0.0000000000000000E+00
   0.0000000000000000E+00
   0.0000000000000000E+00
   0.0000000000000000E+00
   0.0000000000000000E+00
   0.0000000000000000E+00
   0.0000000000000000E+00
   0.0000000000000000E+00
   0.0000000000000000E+00
   0.0000000000000000E+00
   0.0000000000000000E+00
   0.0000000000000000E+00
   0.0000000000000000E+00
   0.0000000000000000E+00
   0.0000000000000000E+00
   0.0000000000000000E+00
   0.0000000000000000E+00
   0.0000000000000000E+00
   0.0000000000000000E+00
   0.0000000000000000E+00
   0.0000000000000000E+00
   0.0000000000000000E+00
   0.0000000000000000E+00
   0.4946017741476856E+00
   0.5336300222001540E+00
   0.5182740148996183E+00
   0.4930716032662809E+00
   0.4847755559380183E+00
   0.4868150823148448E+00
   0.4891447055581855E+00
   0.4958017867189546E+00
   0.4899022601522970E+00
   0.4718101885163519E+00
   0.4448932811317341E+00
   0.4844428678786059E+00
   0.5097723009275438E+00
   0.4402132742153641E+00
   0.4949587351773463E+00
   0.5222987907539233E+00
   0.4962767433195550E+00
   0.5223883219215957E+00
   0.5038142330576361E+00
   0.5644352579615620E+00
   0.5245870134325570E+00
   0.4990984325857968E+00
   0.5729385770148632E+00
   0.5693702143643187E+00
   0.3752129691558919E+00
   0.4003925757087328E+00
   0.5599629540384434E+00
   0.5562281246929351E+00
   0.4942649993308773E+00
   0.4948664228957628E+00
   0.4925621460001395E+00
   0.4913981197981140E+00
   0.5162622771319543E+00
   0.5363589847017421E+00
   0.4951204295437484E+00
   0.4520507647827807E+00
   0.5129031967815771E+00
   0.5117692768813272E+00
   0.4786240593185468E+00
   0.4931144712560815E+00
   0.4600300682108048E+00
   0.5242629478398644E+00
   0.5299868132763708E+00
   0.5129709910327630E+00
   0.5328937510725621E+00
   0.5309776575060040E+00
   0.5309766037388791E+00
   0.5063651529029155E+00
   0.5279597697697984E+00
   0.5409256382715508E+00
   0.5363674847342260E+00
   0.5374195374434307E+00
   0.4965362520057930E+00
   0.4975364164263453E+00
   0.4963808204024960E+00
   0.4955145690878974E+00
   0.4904158134277691E+00
   0.4902504877265380E+00
   0.4861601584017397E+00
   0.4854060768390308E+00
   0.4931949372500394E+00
   0.4910340586530671E+00
   0.4831668239525791E+00
   0.4872472610427596E+00
   0.4880033981802337E+00
   0.4872325302574474E+00
   0.4882153516317229E+00
   0.4952572356803391E+00
   0.4900714822552131E+00
   0.4903590138349025E+00
   0.4944353767256921E+00
   0.4868208055593619E+00
   0.4892743962416821E+00
   0.4881467582655520E+00
   0.4878251395108733E+00
   0.4449019461185856E+00
   0.4700104886643260E+00
   0.4891759378377747E+00
   0.4885977144064513E+00
   0.4510295747085472E+00
   0.4681798598881620E+00
   0.4876649586317747E+00
   0.4868255677566450E+00
   0.4909266652023548E+00
   0.4793951933932526E+00
   0.4657891938416513E+00
   0.3794306028799665E+00
   0.4903698368292064E+00
   0.4487934993756497E+00
   0.4432390141619819E+00
   0.4845733878059545E+00
   0.4621891189380640E+00
   0.4663609785968453E+00
   0.4747781349282985E+00
   0.4893616481380725E+00
   0.5085734434821351E+00
   0.4304902615860124E+00
   0.4927287826934565E+00
   0.5320323083629085E+00
   0.4913833265343859E+00
   0.5209407689647837E+00
   0.5061343898883255E+00
   0.5690645181390728E+00
   0.5275066302685361E+00
   0.5015080559215485E+00
   0.5821370902690742E+00
   0.5691494473674559E+00
   0.3402454700426508E+00
   0.3785430795343410E+00
   0.5753094270944755E+00
   0.5668552171038671E+00
   0.5703054436587687E+00
   0.5291885194524208E+00
   0.5449838314782435E+00
   0.5719097767253842E+00
   0.5385699899881593E+00
   0.5475900477727855E+00
   0.5821570619286969E+00
   0.4925317736133747E+00
   0.5041560890581004E+00
   0.4961304809407547E+00
   0.5562808675023833E+00
   0.4757818112673799E+00
   0.4950189457971353E+00
   0.5496176227992506E+00
   0.5889518016836128E+00
   0.5839568525155477E+00
   0.5468166759338928E+00
   0.5803873813283904E+00
   0.5106069689301966E+00
   0.5029545557249591E+00
   0.5033123604735119E+00
   0.5676224098653571E+00
   0.5564635326322370E+00
   0.4947140374075426E+00
   0.5506804156009080E+00
   0.5513548836460859E+00
   0.5658256467995932E+00
   0.4919960554372630E+00
   0.4927856969166023E+00
   0.3865444809572384E+00
   0.3687912885733495E+00
   0.5574383167620662E+00
   0.5761782734192712E+00
   0.4194383887967892E+00
   0.5823003207157724E+00
   0.4268243395531305E+00
   0.5397395043806372E+00
   0.5016180316382498E+00
   0.5119265894986965E+00
   0.5048449209313617E+00
   0.5752762868888828E+00
   0.5878367532122520E+00
   0.5382350806795837E+00
   0.5679644445405839E+00
   0.5352033914214970E+00
   0.5338475152836636E+00
   0.5582293337431733E+00
   0.5511556077637025E+00
   0.4256765030412609E+00
   0.5272991178785528E+00
   0.5796791158980702E+00
   0.3318319447998103E+00
   0.4761440175640850E+00
   0.5446494429222071E+00
   0.4800664032902965E+00
   0.3006202548285763E+00
   0.5031635416129182E+00
   0.5017194661191262E+00
   0.5129159062959391E+00
   0.5414125472658833E+00
   0.3435219170537145E+00
   0.3398087239762679E+00
   0.3190192615881984E+00
   0.5066215896387745E+00
   0.5123898828541903E+00
   0.5329069268307340E+00
   0.5881308453087586E+00
   0.4644886866514698E+00
   0.3529631211460034E+00
SCALARS v double 1
LOOKUP_TABLE default
   0.0000000000000000E+00
   0.0000000000000000E+00
   0.0000000000000000E+00
   0.0000000000000000E+00
   0.0000000000000000E+00
   0.0000000000000000E+00
   0.0000000000000000E+00
   0.0000000000000000E+00
   0.0000000000000000E+00
   0.0000000000000000E+00
   0.0000000000000000E+00
   0.0000000000000000E+00
   0.0000000000000000E+00
   0.0000000000000000E+00
   0.0000000000000000E+00
   0.0000000000000000E+00
   0.0000000000000000E+00
   0.0000000000000000E+00
   0.0000000000000000E+00
   0.0000000000000000E+00
   0.0000000000000000E+00
   0.0000000000000000E+00
   0.0000000000000000E+00
   0.0000000000000000E+00
   0.0000000000000000E+00
   0.0000000000000000E+00
   0.0000000000000000E+00
   0.0000000000000000E+00
   0.0000000000000000E+00
   0.0000000000000000E+00
   0.0000000000000000E+00
   0.0000000000000000E+00
   0.0000000000000000E+00
   0.0000000000000000E+00
   0.0000000000000000E+00
   0.0000000000000000E+00
   0.0000000000000000E+00
   0.0000000000000000E+00
   0.0000000000000000E+00
   0.0000000000000000E+00
   0.0000000000000000E+00
   0.0000000000000000E+00
   0.0000000000000000E+00
   0.0000000000000000E+00
   0.0000000000000000E+00
   0.0000000000000000E+00
   0.0000000000000000E+00
   0.0000000000000000E+00
   0.0000000000000000E+00
   0.0000000000000000E+00
   0.0000000000000000E+00
   0.0000000000000000E+00
   0.0000000000000000E+00
   0.0000000000000000E+00
   0.0000000000000000E+00
   0.0000000000000000E+00
   0.0000000000000000E+00
   0.0000000000000000E+00
   0.0000000000000000E+00
   0.0000000000000000E+00
   0.0000000000000000E+00
   0.8522685113409665E-03
  -0.1261749573703944E-02
  -0.1292363308140331E-02
   0.0000000000000000E+00
   0.0000000000000000E+00
   0.0000000000000000E+00
   0.0000000000000000E+00
  -0.1933896151364005E-01
   0.5043809621223315E-03
   0.2213315633754875E-02
   0.1419248918202601E-01
  -0.6754213327934071E-02
  -0.8171514482089789E-02
  -0.1325824948943661E-01
   0.4993762258030308E-02
   0.7362825686608198E-03
   0.3478258593267333E-02
   0.1947011530287163E-02
   0.3168335295089442E-02
   0.1756008449263169E-02
  -0.7296132165560651E-02
  -0.6885029617702166E-04
   0.4551827091999824E-02
  -0.4165830062656472E-03
  -0.6614704411421523E-04
  -0.2024458954040244E-03
   0.8053188657591619E-03
   0.0000000000000000E+00
   0.0000000000000000E+00
   0.0000000000000000E+00
   0.0000000000000000E+00
   0.4741383619374908E-03
   0.1624239958447989E-02
  -0.1272803879726160E-02
  -0.9958716530627677E-03
  -0.2074753585614118E-02
  -0.9956025275282441E-03
  -0.7502226666990465E-03
  -0.7406458776064802E-03
   0.6052327983618992E-04
  -0.5959325721426405E-03
   0.8041878444805437E-03
  -0.1729780536571829E-02
   0.3136507529181434E-03
  -0.5746913952179195E-04
  -0.8886674414771063E-03
  -0.1049995270308230E-02
   0.0000000000000000E+00
   0.0000000000000000E+00
   0.0000000000000000E+00
  -0.1035502160925939E-02
  -0.7790030217367782E-02
   0.1821264683727007E-01
  -0.2905068521256830E-04
  -0.1377144056555565E-02
  -0.2028266880630158E-02
  -0.5613619442574383E-02
  -0.1620468823029002E-02
  -0.6357572998415010E-02
  -0.4327286169353593E-02
   0.1517763735421117E-02
   0.3300580551283022E-01
   0.4396200982833313E-04
  -0.2766593516129542E-02
   0.3629209529165125E-02
   0.3911015880179794E-03
   0.0000000000000000E+00
   0.0000000000000000E+00
   0.0000000000000000E+00
   0.0000000000000000E+00
   0.0000000000000000E+00
   0.0000000000000000E+00
   0.0000000000000000E+00
   0.0000000000000000E+00
   0.0000000000000000E+00
   0.0000000000000000E+00
   0.0000000000000000E+00
   0.0000000000000000E+00
   0.0000000000000000E+00
   0.0000000000000000E+00
   0.0000000000000000E+00
   0.0000000000000000E+00
   0.0000000000000000E+00
   0.5001705347362445E-02
   0.3213869641849995E-02
   0.8126002579985936E-02
   0.6096308704332165E-02
   0.1117409989076454E-01
   0.1403808644170737E-01
  -0.3216050798159417E-03
   0.5161877180107125E-02
   0.2930096334717198E-02
   0.3378016370512214E-02
   0.3728551737946712E-02
  -0.1469587957605527E-01
  -0.6137860566719636E-03
   0.6639860377241756E-02
   0.1457428364889995E-02
   0.1959225262485257E-02
   0.4263900419597460E-02
  -0.2812377000508740E-02
   0.1267523558234141E-02
   0.2851861671507256E-02
   0.1534377716498468E-02
   0.2563302770266878E-02
   0.2013283459209030E-02
   0.2154302684301475E-02
   0.8584035825034836E-02
  -0.3829991015717387E-02
   0.6155865611043085E-02
   0.4713206929996182E-04
  -0.4232114057649382E-03
  -0.1674138779527366E-01
  -0.4996582011161145E-02
  -0.4827142338989473E-02
   0.3399339224527741E-02
  -0.6077642939283364E-02
   0.3202571864963569E-04
  -0.3284964212659321E-01
  -0.3181945138677915E-02
   0.4581343128118052E-02
   0.9682851678796778E-03
   0.2133425718869844E-02
   0.4530494940793260E-02
   0.2692432777018717E-02
   0.3242956252685283E-02
   0.5223419323373357E-02
   0.1957877439966440E-02
   0.7485649524445008E-03
  -0.5742972145375766E-04
  -0.5323121587108550E-02
  -0.6973243639937582E-02
  -0.9635942983098431E-03
   0.1062774682343015E-02
  -0.2105465302383461E-02
  -0.3218910388707141E-02
  -0.2544781753528339E-02
  -0.4131559045737461E-02
  -0.7566051664458549E-02
  -0.2012630571770936E-02
   0.6512521591240289E-03
  -0.1910854280287446E-03
   0.1227866403154605E-02
  -0.3503144358848484E-02
   0.4846321120441454E-02
  -0.8642732535346498E-02
   0.3323456564663443E-04
  -0.3331469468264459E-03
   0.2558524207987203E-02
   0.1615751178124904E-02
   0.2039186647419976E-02
  -0.5641420373658331E-02
SCALARS w double 1
LOOKUP_TABLE default
   0.0000000000000000E+00
   0.0000000000000000E+00
   0.0000000000000000E+00
   0.0000000000000000E+00
   0.0000000000000000E+00
   0.0000000000000000E+00
   0.0000000000000000E+00
   0.0000000000000000E+00
   0.0000000000000000E+00
   0.0000000000000000E+00
   0.0000000000000000E+00
   0.0000000000000000E+00
   0.0000000000000000E+00
   0.0000000000000000E+00
   0.0000000000000000E+00
   0.0000000000000000E+00
   0.0000000000000000E+00
   0.0000000000000000E+00
   0.0000000000000000E+00
   0.0000000000000000E+00
   0.0000000000000000E+00
   0.0000000000000000E+00
   0.0000000000000000E+00
   0.0000000000000000E+00
   0.0000000000000000E+00
   0.0000000000000000E+00
   0.0000000000000000E+00
   0.0000000000000000E+00
   0.0000000000000000E+00
   0.0000000000000000E+00
   0.0000000000000000E+00
   0.0000000000000000E+00
   0.0000000000000000E+00
  -0.1007228668326997E+00
  -0.4245433321889259E-01
   0.7172561404378064E-03
   0.5709986773752263E-02
   0.5687875236036320E-03
   0.1604624619392036E-02
   0.3371610703894309E-02
   0.2364125105913664E-02
   0.4716933506908314E-03
   0.3528356581147074E-02
   0.4533364142439612E-01
   0.6563401540823852E-01
   0.8390789129064240E-03
  -0.2266144508167635E-01
   0.4270887657212206E-02
   0.1341954240803466E-01
   0.1029726539082950E-01
   0.4870829585171386E-01
   0.2381843674240446E-02
  -0.6533496018419296E-02
  -0.7357156985565153E-03
   0.3058138509332854E-03
   0.3847402744535563E-02
  -0.3893490550325111E-01
   0.1820276344980173E-01
   0.1120450819704775E-01
   0.3395783765165681E-01
   0.8380772421439094E-02
   0.4930499634248242E-02
   0.4978038319336100E-02
   0.4903417549458702E-02
   0.6059095521086980E-02
   0.2697070440817075E-02
  -0.4127746811650249E-01
  -0.9927034006133023E-01
  -0.1120357799613780E+00
   0.5146708419476747E-02
   0.4219393252087364E-02
  -0.1002589747626479E+00
  -0.9892490591072266E-01
  -0.9835430234775810E-01
  -0.9443832722917235E-01
  -0.6790915288196336E-01
   0.5199098249268790E-02
  -0.1927271142793571E-01
  -0.1563457604641041E-01
  -0.5963780375031293E-02
   0.6826295360537228E-02
  -0.7999802986760990E-01
  -0.2776385001358841E-01
  -0.8086434256622826E-01
  -0.5863270773381876E-01
   0.3073858504715424E-02
   0.2684918295173002E-02
   0.2644449085380190E-02
   0.3456448606582725E-02
   0.3997496383739553E-02
   0.1198980059325984E-02
  -0.1348201197684632E-03
   0.2032532024574076E-02
   0.4893591958270832E-02
   0.3863923267630072E-02
   0.1127784590489261E-02
   0.1191079344532580E-02
   0.1464036917547325E-02
  -0.2238082325474843E-04
   0.9062475361755216E-04
   0.4386723121519381E-02
   0.2711859097511913E-02
   0.2316137004349485E-02
   0.5006280643718927E-02
   0.1068063500306708E-02
   0.2706358301642940E-02
   0.2010151216626078E-02
   0.3378737671924768E-04
   0.8386248731743957E-01
   0.2832524910833713E-02
  -0.8471480220841891E-03
  -0.1275294865433759E-03
   0.1410903160167712E+00
   0.1236623358853117E+00
  -0.1228859174231503E-02
  -0.4383081104060041E-02
  -0.2802344526406249E-03
  -0.6477856648567026E-02
  -0.1895577136895572E-02
   0.1559393266701513E+00
   0.7528595283416877E-01
   0.2567561666833407E-01
   0.1661312374692011E+00