# vtk DataFile Version 2.0
FUN3D:global_image_vtk
ASCII
DATASET UNSTRUCTURED_GRID
POINTS 213 double
   -0.5474461647464359E-02    0.2504942108992469E+01    0.8091300847736062E-04
    0.1245419551110226E+01    0.2504942108992469E+01    0.1044183125559372E-03
    0.2497696693168747E+01    0.2504942108992469E+01    0.1111087182616568E-03
    0.3750591605607594E+01    0.2504942108992469E+01    0.1362374438995308E-03
    0.5003221543509131E+01    0.2504942108992469E+01    0.9779094677684092E-04
    0.5004677162048951E+01    0.1281291972635014E+01    0.1643464877413130E-03
    0.5004773357424145E+01    0.2775097003571105E-01    0.1913980465250055E-03
    0.5003581603763585E+01   -0.1225853271170730E+01    0.1612950580424033E-03
    0.5001953073820516E+01   -0.2496588956965093E+01    0.1087508196493390E-03
    0.3750348610502709E+01   -0.2496588956965093E+01    0.1462302879465235E-03
    0.2498612054680936E+01   -0.2496588956965093E+01    0.1018102951491472E-03
    0.1247175933891794E+01   -0.2496588956965093E+01    0.1118028953183944E-03
   -0.3383506218729655E-02   -0.2496588956965093E+01    0.8200693890121486E-04
   -0.4257637075825464E-02   -0.1225734579341631E+01    0.3505769555085185E-04
   -0.5251480946163385E-02    0.2619518069262334E-01    0.1043464847781472E-03
   -0.5675494342202428E-02    0.1278222181760415E+01    0.8332061284090378E-04
    0.9003217230366406E+00    0.1608979581192332E+01    0.8746898418251807E-04
    0.3983172957383343E+01   -0.1561211172856604E+01    0.1757872076694859E-03
    0.4035602573383526E+01    0.1486761121250088E+01    0.1720812592351575E-03
    0.1036614353405146E+01   -0.1455626121426647E+01    0.1049762811091594E-03
    0.1094354111420979E+01   -0.2964619229218530E+00    0.1262439117401118E-03
    0.7298402407342440E+00    0.6874686840224647E+00    0.1050177392536681E-03
    0.1617019342295109E+01    0.8553214718266935E+00    0.1537467761766012E-03
    0.2143199649253681E+01   -0.1627128018694232E+01    0.1608934305313158E-03
    0.4088841123111252E+01   -0.4351037435492378E+00    0.2728087410664849E-03
    0.2977916549690846E+01   -0.8334983349163732E+00    0.2255889100218752E-03
    0.3044094005785530E+01   -0.1814360944032876E+01    0.1622372213935112E-03
    0.3427866648944720E+01    0.3813911163548135E+00    0.2941131036180901E-03
    0.4313226241404377E+01    0.5489137077003723E+00    0.2321444441834173E-03
    0.1823033599252240E+01    0.1771266030608995E+01    0.1846034274876858E-03
    0.2806312023364750E+01    0.1358630549737759E+01    0.1953548522251599E-03
    0.1891861383332889E+01   -0.8481304479649456E+00    0.1678934606116959E-03
    0.2268769858566397E+01    0.7723760925646571E-01    0.2082700328655176E-03
    0.5000000000000000E+01    0.2504942108992469E+01    0.1250000000000000E+01
    0.5000000000000000E+01    0.2504942108992469E+01    0.2500000000000000E+01
    0.5000000000000000E+01    0.2504942108992469E+01    0.3750000000000000E+01
    0.5000000000000000E+01    0.2504942108992469E+01    0.5000000000000000E+01
    0.3750000000000000E+01    0.2504942108992469E+01    0.5000000000000000E+01
    0.2500000000000000E+01    0.2504942108992469E+01    0.5000000000000000E+01
    0.1250000000000000E+01    0.2504942108992469E+01    0.5000000000000000E+01
    0.0000000000000000E+00    0.2504942108992469E+01    0.5000000000000000E+01
    0.0000000000000000E+00    0.2504942108992469E+01    0.3750000000000000E+01
    0.0000000000000000E+00    0.2504942108992469E+01    0.2500000000000000E+01
    0.0000000000000000E+00    0.2504942108992469E+01    0.1250000000000000E+01
    0.9588958765028878E+00    0.2504942108992469E+01    0.9696532220544233E+00
    0.3981953144106603E+01    0.2504942108992469E+01    0.4070564007300077E+01
    0.4036122468443808E+01    0.2504942108992469E+01    0.1017568343123276E+01
    0.9637572580372984E+00    0.2504942108992469E+01    0.3973598328748807E+01
    0.1546540174922874E+01    0.2504942108992469E+01    0.2931570549403786E+01
    0.6973799405135030E+00    0.2504942108992469E+01    0.3070320145042755E+01
    0.8903742556777821E+00    0.2504942108992469E+01    0.2056562615153817E+01
    0.2183042012330854E+01    0.2504942108992469E+01    0.3960694677713724E+01
    0.3855845026655452E+01    0.2504942108992469E+01    0.2933250954431864E+01
    0.3152611457925804E+01    0.2504942108992469E+01    0.3637668692067722E+01
    0.3103307426895492E+01    0.2504942108992469E+01    0.4332607967855965E+01
    0.3266711349670357E+01    0.2504942108992469E+01    0.1889657314915317E+01
    0.4232537773062778E+01    0.2504942108992469E+01    0.1918627389967961E+01
    0.1905522719845845E+01    0.2504942108992469E+01    0.7226300022552048E+00
    0.2879768340401895E+01    0.2504942108992469E+01    0.9080955143976293E+00
    0.2012711605685120E+01    0.2504942108992469E+01    0.1767083111617870E+01
    0.2669681613777160E+01    0.2504942108992469E+01    0.2853394842509520E+01
    0.5000000000000000E+01    0.1250000000000000E+01    0.5000000000000000E+01
    0.5000000000000000E+01    0.0000000000000000E+00    0.5000000000000000E+01
    0.5000000000000000E+01   -0.1250000000000000E+01    0.5000000000000000E+01
    0.5000000000000000E+01   -0.2496588956965093E+01    0.5000000000000000E+01
    0.5000000000000000E+01   -0.2496588956965093E+01    0.3750000000000000E+01
    0.5000000000000000E+01   -0.2496588956965093E+01    0.2500000000000000E+01
    0.5000000000000000E+01   -0.2496588956965093E+01    0.1250000000000000E+01
    0.5000000000000000E+01    0.1578994732800803E+01    0.9058375365086910E+00
    0.5000000000000000E+01   -0.1583989954232354E+01    0.3982050490726493E+01
    0.5000000000000000E+01    0.1453322699199022E+01    0.4033849428301197E+01
    0.5000000000000000E+01   -0.1479596339503735E+01    0.1040505887381675E+01
    0.5000000000000000E+01   -0.3227322616384110E+00    0.1099454400140349E+01
    0.5000000000000000E+01    0.6593508822075582E+00    0.7354504170366591E+00
    0.5000000000000000E+01    0.8256214013940779E+00    0.1622302608453282E+01
    0.5000000000000000E+01   -0.1650070333782557E+01    0.2145871574390382E+01
    0.5000000000000000E+01   -0.4612828702537229E+00    0.4086422318222992E+01
    0.5000000000000000E+01   -0.8579242121530853E+00    0.2979540174134984E+01
    0.5000000000000000E+01   -0.1836846154397680E+01    0.3045064261640043E+01
    0.5000000000000000E+01    0.3508002863614053E+00    0.3428197553792836E+01
    0.5000000000000000E+01    0.5185680230613409E+00    0.4309693860063405E+01
    0.5000000000000000E+01    0.1738996113203182E+01    0.1827272193562204E+01
    0.5000000000000000E+01    0.1325493893339706E+01    0.2808563282768077E+01
    0.5000000000000000E+01   -0.8731419609589618E+00    0.1895995683864404E+01
    0.5000000000000000E+01    0.4906150219227333E-01    0.2273179336307740E+01
    0.0000000000000000E+00    0.1250000000000000E+01    0.5000000000000000E+01
    0.0000000000000000E+00    0.0000000000000000E+00    0.5000000000000000E+01
    0.0000000000000000E+00   -0.1250000000000000E+01    0.5000000000000000E+01
    0.0000000000000000E+00   -0.2496588956965093E+01    0.5000000000000000E+01
    0.1250000000000000E+01   -0.2496588956965093E+01    0.5000000000000000E+01
    0.2500000000000000E+01   -0.2496588956965093E+01    0.5000000000000000E+01
    0.3750000000000000E+01   -0.2496588956965093E+01    0.5000000000000000E+01
    0.4042003247744892E+01    0.1558308132739014E+01    0.5000000000000000E+01
    0.9304122287900499E+00   -0.1548001304379777E+01    0.5000000000000000E+01
    0.1037243024609388E+01    0.1462892710085612E+01    0.5000000000000000E+01
    0.3946240828834967E+01   -0.1445243809615570E+01    0.5000000000000000E+01
    0.4092527262848217E+01   -0.3455338993778935E+00    0.5000000000000000E+01
    0.4293103109154542E+01    0.6277660831404320E+00    0.5000000000000000E+01
    0.3241512314643519E+01    0.7429886854239611E+00    0.5000000000000000E+01
    0.2844289952419609E+01   -0.1588117879734118E+01    0.5000000000000000E+01
    0.7159905765450471E+00   -0.6002320124191652E+00    0.5000000000000000E+01
    0.1754341919796891E+01   -0.7398147869923652E+00    0.5000000000000000E+01
    0.1870296826774691E+01   -0.1788622905643739E+01    0.5000000000000000E+01
    0.9220614901912976E+00    0.3083720183248586E+00    0.5000000000000000E+01
    0.3101523624086016E+01    0.1777901774806180E+01    0.5000000000000000E+01
    0.2192512063922564E+01    0.1576861561598471E+01    0.5000000000000000E+01
    0.2024793420196460E+01    0.4773861992750707E+00    0.5000000000000000E+01
    0.2990627757741975E+01   -0.4878110785814084E+00    0.5000000000000000E+01
    0.0000000000000000E+00   -0.2496588956965093E+01    0.1250000000000000E+01
    0.0000000000000000E+00   -0.2496588956965093E+01    0.2500000000000000E+01
    0.0000000000000000E+00   -0.2496588956965093E+01    0.3750000000000000E+01
    0.0000000000000000E+00    0.1558308132739014E+01    0.4042003247744892E+01
    0.0000000000000000E+00   -0.1548001304379777E+01    0.9304122287900499E+00
    0.0000000000000000E+00    0.1462892710085612E+01    0.1037243024609388E+01
    0.0000000000000000E+00   -0.1445243809615570E+01    0.3946240828834967E+01
    0.0000000000000000E+00   -0.3455338993778935E+00    0.4092527262848217E+01
    0.0000000000000000E+00    0.6277660831404320E+00    0.4293103109154542E+01
    0.0000000000000000E+00    0.7429886854239611E+00    0.3241512314643519E+01
    0.0000000000000000E+00   -0.1588117879734118E+01    0.2844289952419609E+01
    0.0000000000000000E+00   -0.6002320124191652E+00    0.7159905765450471E+00
    0.0000000000000000E+00   -0.7398147869923652E+00    0.1754341919796891E+01
    0.0000000000000000E+00   -0.1788622905643739E+01    0.1870296826774691E+01
    0.0000000000000000E+00    0.3083720183248586E+00    0.9220614901912976E+00
    0.0000000000000000E+00    0.1777901774806180E+01    0.3101523624086016E+01
    0.0000000000000000E+00    0.1576861561598471E+01    0.2192512063922564E+01
[...]
POINT_DATA 213
SCALARS rho double 1
LOOKUP_TABLE default
   0.1219599756185548E+01
   0.9221794563054524E+00
   0.9104475562892249E+00
   0.8966770640630399E+00
   0.7819498189224529E+00
   0.7116570494963105E+00
   0.6990708549017681E+00
   0.7029542990909201E+00
   0.7687358382221130E+00
   0.8895234059481837E+00
   0.8987463864577331E+00
   0.9249600963732003E+00
   0.1300246122669981E+01
   0.1348039966998504E+01
   0.1456337435585007E+01
   0.1286719146339403E+01
   0.9619640499947805E+00
   0.9047653896996152E+00
   0.8972304419880217E+00
   0.9249192937614361E+00
   0.9126331060916560E+00
   0.9866006617426940E+00
   0.8974310101935631E+00
   0.8999718409643123E+00
   0.9067475713280623E+00
   0.9112478436664905E+00
   0.8943865734313406E+00
   0.9125851211150312E+00
   0.8902529369206852E+00
   0.9018654106829473E+00
   0.9063596315129013E+00
   0.8623952686412758E+00
   0.9078065612220245E+00
   0.9506864916800627E+00
   0.1008490247799694E+01
   0.1006977527229621E+01
   0.1000142875152005E+01
   0.1000491169043082E+01
   0.1001010314185107E+01
   0.1002467382378932E+01
   0.1001944838808468E+01
   0.1004885968571528E+01
   0.1016625201434800E+01
   0.1058313364029692E+01
   0.1005436848194118E+01
   0.1000007778957339E+01
   0.9457761789861806E+00
   0.1002042174559101E+01
   0.9982828391621658E+00
   0.1004492424676940E+01
   0.1005371546720290E+01
   0.9993111834894195E+00
   0.9977999030777115E+00
   0.9988039198612856E+00
   0.9987216023857380E+00
   0.9780925329508833E+00
   0.9796710171086316E+00
   0.9639503001735720E+00
   0.9601325757885456E+00
   0.9867987858910245E+00
   0.9922399929818096E+00
   0.1000340062105401E+01
   0.1000539170178958E+01
   0.1000668655272095E+01
   0.9998256699854209E+00
   0.1009783142317694E+01
   0.1007174164431324E+01
   0.9448360951930492E+00
   0.9034591335120933E+00
   0.1007039744698234E+01
   0.1004193339876686E+01
   0.8965165728656795E+00
   0.8926684431696081E+00
   0.8470447919397748E+00
   0.9708420659105820E+00
   0.1000201876846742E+01
   0.1006091567746547E+01
   0.1015640011932826E+01
   0.1012987793044154E+01
   0.1012862138395394E+01
   0.1005118608846326E+01
   0.9863616515947088E+00
   0.1006593112787293E+01
   0.9849760833283223E+00
   0.1008140104051823E+01
   0.1001902536861534E+01
   0.1000777855162989E+01
   0.1001300638588862E+01
   0.1001843114725360E+01
   0.1002349008665533E+01
   0.1000287193412096E+01
   0.1000191528280990E+01
   0.9997725238501168E+00
   0.1001746454192719E+01
   0.1001907811078117E+01
   0.9986511400619538E+00
   0.9995346415812366E+00
   0.9999207857085264E+00
   0.1000198533148500E+01
   0.1000442978401054E+01
   0.1001058906390091E+01
   0.1001457973238971E+01
   0.1001331802708067E+01
   0.1001525902333230E+01
   0.1000860719310530E+01
   0.1001344121003557E+01
   0.1001108522395552E+01
   0.1000543624497630E+01
   0.1060181079588132E+01
   0.1020434683892327E+01
   0.1005937316852168E+01
   0.1003463840201274E+01
   0.1142066813902562E+01
   0.1083370438855346E+01
   0.1004378451291460E+01
   0.1003909052891522E+01
   0.1003789679257801E+01
   0.1006675371497217E+01
   0.1012240460878107E+01
   0.1193114680963002E+01
   0.1028000891494735E+01
   0.1034785146406695E+01
   0.1169417074916088E+01
   0.1009874366633007E+01
   0.1023546060208802E+01
   0.1017121834976703E+01
   0.1007874857133958E+01
   0.1013904259630446E+01
   0.1000120931783455E+01
   0.9442373650458611E+00
   0.1003512128836710E+01
   0.9988675123344931E+00
   0.1006433235294268E+01
   0.1009136798480121E+01
   0.9979419701906115E+00
   0.9977847398161132E+00
   0.9961676038788440E+00
   0.9984779689690619E+00
   0.9810173503613523E+00
   0.9780875915398030E+00
   0.9479696369642917E+00
   0.9505423830433196E+00
   0.9877991281160567E+00
   0.9899199532421631E+00
   0.9925443675202800E+00
   0.9998149550653438E+00
   0.9986043062193934E+00
   0.9946495419994841E+00
   0.1006783181341338E+01
   0.1021195740563608E+01
   0.9979992266401559E+00
   0.1004785881397977E+01
   0.1001443207387780E+01
   0.1004869907492741E+01
   0.9952898358168722E+00
   0.9853957358107417E+00
   0.1000226142494320E+01
   0.9938930278905544E+00
   0.9819631414251759E+00
   0.9943513198194261E+00
   0.9968774782409074E+00
   0.9937156673491562E+00
   0.9987031820256869E+00
   0.1000033425370076E+01
   0.9996686862501772E+00
   0.9958480590934687E+00
   0.9933618365640641E+00
   0.1001379820483220E+01
   0.1018342495484021E+01
   0.1002761134503954E+01
   0.9806466467940737E+00
   0.1001874233669561E+01
   0.1008205710376630E+01
   0.9702346080030658E+00
   0.9431324484531505E+00
   0.9846785842004433E+00
   0.9843645507609455E+00
   0.9754695324927691E+00
   0.9908380066245629E+00
   0.9779133343076706E+00
   0.1033958327687356E+01
   0.1021656675851872E+01
   0.1000033076023872E+01
   0.9991734665252028E+00
   0.9919053207400909E+00
   0.9907247638734040E+00
   0.9574010104196584E+00
   0.9930505329662603E+00
   0.1006289256510604E+01
   0.1002044008181088E+01
   0.9896476814007268E+00
   0.9652798848356979E+00
   0.9203409322997288E+00
   0.9724365628025005E+00
   0.9781835501487847E+00
   0.9559727410879111E+00
   0.9617642790223594E+00
   0.9490309708367607E+00
   0.9366913771566986E+00
   0.9303106822928984E+00
   0.9992917649059628E+00
   0.9994620543149584E+00
   0.9988026426153717E+00
   0.1002017148906605E+01
   0.9391472636471015E+00
   0.9239061573398458E+00
   0.9359221321767441E+00
   0.9984142274354972E+00
   0.9983447849824744E+00
   0.1000450569514239E+01
   0.9793848756408374E+00
   0.9713544565487525E+00
   0.9447099840262860E+00
SCALARS u double 1
LOOKUP_TABLE default
   0.0000000000000000E+00
   0.0000000000000000E+00
   0.0000000000000000E+00
   0.0000000000000000E+00
   0.0000000000000000E+00
   0.0000000000000000E+00
   0.0000000000000000E+00
   0.0000000000000000E+00
   0.0000000000000000E+00
   0.0000000000000000E+00
   0.0000000000000000E+00
   0.0000000000000000E+00
   0.0000000000000000E+00
   0.0000000000000000E+00
   0.0000000000000000E+00
   0.0000000000000000E+00
   0.0000000000000000E+00
   0.0000000000000000E+00
   0.0000000000000000E+00
   0.0000000000000000E+00
   0.0000000000000000E+00
   0.0000000000000000E+00
   0.0000000000000000E+00
   0.0000000000000000E+00
   0.0000000000000000E+00
   0.0000000000000000E+00
   0.0000000000000000E+00
   0.0000000000000000E+00
   0.0000000000000000E+00
   0.0000000000000000E+00
   0.0000000000000000E+00
   0.0000000000000000E+00
   0.0000000000000000E+00
   0.5044603243155379E+00
   0.5290128823944591E+00
   0.5144844622047982E+00
   0.4932261974287150E+00
   0.4881008617342322E+00
   0.4912134840236665E+00
   0.4932025122581261E+00
   0.4982366675666254E+00
   0.4935756961051938E+00
   0.4788818174439118E+00
   0.4518342571436223E+00
   0.4750761859242591E+00
   0.5097822933828934E+00
   0.4511923707803019E+00
   0.4980813755143522E+00
   0.5232695960277458E+00
   0.4995199520513525E+00
   0.5239977650350688E+00
   0.5062466439698684E+00
   0.5621723023946851E+00
   0.5246981204231929E+00
   0.5014430231165591E+00
   0.5724413507165333E+00
   0.5706991193064653E+00
   0.3697808237643312E+00
   0.4030355299019023E+00
   0.5559040863655731E+00
   0.5550073834138158E+00
   0.4941853973251186E+00
   0.4946211006293775E+00
   0.4922531451873883E+00
   0.4916944483630707E+00
   0.5126221392065591E+00
   0.5320038537485656E+00
   0.5051849179811015E+00
   0.4700257786161564E+00
   0.5096970937532112E+00
   0.5089650939774101E+00
   0.4955092760523104E+00
   0.5091185729957558E+00
   0.4859971807294319E+00
   0.5290202572388129E+00
   0.5276941345822802E+00
   0.5095392021648434E+00
   0.5265026106299785E+00
   0.5255842977319386E+00
   0.5249271123157110E+00
   0.5039111768170618E+00
   0.5284458872990453E+00
   0.5353835353871654E+00
   0.5371547978631300E+00
   0.5324041625044638E+00
   0.4987536891736747E+00
   0.4995695884087549E+00
   0.4985677558335430E+00
   0.4978565943440968E+00
   0.4945362039436772E+00
   0.4946345130409215E+00
   0.4894888934162351E+00
   0.4881819506238416E+00
   0.4965709512498431E+00
   0.4946581046845469E+00
   0.4860572034630162E+00
   0.4896775377519199E+00
   0.4900369835439640E+00
   0.4911741470339674E+00
   0.4926134285703934E+00
   0.4981833660903833E+00
   0.4946278572299342E+00
   0.4948388616322769E+00
   0.4976375570676981E+00
   0.4907922864344679E+00
   0.4936008514100124E+00
   0.4927611387523803E+00
   0.4920479489530173E+00
   0.4513300820404019E+00
   0.4773811680142521E+00
   0.4929577986401482E+00
   0.4922012579675210E+00
   0.4645173847811750E+00
   0.4729118701262839E+00
   0.4915210748714760E+00
   0.4906744143898478E+00
   0.4940154211365061E+00
   0.4854930425328844E+00
   0.4731448927468714E+00
   0.4017685851575125E+00
   0.4925808502804791E+00
   0.4586091646071313E+00
   0.4595049378015195E+00
   0.4895105193216928E+00
   0.4701585842913967E+00
   0.4742237591802350E+00
   0.4816345255435511E+00
   0.4809631561057211E+00
   0.5081992530699386E+00
   0.4436620319950647E+00
   0.4960918315668841E+00
   0.5314784026700430E+00
   0.4949808479883326E+00
   0.5219300960775682E+00
   0.5081306554161692E+00
   0.5664006895364331E+00
   0.5269157237085577E+00
   0.5035398650985214E+00
   0.5834529989742061E+00
   0.5720232680361773E+00
   0.3408862218221191E+00
   0.3851958926813994E+00
   0.5717593351627820E+00
   0.5645094381626367E+00
   0.5689242280121380E+00
   0.5291697491317764E+00
   0.5449156606178545E+00
   0.5701879109269146E+00
   0.5404098316822341E+00
   0.5487778385374004E+00
   0.5790107501626039E+00
   0.4955237207967749E+00
   0.5064966983987618E+00
   0.4994485622594277E+00
   0.5533092914648956E+00
   0.4597901394793212E+00
   0.4983754110066151E+00
   0.5489763450324364E+00
   0.5894373245585184E+00
   0.5821699726622019E+00
   0.5457063979351638E+00
   0.5785144295842027E+00
   0.5122045124149295E+00
   0.5055089296689451E+00
   0.5048992602783539E+00
   0.5645297349595785E+00
   0.5552268399180610E+00
   0.4977584626608882E+00
   0.5488208970493933E+00
   0.5486891294293760E+00
   0.5643387121459625E+00
   0.4955123295214979E+00
   0.4958799372313464E+00
   0.3908417281199588E+00
   0.3725912946103827E+00
   0.5584898573100867E+00
   0.5739392190587022E+00
   0.4177439088127188E+00
   0.5813082023664413E+00
   0.4186000165315589E+00
   0.5391904549005413E+00
   0.4993241078922953E+00
   0.5113879064738898E+00
   0.5070199203079218E+00
   0.5732637008258411E+00
   0.5857706799366188E+00
   0.5448200282975065E+00
   0.5657061485414426E+00
   0.5320323299635302E+00
   0.5310314968785264E+00
   0.5561913755464579E+00
   0.5552155608231143E+00
   0.4400995505508887E+00
   0.5282987487630322E+00
   0.5807277104704329E+00
   0.3397143493305644E+00
   0.4812259906415416E+00
   0.5510167339211408E+00
   0.4924431358273658E+00
   0.3108746951687744E+00
   0.5051824637214507E+00
   0.5043575072452490E+00
   0.5129617726499478E+00
   0.5385861724319557E+00
   0.3519685391292816E+00
   0.3560470023920430E+00
   0.3308149635969400E+00
   0.5084565880910361E+00
   0.5125589635795543E+00
   0.5314315731857181E+00
   0.5857976760030983E+00
   0.4640826577120363E+00
   0.3627241431874569E+00
SCALARS v double 1
LOOKUP_TABLE default
   0.0000000000000000E+00
   0.0000000000000000E+00
   0.0000000000000000E+00
   0.0000000000000000E+00
   0.0000000000000000E+00
   0.0000000000000000E+00
   0.0000000000000000E+00
   0.0000000000000000E+00
   0.0000000000000000E+00
   0.0000000000000000E+00
   0.0000000000000000E+00
   0.0000000000000000E+00
   0.0000000000000000E+00
   0.0000000000000000E+00
   0.0000000000000000E+00
   0.0000000000000000E+00
   0.0000000000000000E+00
   0.0000000000000000E+00
   0.0000000000000000E+00
   0.0000000000000000E+00
   0.0000000000000000E+00
   0.0000000000000000E+00
   0.0000000000000000E+00
   0.0000000000000000E+00
   0.0000000000000000E+00
   0.0000000000000000E+00
   0.0000000000000000E+00
   0.0000000000000000E+00
   0.0000000000000000E+00
   0.0000000000000000E+00
   0.0000000000000000E+00
   0.0000000000000000E+00
   0.0000000000000000E+00
   0.0000000000000000E+00
   0.0000000000000000E+00
   0.0000000000000000E+00
   0.0000000000000000E+00
   0.0000000000000000E+00
   0.0000000000000000E+00
   0.0000000000000000E+00
   0.0000000000000000E+00
   0.0000000000000000E+00
   0.0000000000000000E+00
   0.0000000000000000E+00
   0.0000000000000000E+00
   0.0000000000000000E+00
   0.0000000000000000E+00
   0.0000000000000000E+00
   0.0000000000000000E+00
   0.0000000000000000E+00
   0.0000000000000000E+00
   0.0000000000000000E+00
   0.0000000000000000E+00
   0.0000000000000000E+00
   0.0000000000000000E+00
   0.0000000000000000E+00
   0.0000000000000000E+00
   0.0000000000000000E+00
   0.0000000000000000E+00
   0.0000000000000000E+00
   0.0000000000000000E+00
   0.6337687803231624E-03
  -0.1411927027419377E-02
  -0.1391531162523827E-02
   0.0000000000000000E+00
   0.0000000000000000E+00
   0.0000000000000000E+00
   0.0000000000000000E+00
  -0.1868136439808124E-01
   0.2783474887603630E-03
   0.2206858787244193E-02
   0.1490237664115317E-01
  -0.5368982497950842E-02
  -0.6642855228177952E-02
  -0.1142249722355850E-01
   0.4788763755799725E-02
   0.5376982375310440E-03
   0.3195905113924485E-02
   0.1530566815642427E-02
   0.3474605355152943E-02
   0.1705568661754432E-02
  -0.6356753138917142E-02
   0.7685418818040366E-03
   0.4868946843963222E-02
   0.6125294573011424E-03
   0.6956957233305012E-04
  -0.1767535217701548E-03
   0.6083370064507883E-03
   0.0000000000000000E+00
   0.0000000000000000E+00
   0.0000000000000000E+00
   0.0000000000000000E+00
   0.1205223428400700E-03
   0.1423796576540227E-02
  -0.1108551089150759E-02
  -0.9182296674536784E-03
  -0.2100781545079746E-02
  -0.1220495862480411E-02
  -0.8986746957987924E-03
  -0.6442373604644647E-03
  -0.2482970910053144E-04
  -0.5337664730488317E-03
   0.7240656526430126E-03
  -0.1570748856722291E-02
   0.1017335971300857E-03
  -0.1216376722574013E-03
  -0.8740179579193986E-03
  -0.8874804834238948E-03
   0.0000000000000000E+00
   0.0000000000000000E+00
   0.0000000000000000E+00
  -0.1091286605291586E-02
  -0.8502843675485657E-02
   0.1568994969896201E-01
   0.2148763435347607E-03
  -0.1053473720938896E-02
  -0.1673631058403967E-02
  -0.5281125380036999E-02
  -0.1236007425939595E-02
  -0.3701416714587166E-02
  -0.3032785882089683E-02
   0.2127162966066474E-02
   0.2880598992216167E-01
  -0.1724416566586449E-03
  -0.4260514559691184E-02
   0.2498432491815446E-02
   0.9551040196483844E-03
   0.0000000000000000E+00
   0.0000000000000000E+00
   0.0000000000000000E+00
   0.0000000000000000E+00
   0.0000000000000000E+00
   0.0000000000000000E+00
   0.0000000000000000E+00
   0.0000000000000000E+00
   0.0000000000000000E+00
   0.0000000000000000E+00
   0.0000000000000000E+00
   0.0000000000000000E+00
   0.0000000000000000E+00
   0.0000000000000000E+00
   0.0000000000000000E+00
   0.0000000000000000E+00
   0.0000000000000000E+00
   0.4670169031289791E-02
   0.2763141303122309E-02
   0.6893717523525927E-02
   0.5630410117102819E-02
   0.8687020340621620E-02
   0.1244114946455756E-01
   0.4867089326728311E-03
   0.4364134789280298E-02
   0.2406677682186755E-02
   0.2332159689388225E-02
   0.3176365907749006E-02
  -0.1059590086706951E-01
  -0.4894360522057166E-03
   0.6038513060728894E-02
   0.2600484616271743E-02
   0.2269800390723091E-02
   0.3838209392111846E-02
  -0.2019971038652081E-02
   0.9171925252707743E-03
   0.2371357216123809E-02
   0.1154835039436307E-02
   0.2686495011036638E-02
   0.1739791037865040E-02
   0.1798849885921166E-02
   0.8007099976160321E-02
  -0.3375953475734142E-02
   0.5470451125319618E-02
   0.6502746119383598E-04
  -0.3128231142283364E-04
  -0.1328430052864218E-01
  -0.3290496367932130E-02
  -0.3547541601295818E-02
   0.3675142399532705E-02
  -0.3988255323451330E-02
   0.8944052946601601E-03
  -0.2587601586922171E-01
  -0.3070955475064689E-02
   0.4167765621401077E-02
   0.7182286491715244E-03
   0.1825453565714633E-02
   0.4437786546131439E-02
   0.2300124483213647E-02
   0.3389429244746090E-02
   0.5068158245540081E-02
   0.1856835870162215E-02
   0.5822176269199427E-03
  -0.3350125695114982E-03
  -0.4621942136589004E-02
  -0.5499060888051140E-02
   0.4519097853213480E-03
   0.9429672598665509E-03
  -0.7328748239220681E-03
  -0.3869628381263696E-02
  -0.1215922919792088E-02
  -0.3656648756199850E-02
  -0.6898519328387078E-02
  -0.1708890763606823E-02
   0.5357951594714493E-03
  -0.3542233157865940E-03
   0.1112237628677070E-02
  -0.1832982884609857E-02
   0.6955693510986440E-02
  -0.9774602578679330E-02
  -0.1548327063221553E-04
  -0.4081621890689775E-03
   0.2409298525470857E-02
   0.1123343210133248E-02
   0.1298696258639894E-02
  -0.3829061730754143E-02
SCALARS w double 1
LOOKUP_TABLE default
   0.0000000000000000E+00
   0.0000000000000000E+00
   0.0000000000000000E+00
   0.0000000000000000E+00
   0.0000000000000000E+00
   0.0000000000000000E+00
   0.0000000000000000E+00
   0.0000000000000000E+00
   0.0000000000000000E+00
   0.0000000000000000E+00
   0.0000000000000000E+00
   0.0000000000000000E+00
   0.0000000000000000E+00
   0.0000000000000000E+00
   0.0000000000000000E+00
   0.0000000000000000E+00
   0.0000000000000000E+00
   0.0000000000000000E+00
   0.0000000000000000E+00
   0.0000000000000000E+00
   0.0000000000000000E+00
   0.0000000000000000E+00
   0.0000000000000000E+00
   0.0000000000000000E+00
   0.0000000000000000E+00
   0.0000000000000000E+00
   0.0000000000000000E+00
   0.0000000000000000E+00
   0.0000000000000000E+00
   0.0000000000000000E+00
   0.0000000000000000E+00
   0.0000000000000000E+00
   0.0000000000000000E+00
  -0.1144729937329961E+00
  -0.5028392945776054E-01
  -0.2217448704178632E-02
   0.5068484799307036E-02
  -0.6989801258527806E-03
  -0.6080716403161806E-03
   0.5801814806250313E-03
   0.1144507377103718E-02
   0.2438727178263250E-03
   0.3422504159087779E-02
   0.3884475849161743E-01
   0.5360743533618843E-01
  -0.1493406312018339E-02
  -0.2790780834480973E-01
   0.2079720475807089E-02
   0.1059662729916100E-01
   0.8042676428264492E-02
   0.4393891489750963E-01
  -0.4043469681384783E-03
  -0.1057989473749636E-01
  -0.3671021240861945E-02
  -0.2102288828130927E-02
   0.4820054707549957E-03
  -0.4609474788478995E-01
   0.1623627412803864E-01
   0.1240667346989791E-01
   0.2994635286226566E-01
   0.5073552104290692E-02
   0.4323763242686883E-02
   0.4383883536117761E-02
   0.4018486591729768E-02
   0.5466823546524347E-02
  -0.1695543885704445E-03
  -0.4834041297789741E-01
  -0.1122164773847257E+00
  -0.1279820498398544E+00
   0.2785293425772199E-02
   0.1932992082668478E-02
  -0.1150875645045747E+00
  -0.1133072361563069E+00
  -0.1132661614677057E+00
  -0.1072893778420249E+00
  -0.7748698760884598E-01
   0.3028349458160851E-02
  -0.2451870181811535E-01
  -0.2041354070993168E-01
  -0.9927597107437174E-02
   0.5242911482056973E-02
  -0.9129553494573811E-01
  -0.3406045663392582E-01
  -0.9180534805375491E-01
  -0.6776849749796549E-01
   0.1807700095486369E-02
   0.1559392120811164E-02
   0.1426789615810048E-02
   0.2118265198515844E-02
   0.1358037478440278E-02
  -0.1241890473643506E-02
  -0.1476784362136572E-02
   0.1116371366686808E-02
   0.2217974445956476E-02
   0.1202555842030200E-02
  -0.7229953757679377E-04
   0.1902625761914946E-03
   0.8225118446590183E-03
  -0.1577482904819626E-02
  -0.1943924402487785E-02
   0.1965321684081064E-02
  -0.4374709421365619E-04
  -0.4392673059205063E-03
   0.2228681551481994E-02
  -0.1073282385623839E-02
  -0.2019367587336676E-03
  -0.4920022162733086E-03
  -0.1804791490925991E-02
   0.6879500361033201E-01
   0.2330718430790463E-02
  -0.1105292682482631E-02
  -0.7921886588636910E-03
   0.1156182553436775E+00
   0.1039168570644799E+00
  -0.1770929806321298E-02
  -0.4421258886055281E-02
  -0.7494663148171562E-03
  -0.7086054741506945E-02
  -0.2645475328469007E-02
   0.1269923860512767E+00
   0.6360342105699697E-01
   0.2237146547168208E-01
   0.1353418169624295E+00