title="tecplot geometry and solution file"
variables = x y z rho u v w p mach temperature
zone t="boundary 1 bc-1", solutiontime= 0.7000000E+02, strandid=1001, i=32, j=46, f=feblock
 -0.547446164746E-02  0.000000000000E+00 -0.567549434220E-02  0.000000000000E+00  0.000000000000E+00  0.000000000000E+00 -0.525148094616E-02
 -0.425763707583E-02  0.000000000000E+00  0.000000000000E+00  0.000000000000E+00  0.000000000000E+00  0.000000000000E+00  0.000000000000E+00
  0.000000000000E+00  0.000000000000E+00 -0.338350621873E-02  0.000000000000E+00  0.000000000000E+00  0.000000000000E+00  0.000000000000E+00
  0.000000000000E+00  0.000000000000E+00  0.000000000000E+00  0.000000000000E+00  0.000000000000E+00  0.000000000000E+00  0.000000000000E+00
  0.000000000000E+00  0.000000000000E+00  0.000000000000E+00  0.000000000000E+00
  0.250494210899E+01  0.250494210899E+01  0.127822218176E+01  0.146289271009E+01  0.157686156160E+01  0.308372018325E+00  0.261951806926E-01
 -0.122573457934E+01 -0.600232012419E+00  0.250494210899E+01  0.477386199275E+00  0.742988685424E+00 -0.739814786992E+00  0.177790177481E+01
  0.155830813274E+01  0.250494210899E+01 -0.249658895697E+01 -0.154800130438E+01 -0.487811078581E+00  0.250494210899E+01  0.627766083140E+00
 -0.345533899378E+00 -0.178862290564E+01 -0.158811787973E+01  0.125000000000E+01 -0.249658895697E+01 -0.144524380962E+01  0.000000000000E+00
 -0.125000000000E+01 -0.249658895697E+01 -0.249658895697E+01 -0.249658895697E+01
  0.809130084774E-04  0.125000000000E+01  0.833206128409E-04  0.103724302461E+01  0.219251206392E+01  0.922061490191E+00  0.104346484778E-03
  0.350576955509E-04  0.715990576545E+00  0.250000000000E+01  0.202479342020E+01  0.324151231464E+01  0.175434191980E+01  0.310152362409E+01
  0.404200324774E+01  0.375000000000E+01  0.820069389012E-04  0.930412228790E+00  0.299062775774E+01  0.500000000000E+01  0.429310310915E+01
  0.409252726285E+01  0.187029682677E+01  0.284428995242E+01  0.500000000000E+01  0.125000000000E+01  0.394624082883E+01  0.500000000000E+01
  0.500000000000E+01  0.250000000000E+01  0.375000000000E+01  0.500000000000E+01
  0.121959969385E+01  0.105831357560E+01  0.128671912315E+01  0.108337056129E+01  0.102354614973E+01  0.116941711455E+01  0.145633749828E+01
  0.134804012418E+01  0.119311470599E+01  0.101662522939E+01  0.101712195415E+01  0.100667543126E+01  0.102800077935E+01  0.100987439068E+01
  0.100346383647E+01  0.100488610163E+01  0.130024611502E+01  0.114206732958E+01  0.100787501799E+01  0.100194476720E+01  0.100378960305E+01
  0.100390910383E+01  0.103478534913E+01  0.101224062747E+01  0.100190260780E+01  0.106018058852E+01  0.100437851618E+01  0.100077796394E+01
  0.100130067843E+01  0.102043483665E+01  0.100593736453E+01  0.100184292305E+01
  0.000000000000E+00  0.451834035130E+00  0.000000000000E+00  0.472912019755E+00  0.470158326990E+00  0.459504958173E+00  0.000000000000E+00
  0.000000000000E+00  0.401768590131E+00  0.478881786322E+00  0.474223486871E+00  0.485492994178E+00  0.492581097259E+00  0.489510439937E+00
  0.492201643945E+00  0.493575538137E+00  0.000000000000E+00  0.464516499110E+00  0.481634327561E+00  0.498235959505E+00  0.494015370812E+00
  0.490674198169E+00  0.458608958339E+00  0.473144563620E+00  0.498753313926E+00  0.451330983915E+00  0.491521108178E+00  0.499569336022E+00
  0.498567813943E+00  0.477380976080E+00  0.492957763217E+00  0.497856402109E+00
  0.000000000000E+00  0.000000000000E+00  0.000000000000E+00  0.156898509764E-01 -0.426046710559E-02  0.288060125409E-01  0.000000000000E+00
  0.000000000000E+00 -0.370129054797E-02  0.000000000000E+00  0.249851786126E-02 -0.528108081211E-02 -0.303266086594E-02 -0.172450991837E-03
 -0.109130957621E-02  0.000000000000E+00  0.000000000000E+00 -0.850283715700E-02  0.955105147270E-03  0.000000000000E+00 -0.167361282800E-02
 -0.105339102026E-02  0.212715595539E-02 -0.123596728363E-02  0.695899519964E-04  0.000000000000E+00  0.214869282591E-03 -0.176723362767E-03
  0.608284153471E-03  0.000000000000E+00  0.000000000000E+00  0.000000000000E+00
  0.000000000000E+00  0.388446180702E-01  0.000000000000E+00  0.103916994305E+00  0.224193160705E-01  0.135341831674E+00  0.000000000000E+00
  0.000000000000E+00  0.126992378996E+00  0.342255356501E-02  0.213553648896E-01 -0.708603875364E-02  0.636034838850E-01  0.292766260822E-02
 -0.792041776584E-03  0.244077082081E-03  0.000000000000E+00  0.115618305512E+00 -0.829814515045E-02  0.114480922507E-02 -0.749344034964E-03
 -0.442111213865E-02  0.223713781030E-01 -0.264556879391E-02  0.180779165211E-02  0.687952741048E-01 -0.177101365815E-02  0.155938651501E-02
  0.142678767009E-02  0.233070051428E-02 -0.110520570605E-02  0.211864535281E-02
  0.908102090490E+00  0.774899703780E+00  0.958078565855E+00  0.800622239272E+00  0.737949078188E+00  0.857914865734E+00  0.108437476109E+01
  0.100373758784E+01  0.887195925373E+00  0.730580353931E+00  0.733315348353E+00  0.720299337248E+00  0.748106682850E+00  0.724222071171E+00
  0.717576388906E+00  0.719224741592E+00  0.968150632664E+00  0.840784282930E+00  0.722225755033E+00  0.716319889660E+00  0.717948118946E+00
  0.717912573352E+00  0.749167966616E+00  0.726422689199E+00  0.716249846480E+00  0.782033694758E+00  0.718602109485E+00  0.715132539197E+00
  0.715579064986E+00  0.734165569057E+00  0.720297839985E+00  0.716213117715E+00
  0.000000000000E+00  0.447917876530E+00  0.000000000000E+00  0.476275898329E+00  0.468523755040E+00  0.473519685077E+00  0.000000000000E+00
  0.000000000000E+00  0.412988890049E+00  0.477443340458E+00  0.472504655855E+00  0.485153442886E+00  0.492070533032E+00  0.488543834036E+00
  0.491923380545E+00  0.493078167567E+00  0.000000000000E+00  0.471586653317E+00  0.480934101178E+00  0.498012889433E+00  0.493689910080E+00
  0.490409923135E+00  0.456073478541E+00  0.472047051255E+00  0.498545862253E+00  0.449258018083E+00  0.491117578794E+00  0.499470100796E+00
  0.498443301680E+00  0.475665768122E+00  0.492352557019E+00  0.497648492312E+00
  0.104242640687E+01  0.102508331207E+01  0.104242640687E+01  0.103461472467E+01  0.100936211790E+01  0.102707647860E+01  0.104242640687E+01
  0.104242640687E+01  0.104103510693E+01  0.100608608358E+01  0.100935928431E+01  0.100173207852E+01  0.101882155834E+01  0.100399704062E+01
  0.100113916213E+01  0.100201867316E+01  0.104242640687E+01  0.103067303093E+01  0.100321571524E+01  0.100090132546E+01  0.100133271302E+01
  0.100116394886E+01  0.101357750585E+01  0.100469368378E+01  0.100084556849E+01  0.103269875389E+01  0.100165718110E+01  0.100040727409E+01
  0.100050935005E+01  0.100724883135E+01  0.100246497598E+01  0.100085386814E+01
        12        19        11        11
        11         5        12        12
        10        14         5         5
        19        13        11        11
        19        24        13        13
        30        23        24        24
        19        12        22        22
        28        22        21        21
        11        13         6         6
         7         6         9         9
        15        12        14        14
        18        13        23        23
        15        25        21        21
        27        19        22        22
        18         8         9         9
        27        31        24        24
         4        11         6         6
         5        14        12        12
         4         2         5         5
        21        12        15        15
        14        16        15        15
        24        19        27        27
        22        29        27        27
        23        26        18        18
        17         8        18        18
         5        11         4         4
         6         3         4         4
        26        23        30        30
         5         2        10        10
        16        14        10        10
         3         6         7         7
        21        25        28        28
        29        22        28        28
         6        13         9         9
         2         4         1         1
        31        27        32        32
        25        15        20        20
        24        23        13        13
         8         7         9         9
        13        18         9         9
        31        30        24        24
        12        21        22        22
        29        32        27        27
         3         1         4         4
        26        17        18        18
        16        20        15        15
zone t="boundary 2 bc-2", solutiontime= 0.7000000E+02, strandid=1002, i=33, j=48, f=feblock
  0.500195307382E+01  0.375034861050E+01  0.249861205468E+01  0.288036735719E+01  0.124717593389E+01  0.190856743004E+01  0.326577222177E+01
  0.201394883343E+01 -0.338350621873E-02  0.962374592227E+00  0.500000000000E+01  0.403430227363E+01  0.423029580393E+01  0.500000000000E+01
  0.385439200456E+01  0.500000000000E+01  0.398133437863E+01  0.315200089279E+01  0.266958043366E+01  0.154798036762E+01  0.218327863938E+01
  0.893688514067E+00  0.000000000000E+00  0.699009776748E+00  0.964460903624E+00  0.310303675061E+01  0.000000000000E+00  0.000000000000E+00
  0.125000000000E+01  0.500000000000E+01  0.375000000000E+01  0.250000000000E+01  0.000000000000E+00
 -0.249658895697E+01 -0.249658895697E+01 -0.249658895697E+01 -0.249658895697E+01 -0.249658895697E+01 -0.249658895697E+01 -0.249658895697E+01
 -0.249658895697E+01 -0.249658895697E+01 -0.249658895697E+01 -0.249658895697E+01 -0.249658895697E+01 -0.249658895697E+01 -0.249658895697E+01
 -0.249658895697E+01 -0.249658895697E+01 -0.249658895697E+01 -0.249658895697E+01 -0.249658895697E+01 -0.249658895697E+01 -0.249658895697E+01
 -0.249658895697E+01 -0.249658895697E+01 -0.249658895697E+01 -0.249658895697E+01 -0.249658895697E+01 -0.249658895697E+01 -0.249658895697E+01
 -0.249658895697E+01 -0.249658895697E+01 -0.249658895697E+01 -0.249658895697E+01 -0.249658895697E+01
  0.108750819649E-03  0.146230287947E-03  0.101810295149E-03  0.901663988867E+00  0.111802895318E-03  0.714929097791E+00  0.188140678853E+01
  0.175892210331E+01  0.820069389012E-04  0.957504876899E+00  0.125000000000E+01  0.100596710237E+01  0.191313533234E+01  0.250000000000E+01
  0.292898113447E+01  0.375000000000E+01  0.406883377285E+01  0.363389304875E+01  0.284756886163E+01  0.292582328739E+01  0.395754066521E+01
  0.205027281956E+01  0.125000000000E+01  0.306703283097E+01  0.397155773317E+01  0.433068629630E+01  0.250000000000E+01  0.375000000000E+01
  0.500000000000E+01  0.500000000000E+01  0.500000000000E+01  0.500000000000E+01  0.500000000000E+01
  0.768735780157E+00  0.889523258276E+00  0.898746418993E+00  0.950542416468E+00  0.924960132602E+00  0.947969410965E+00  0.981017543521E+00
  0.987799007064E+00  0.130024611502E+01  0.101390434225E+01  0.944836363963E+00  0.944236753928E+00  0.978087763366E+00  0.100717423482E+01
  0.997784685991E+00  0.100978229880E+01  0.100012042052E+01  0.996167623165E+00  0.989919910332E+00  0.998867625827E+00  0.997941841243E+00
  0.100913681247E+01  0.106018058852E+01  0.100643337369E+01  0.100351221227E+01  0.998477816337E+00  0.102043483665E+01  0.100593736453E+01
  0.100234892524E+01  0.999828413310E+00  0.100019291440E+01  0.100028686995E+01  0.100184292305E+01
  0.000000000000E+00  0.000000000000E+00  0.000000000000E+00  0.385195961931E+00  0.000000000000E+00  0.340886060831E+00  0.583453550727E+00
  0.571759498515E+00  0.000000000000E+00  0.480963134351E+00  0.505185158397E+00  0.443661988564E+00  0.572024049044E+00  0.532003769145E+00
  0.566400159115E+00  0.512620356747E+00  0.508195576190E+00  0.526914213777E+00  0.564509560563E+00  0.531478309997E+00  0.508129379710E+00
  0.521930169565E+00  0.451330983915E+00  0.494980682896E+00  0.496091697562E+00  0.503538718508E+00  0.477380976080E+00  0.492957763217E+00
  0.494536386729E+00  0.491695275435E+00  0.489493221778E+00  0.494635429912E+00  0.497856402109E+00
  0.000000000000E+00  0.000000000000E+00  0.000000000000E+00  0.000000000000E+00  0.000000000000E+00  0.000000000000E+00  0.000000000000E+00
  0.000000000000E+00  0.000000000000E+00  0.000000000000E+00  0.000000000000E+00  0.000000000000E+00  0.000000000000E+00  0.000000000000E+00
  0.000000000000E+00  0.000000000000E+00  0.000000000000E+00  0.000000000000E+00  0.000000000000E+00  0.000000000000E+00  0.000000000000E+00
  0.000000000000E+00  0.000000000000E+00  0.000000000000E+00  0.000000000000E+00  0.000000000000E+00  0.000000000000E+00  0.000000000000E+00
  0.000000000000E+00  0.000000000000E+00  0.000000000000E+00  0.000000000000E+00  0.000000000000E+00
  0.000000000000E+00  0.000000000000E+00  0.000000000000E+00 -0.142937172722E-02  0.000000000000E+00  0.168978175511E-01  0.875992819793E-02
  0.403963755489E-01  0.000000000000E+00  0.730721681989E-01 -0.112216833836E+00 -0.262899254581E-01 -0.368284369071E-01 -0.483402378891E-01
 -0.588594699192E-02 -0.170496496650E-03 -0.195987194167E-02 -0.317075750790E-02  0.106422336201E-01  0.235146646940E-01  0.228803664358E-02
  0.486674505721E-01  0.687952741048E-01  0.868227748399E-02  0.441101578285E-02 -0.351502972513E-02  0.233070051428E-02 -0.110520570605E-02
  0.135829494516E-02  0.546603185014E-02 -0.147515880519E-02 -0.124162040685E-02  0.211864535281E-02
  0.572393197959E+00  0.662330381395E+00  0.669197857314E+00  0.681370841244E+00  0.688716333948E+00  0.681181091499E+00  0.693024449736E+00
  0.700085134074E+00  0.968150632664E+00  0.722087337884E+00  0.666760596056E+00  0.671480403138E+00  0.691232275225E+00  0.720038384689E+00
  0.710710001247E+00  0.723770719336E+00  0.714752639626E+00  0.710894216598E+00  0.704007883229E+00  0.714159224403E+00  0.712429496025E+00
  0.725804152337E+00  0.782033694758E+00  0.720438334654E+00  0.717728353991E+00  0.712837429468E+00  0.734165569057E+00  0.720297839985E+00
  0.716518298418E+00  0.714353113803E+00  0.714323978080E+00  0.714486132351E+00  0.716213117715E+00
  0.000000000000E+00  0.000000000000E+00  0.000000000000E+00  0.384516230720E+00  0.000000000000E+00  0.340285949483E+00  0.586753003454E+00
  0.575426020154E+00  0.000000000000E+00  0.487199348198E+00  0.520641024044E+00  0.445423501486E+00  0.576269217438E+00  0.533962372041E+00
  0.567224526182E+00  0.511735123976E+00  0.508063920810E+00  0.527166106396E+00  0.565842695168E+00  0.531744034121E+00  0.508272205464E+00
  0.522388423258E+00  0.449258018083E+00  0.494521457960E+00  0.495788429492E+00  0.503678480493E+00  0.475665768122E+00  0.492352557019E+00
  0.494346761325E+00  0.491660272214E+00  0.489529545952E+00  0.494638542125E+00  0.497648492312E+00
  0.104242640687E+01  0.104242640687E+01  0.104242640687E+01  0.100355245722E+01  0.104242640687E+01  0.100599609763E+01  0.989008031547E+00
  0.992225321847E+00  0.104242640687E+01  0.997058825884E+00  0.987964551410E+00  0.995589888323E+00  0.989405267667E+00  0.100087323893E+01
  0.997203119787E+00  0.100346283379E+01  0.100053321075E+01  0.999080757187E+00  0.995647250079E+00  0.100095637131E+01  0.999458338366E+00
  0.100692572178E+01  0.103269875389E+01  0.100216635784E+01  0.100130290723E+01  0.999493814410E+00  0.100724883135E+01  0.100246497598E+01
  0.100077487242E+01  0.100026599166E+01  0.999860681793E+00  0.999993717140E+00  0.100085386814E+01
        15         7        19        19
         8        20        19        19
        18        19        21        21
         7         4         8         8
         3         6         4         4
        19         7         8         8
        19        18        15        15
        14        13        15        15
         8        22        20        20
        27        24        22        22
        19        20        21        21
        32        26        21        21
        17        18        26        26
        17        16        15        15
        25        29        21        21
        12         7        13        13
        10         8         6         6
        25        20        24        24
         4         6         8         8
        12         2         4         4
        10        23        22        22
        26        31        17        17
        30        16        17        17
         4         7        12        12
        13        11        12        12
        21        20        25        25
        24        28        25        25
        22         8        10        10
         6         5        10        10
        31        26        32        32
         4         2         3         3
         5         6         3         3
        11        13        14        14
        22        23        27        27
        28        24        27        27
        15        13         7         7
         2        12         1         1
        29        25        33        33
        23        10         9         9
        21        26        18        18
        16        14        15        15
        18        17        15        15
        29        32        21        21
        22        24        20        20
        28        33        25        25
        11         1        12        12
        31        30        17        17
         5         9        10        10
zone t="boundary 3 bc-3", solutiontime= 0.7000000E+02, strandid=1003, i=33, j=48, f=feblock
  0.375059160561E+01  0.249769669317E+01  0.500322154351E+01  0.403612246844E+01  0.287976834040E+01  0.124541955111E+01  0.190552271985E+01
  0.500000000000E+01  0.326671134967E+01  0.423253777306E+01  0.201271160569E+01 -0.547446164746E-02  0.958895876503E+00  0.500000000000E+01
  0.266968161378E+01  0.385584502666E+01  0.890374255678E+00  0.154654017492E+01  0.000000000000E+00  0.500000000000E+01  0.315261145793E+01
  0.218304201233E+01  0.398195314411E+01  0.000000000000E+00  0.697379940514E+00  0.963757258037E+00  0.125000000000E+01  0.000000000000E+00
  0.500000000000E+01  0.310330742690E+01  0.250000000000E+01  0.375000000000E+01  0.000000000000E+00
  0.250494210899E+01  0.250494210899E+01  0.250494210899E+01  0.250494210899E+01  0.250494210899E+01  0.250494210899E+01  0.250494210899E+01
  0.250494210899E+01  0.250494210899E+01  0.250494210899E+01  0.250494210899E+01  0.250494210899E+01  0.250494210899E+01  0.250494210899E+01
  0.250494210899E+01  0.250494210899E+01  0.250494210899E+01  0.250494210899E+01  0.250494210899E+01  0.250494210899E+01  0.250494210899E+01
  0.250494210899E+01  0.250494210899E+01  0.250494210899E+01  0.250494210899E+01  0.250494210899E+01  0.250494210899E+01  0.250494210899E+01
  0.250494210899E+01  0.250494210899E+01  0.250494210899E+01  0.250494210899E+01  0.250494210899E+01
  0.136237443900E-03  0.111108718262E-03  0.977909467768E-04  0.101756834312E+01  0.908095514398E+00  0.104418312556E-03  0.722630002255E+00
  0.125000000000E+01  0.188965731492E+01  0.191862738997E+01  0.176708311162E+01  0.809130084774E-04  0.969653222054E+00  0.250000000000E+01
  0.285339484251E+01  0.293325095443E+01  0.205656261515E+01  0.293157054940E+01  0.125000000000E+01  0.375000000000E+01  0.363766869207E+01
  0.396069467771E+01  0.407056400730E+01  0.250000000000E+01  0.307032014504E+01  0.397359832875E+01  0.500000000000E+01  0.375000000000E+01
  0.500000000000E+01  0.433260796786E+01  0.500000000000E+01  0.500000000000E+01  0.500000000000E+01
  0.896676734318E+00  0.910447667764E+00  0.781948974320E+00  0.945770018578E+00  0.960130099916E+00  0.922179504467E+00  0.963950529601E+00
  0.950682165462E+00  0.978092887168E+00  0.979670608472E+00  0.986799181243E+00  0.121959969385E+01  0.100543682475E+01  0.100849098191E+01
  0.992240053860E+00  0.997800266749E+00  0.100537163210E+01  0.998282954092E+00  0.105831357560E+01  0.100697675921E+01  0.998804017645E+00
  0.999311199939E+00  0.100000736990E+01  0.101662522939E+01  0.100449252774E+01  0.100204227516E+01  0.100246725928E+01  0.100488610163E+01
  0.100014590912E+01  0.998721197898E+00  0.100101037149E+01  0.100049287075E+01  0.100194476720E+01
  0.000000000000E+00  0.000000000000E+00  0.000000000000E+00  0.451193599260E+00  0.403035951214E+00  0.000000000000E+00  0.369780881203E+00
  0.504465695603E+00  0.572441542071E+00  0.570700493581E+00  0.555903928605E+00  0.000000000000E+00  0.475076155607E+00  0.529012496083E+00
  0.555007174627E+00  0.562172010629E+00  0.523997638001E+00  0.523269509927E+00  0.451834035130E+00  0.514483259907E+00  0.524697309803E+00
  0.506246208158E+00  0.509778399212E+00  0.478881786322E+00  0.499519875513E+00  0.498081331355E+00  0.493201212912E+00  0.493575538137E+00
  0.493226502699E+00  0.501441532825E+00  0.491213270905E+00  0.488103498464E+00  0.498235959505E+00
  0.000000000000E+00  0.000000000000E+00  0.000000000000E+00  0.000000000000E+00  0.000000000000E+00  0.000000000000E+00  0.000000000000E+00
  0.000000000000E+00  0.000000000000E+00  0.000000000000E+00  0.000000000000E+00  0.000000000000E+00  0.000000000000E+00  0.000000000000E+00
  0.000000000000E+00  0.000000000000E+00  0.000000000000E+00  0.000000000000E+00  0.000000000000E+00  0.000000000000E+00  0.000000000000E+00
  0.000000000000E+00  0.000000000000E+00  0.000000000000E+00  0.000000000000E+00  0.000000000000E+00  0.000000000000E+00  0.000000000000E+00
  0.000000000000E+00  0.000000000000E+00  0.000000000000E+00  0.000000000000E+00  0.000000000000E+00
  0.000000000000E+00  0.000000000000E+00  0.000000000000E+00 -0.279072689397E-01  0.124067625231E-01  0.000000000000E+00  0.162362737001E-01
 -0.114474052245E+00  0.482004829173E-03 -0.460951267001E-01  0.299463319114E-01  0.000000000000E+00  0.536074267212E-01 -0.502845261716E-01
  0.507335959344E-02 -0.105802962777E-01  0.439389199960E-01  0.105965664308E-01  0.388446180702E-01 -0.221862925459E-02 -0.367149369244E-02
 -0.404335540777E-03 -0.149356304678E-02  0.342255356501E-02  0.804275509628E-02  0.207983134706E-02  0.580602406904E-03  0.244077082081E-03
  0.506601664030E-02 -0.210225740373E-02 -0.607637254195E-03 -0.695778473400E-03  0.114480922507E-02
  0.667656790200E+00  0.677910493537E+00  0.582231614040E+00  0.670520823773E+00  0.688130570415E+00  0.686645905237E+00  0.690430278260E+00
  0.670645797202E+00  0.691903435232E+00  0.692624427145E+00  0.700947330747E+00  0.908102090490E+00  0.717683252741E+00  0.721491980393E+00
  0.706702651684E+00  0.711393848683E+00  0.721305352439E+00  0.713317616153E+00  0.774899703780E+00  0.721207796563E+00  0.713532247451E+00
  0.713575106403E+00  0.714554240865E+00  0.730580353931E+00  0.718615635354E+00  0.716241103913E+00  0.716741921466E+00  0.719224741592E+00
  0.714565183118E+00  0.713128387423E+00  0.715136921646E+00  0.714653008198E+00  0.716319889660E+00
  0.000000000000E+00  0.000000000000E+00  0.000000000000E+00  0.453747974781E+00  0.402545577204E+00  0.000000000000E+00  0.369629077545E+00
  0.520525426153E+00  0.575220805621E+00  0.575502704614E+00  0.558260187708E+00  0.000000000000E+00  0.478252928907E+00  0.530976527292E+00
  0.555830968418E+00  0.562793221371E+00  0.524675213278E+00  0.523282000827E+00  0.447917876530E+00  0.513796079160E+00  0.524673088759E+00
  0.506323909434E+00  0.509686669572E+00  0.477443340458E+00  0.499194814859E+00  0.497912964381E+00  0.492962762200E+00  0.493078167567E+00
  0.493192029873E+00  0.501531681931E+00  0.491169164586E+00  0.488098788772E+00  0.498012889433E+00
  0.104242640687E+01  0.104242640687E+01  0.104242640687E+01  0.992555414998E+00  0.100338776866E+01  0.104242640687E+01  0.100275103326E+01
  0.987610949477E+00  0.990360754110E+00  0.989796151499E+00  0.994453868323E+00  0.104242640687E+01  0.999323407597E+00  0.100158433806E+01
  0.997121320097E+00  0.998147045401E+00  0.100443205396E+01  0.100036233066E+01  0.102508331207E+01  0.100269535116E+01  0.100014129778E+01
  0.999693738072E+00  0.100036856459E+01  0.100608608358E+01  0.100156234289E+01  0.100069385328E+01  0.100096903990E+01  0.100201867316E+01
  0.100024531145E+01  0.999658107281E+00  0.100018113580E+01  0.100002133022E+01  0.100090132546E+01
        15         9        16        16
        15        18        11        11
        22        15        21        21
        11         5         9         9
         5         7         2         2
        11         9        15        15
        16        21        15        15
        16        10        14        14
        18        17        11        11
        17        25        24        24
        22        18        15        15
        22        30        31        31
        30        21        23        23
        16        20        23        23
        22        27        26        26
        10         9         4         4
         7        11        13        13
        25        18        26        26
        11         7         5         5
         5         1         4         4
        17        19        13        13
        23        32        30        30
        23        20        29        29
         4         9         5         5
         4         8        10        10
        26        18        22        22
        26        28        25        25
        13        11        17        17
        13         6         7         7
        31        30        32        32
         2         1         5         5
         2         7         6         6
        14        10         8         8
        24        19        17        17
        24        25        28        28
         9        10        16        16
         3         4         1         1
        33        26        27        27
        12        13        19        19
        21        30        22        22
        16        14        20        20
        16        23        21        21
        22        31        27        27
        18        25        17        17
        26        33        28        28
         4         3         8         8
        23        29        32        32
        13        12         6         6
zone t="boundary 4 bc-4", solutiontime= 0.7000000E+02, strandid=1004, i=32, j=46, f=feblock
  0.125000000000E+01  0.219251206392E+01  0.103724302461E+01  0.500000000000E+01  0.250000000000E+01  0.375000000000E+01  0.404200324774E+01
  0.500000000000E+01  0.000000000000E+00  0.310152362409E+01  0.202479342020E+01  0.324151231464E+01  0.922061490191E+00  0.000000000000E+00
  0.299062775774E+01  0.394624082883E+01  0.500000000000E+01  0.409252726285E+01  0.500000000000E+01  0.429310310915E+01  0.175434191980E+01
  0.284428995242E+01  0.000000000000E+00  0.000000000000E+00  0.715990576545E+00  0.930412228790E+00  0.125000000000E+01  0.187029682677E+01
  0.500000000000E+01  0.375000000000E+01  0.250000000000E+01  0.000000000000E+00
  0.250494210899E+01  0.157686156160E+01  0.146289271009E+01  0.250494210899E+01  0.250494210899E+01  0.250494210899E+01  0.155830813274E+01
  0.125000000000E+01  0.250494210899E+01  0.177790177481E+01  0.477386199275E+00  0.742988685424E+00  0.308372018325E+00  0.125000000000E+01
 -0.487811078581E+00 -0.144524380962E+01 -0.125000000000E+01 -0.345533899378E+00  0.000000000000E+00  0.627766083140E+00 -0.739814786992E+00
 -0.158811787973E+01  0.000000000000E+00 -0.125000000000E+01 -0.600232012419E+00 -0.154800130438E+01 -0.249658895697E+01 -0.178862290564E+01
 -0.249658895697E+01 -0.249658895697E+01 -0.249658895697E+01 -0.249658895697E+01
  0.500000000000E+01  0.500000000000E+01  0.500000000000E+01  0.500000000000E+01  0.500000000000E+01  0.500000000000E+01  0.500000000000E+01
  0.500000000000E+01  0.500000000000E+01  0.500000000000E+01  0.500000000000E+01  0.500000000000E+01  0.500000000000E+01  0.500000000000E+01
  0.500000000000E+01  0.500000000000E+01  0.500000000000E+01  0.500000000000E+01  0.500000000000E+01  0.500000000000E+01  0.500000000000E+01
  0.500000000000E+01  0.500000000000E+01  0.500000000000E+01  0.500000000000E+01  0.500000000000E+01  0.500000000000E+01  0.500000000000E+01
  0.500000000000E+01  0.500000000000E+01  0.500000000000E+01  0.500000000000E+01
  0.100246725928E+01  0.100134430706E+01  0.100190794609E+01  0.100014590912E+01  0.100101037149E+01  0.100049287075E+01  0.999775593591E+00
  0.100034297743E+01  0.100194476720E+01  0.100086117857E+01  0.100110853640E+01  0.100019876834E+01  0.100152581914E+01  0.100190260780E+01
  0.100054385425E+01  0.998652397402E+00  0.100067113185E+01  0.999536490847E+00  0.100054145035E+01  0.999923235440E+00  0.100145779240E+01
  0.100044294090E+01  0.100077796394E+01  0.100130067843E+01  0.100105884197E+01  0.100174639430E+01  0.100234892524E+01  0.100133132735E+01
  0.999828413310E+00  0.100019291440E+01  0.100028686995E+01  0.100184292305E+01
  0.493201212912E+00  0.493601214928E+00  0.494657948230E+00  0.493226502699E+00  0.491213270905E+00  0.488103498464E+00  0.488185417279E+00
  0.494186666551E+00  0.498235959505E+00  0.490793317667E+00  0.492762895573E+00  0.491176777172E+00  0.497637809694E+00  0.498753313926E+00
  0.492051499728E+00  0.486062293851E+00  0.492255087131E+00  0.489681612637E+00  0.494622557519E+00  0.490040125646E+00  0.494628970253E+00
  0.492616668502E+00  0.499569336022E+00  0.498567813943E+00  0.498183509365E+00  0.496570939392E+00  0.494536386729E+00  0.494839504954E+00
  0.491695275435E+00  0.489493221778E+00  0.494635429912E+00  0.497856402109E+00
  0.000000000000E+00 -0.121472202688E-03 -0.110879992457E-02  0.000000000000E+00  0.000000000000E+00  0.000000000000E+00  0.121291320573E-03
  0.633467497595E-03  0.000000000000E+00  0.102563440594E-03 -0.874328095843E-03 -0.898648661529E-03 -0.157079915426E-02  0.695899519964E-04
 -0.888529551774E-03 -0.918897752135E-03 -0.139168892802E-02 -0.210155081839E-02 -0.141210696737E-02 -0.122050168351E-02 -0.534200500395E-03
 -0.644844034956E-03 -0.176723362767E-03  0.608284153471E-03 -0.247276363491E-04  0.142363326509E-02  0.000000000000E+00  0.724009963050E-03
  0.000000000000E+00  0.000000000000E+00  0.000000000000E+00  0.000000000000E+00