title="tecplot geometry and solution file"
variables = x y z rho u v w p mach temperature
zone t="boundary 1 bc-1", solutiontime= 0.6000000E+02, strandid=1001, i=32, j=46, f=feblock
 -0.547446164746E-02  0.000000000000E+00 -0.567549434220E-02  0.000000000000E+00  0.000000000000E+00  0.000000000000E+00 -0.525148094616E-02
 -0.425763707583E-02  0.000000000000E+00  0.000000000000E+00  0.000000000000E+00  0.000000000000E+00  0.000000000000E+00  0.000000000000E+00
  0.000000000000E+00  0.000000000000E+00 -0.338350621873E-02  0.000000000000E+00  0.000000000000E+00  0.000000000000E+00  0.000000000000E+00
  0.000000000000E+00  0.000000000000E+00  0.000000000000E+00  0.000000000000E+00  0.000000000000E+00  0.000000000000E+00  0.000000000000E+00
  0.000000000000E+00  0.000000000000E+00  0.000000000000E+00  0.000000000000E+00
  0.250494210899E+01  0.250494210899E+01  0.127822218176E+01  0.146289271009E+01  0.157686156160E+01  0.308372018325E+00  0.261951806926E-01
 -0.122573457934E+01 -0.600232012419E+00  0.250494210899E+01  0.477386199275E+00  0.742988685424E+00 -0.739814786992E+00  0.177790177481E+01
  0.155830813274E+01  0.250494210899E+01 -0.249658895697E+01 -0.154800130438E+01 -0.487811078581E+00  0.250494210899E+01  0.627766083140E+00
 -0.345533899378E+00 -0.178862290564E+01 -0.158811787973E+01  0.125000000000E+01 -0.249658895697E+01 -0.144524380962E+01  0.000000000000E+00
 -0.125000000000E+01 -0.249658895697E+01 -0.249658895697E+01 -0.249658895697E+01
  0.809130084774E-04  0.125000000000E+01  0.833206128409E-04  0.103724302461E+01  0.219251206392E+01  0.922061490191E+00  0.104346484778E-03
  0.350576955509E-04  0.715990576545E+00  0.250000000000E+01  0.202479342020E+01  0.324151231464E+01  0.175434191980E+01  0.310152362409E+01
  0.404200324774E+01  0.375000000000E+01  0.820069389012E-04  0.930412228790E+00  0.299062775774E+01  0.500000000000E+01  0.429310310915E+01
  0.409252726285E+01  0.187029682677E+01  0.284428995242E+01  0.500000000000E+01  0.125000000000E+01  0.394624082883E+01  0.500000000000E+01
  0.500000000000E+01  0.250000000000E+01  0.375000000000E+01  0.500000000000E+01
  0.121959969385E+01  0.105831357560E+01  0.128671912315E+01  0.108337056128E+01  0.102354614973E+01  0.116941711456E+01  0.145633749829E+01
  0.134804012418E+01  0.119311470599E+01  0.101662522939E+01  0.101712195415E+01  0.100667543126E+01  0.102800077936E+01  0.100987439068E+01
  0.100346383647E+01  0.100488610163E+01  0.130024611503E+01  0.114206732956E+01  0.100787501799E+01  0.100194476720E+01  0.100378960306E+01
  0.100390910383E+01  0.103478534913E+01  0.101224062746E+01  0.100190260780E+01  0.106018058855E+01  0.100437851618E+01  0.100077796394E+01
  0.100130067843E+01  0.102043483664E+01  0.100593736453E+01  0.100184292305E+01
  0.000000000000E+00  0.451834035130E+00  0.000000000000E+00  0.472912019771E+00  0.470158326985E+00  0.459504958155E+00  0.000000000000E+00
  0.000000000000E+00  0.401768590128E+00  0.478881786322E+00  0.474223486872E+00  0.485492994176E+00  0.492581097245E+00  0.489510439938E+00
  0.492201643944E+00  0.493575538143E+00  0.000000000000E+00  0.464516499156E+00  0.481634327564E+00  0.498235959495E+00  0.494015370809E+00
  0.490674198169E+00  0.458608958341E+00  0.473144563633E+00  0.498753313929E+00  0.451330983847E+00  0.491521108171E+00  0.499569336021E+00
  0.498567813941E+00  0.477380976089E+00  0.492957763217E+00  0.497856402112E+00
  0.000000000000E+00  0.000000000000E+00  0.000000000000E+00  0.156898509780E-01 -0.426046710694E-02  0.288060125418E-01  0.000000000000E+00
  0.000000000000E+00 -0.370129055358E-02  0.000000000000E+00  0.249851786276E-02 -0.528108081106E-02 -0.303266087037E-02 -0.172450991887E-03
 -0.109130957753E-02  0.000000000000E+00  0.000000000000E+00 -0.850283715138E-02  0.955105148543E-03  0.000000000000E+00 -0.167361283276E-02
 -0.105339102245E-02  0.212715595580E-02 -0.123596728825E-02  0.695899459935E-04  0.000000000000E+00  0.214869285074E-03 -0.176723362146E-03
  0.608284157795E-03  0.000000000000E+00  0.000000000000E+00  0.000000000000E+00
  0.000000000000E+00  0.388446180684E-01  0.000000000000E+00  0.103916994308E+00  0.224193160672E-01  0.135341831676E+00  0.000000000000E+00
  0.000000000000E+00  0.126992378996E+00  0.342255356444E-02  0.213553648880E-01 -0.708603875280E-02  0.636034838844E-01  0.292766260825E-02
 -0.792041772078E-03  0.244077079881E-03  0.000000000000E+00  0.115618305513E+00 -0.829814515180E-02  0.114480922731E-02 -0.749344032580E-03
 -0.442111213830E-02  0.223713781050E-01 -0.264556879150E-02  0.180779165214E-02  0.687952740767E-01 -0.177101365527E-02  0.155938651910E-02
  0.142678767653E-02  0.233070051354E-02 -0.110520570754E-02  0.211864534815E-02
  0.908102090488E+00  0.774899703778E+00  0.958078565853E+00  0.800622239271E+00  0.737949078187E+00  0.857914865736E+00  0.108437476110E+01
  0.100373758784E+01  0.887195925375E+00  0.730580353930E+00  0.733315348354E+00  0.720299337248E+00  0.748106682851E+00  0.724222071170E+00
  0.717576388906E+00  0.719224741592E+00  0.968150632673E+00  0.840784282927E+00  0.722225755032E+00  0.716319889660E+00  0.717948118946E+00
  0.717912573352E+00  0.749167966614E+00  0.726422689198E+00  0.716249846480E+00  0.782033694764E+00  0.718602109483E+00  0.715132539196E+00
  0.715579064984E+00  0.734165569053E+00  0.720297839984E+00  0.716213117717E+00
  0.000000000000E+00  0.447917876530E+00  0.000000000000E+00  0.476275898343E+00  0.468523755035E+00  0.473519685063E+00  0.000000000000E+00
  0.000000000000E+00  0.412988890046E+00  0.477443340459E+00  0.472504655856E+00  0.485153442885E+00  0.492070533020E+00  0.488543834038E+00
  0.491923380544E+00  0.493078167572E+00  0.000000000000E+00  0.471586653356E+00  0.480934101181E+00  0.498012889423E+00  0.493689910077E+00
  0.490409923135E+00  0.456073478544E+00  0.472047051268E+00  0.498545862255E+00  0.449258018018E+00  0.491117578788E+00  0.499470100795E+00
  0.498443301678E+00  0.475665768131E+00  0.492352557018E+00  0.497648492315E+00
  0.104242640687E+01  0.102508331207E+01  0.104242640687E+01  0.103461472468E+01  0.100936211790E+01  0.102707647860E+01  0.104242640687E+01
  0.104242640687E+01  0.104103510693E+01  0.100608608358E+01  0.100935928431E+01  0.100173207851E+01  0.101882155833E+01  0.100399704062E+01
  0.100113916213E+01  0.100201867316E+01  0.104242640687E+01  0.103067303094E+01  0.100321571524E+01  0.100090132546E+01  0.100133271302E+01
  0.100116394887E+01  0.101357750585E+01  0.100469368378E+01  0.100084556849E+01  0.103269875386E+01  0.100165718110E+01  0.100040727409E+01
  0.100050935005E+01  0.100724883135E+01  0.100246497598E+01  0.100085386814E+01
        12        19        11        11
        11         5        12        12
        10        14         5         5
        19        13        11        11
        19        24        13        13
        30        23        24        24
        19        12        22        22
        28        22        21        21
        11        13         6         6
         7         6         9         9
        15        12        14        14
        18        13        23        23
        15        25        21        21
        27        19        22        22
        18         8         9         9
        27        31        24        24
         4        11         6         6
         5        14        12        12
         4         2         5         5
        21        12        15        15
        14        16        15        15
        24        19        27        27
        22        29        27        27
        23        26        18        18
        17         8        18        18
         5        11         4         4
         6         3         4         4
        26        23        30        30
         5         2        10        10
        16        14        10        10
         3         6         7         7
        21        25        28        28
        29        22        28        28
         6        13         9         9
         2         4         1         1
        31        27        32        32
        25        15        20        20
        24        23        13        13
         8         7         9         9
        13        18         9         9
        31        30        24        24
        12        21        22        22
        29        32        27        27
         3         1         4         4
        26        17        18        18
        16        20        15        15
zone t="boundary 2 bc-2", solutiontime= 0.6000000E+02, strandid=1002, i=33, j=48, f=feblock
  0.500195307382E+01  0.375034861050E+01  0.249861205468E+01  0.288036735719E+01  0.124717593389E+01  0.190856743004E+01  0.326577222177E+01
  0.201394883343E+01 -0.338350621873E-02  0.962374592227E+00  0.500000000000E+01  0.403430227363E+01  0.423029580393E+01  0.500000000000E+01
  0.385439200456E+01  0.500000000000E+01  0.398133437863E+01  0.315200089279E+01  0.266958043366E+01  0.154798036762E+01  0.218327863938E+01
  0.893688514067E+00  0.000000000000E+00  0.699009776748E+00  0.964460903624E+00  0.310303675061E+01  0.000000000000E+00  0.000000000000E+00
  0.125000000000E+01  0.500000000000E+01  0.375000000000E+01  0.250000000000E+01  0.000000000000E+00
 -0.249658895697E+01 -0.249658895697E+01 -0.249658895697E+01 -0.249658895697E+01 -0.249658895697E+01 -0.249658895697E+01 -0.249658895697E+01
 -0.249658895697E+01 -0.249658895697E+01 -0.249658895697E+01 -0.249658895697E+01 -0.249658895697E+01 -0.249658895697E+01 -0.249658895697E+01
 -0.249658895697E+01 -0.249658895697E+01 -0.249658895697E+01 -0.249658895697E+01 -0.249658895697E+01 -0.249658895697E+01 -0.249658895697E+01
 -0.249658895697E+01 -0.249658895697E+01 -0.249658895697E+01 -0.249658895697E+01 -0.249658895697E+01 -0.249658895697E+01 -0.249658895697E+01
 -0.249658895697E+01 -0.249658895697E+01 -0.249658895697E+01 -0.249658895697E+01 -0.249658895697E+01
  0.108750819649E-03  0.146230287947E-03  0.101810295149E-03  0.901663988867E+00  0.111802895318E-03  0.714929097791E+00  0.188140678853E+01
  0.175892210331E+01  0.820069389012E-04  0.957504876899E+00  0.125000000000E+01  0.100596710237E+01  0.191313533234E+01  0.250000000000E+01
  0.292898113447E+01  0.375000000000E+01  0.406883377285E+01  0.363389304875E+01  0.284756886163E+01  0.292582328739E+01  0.395754066521E+01
  0.205027281956E+01  0.125000000000E+01  0.306703283097E+01  0.397155773317E+01  0.433068629630E+01  0.250000000000E+01  0.375000000000E+01
  0.500000000000E+01  0.500000000000E+01  0.500000000000E+01  0.500000000000E+01  0.500000000000E+01
  0.768735780166E+00  0.889523258280E+00  0.898746418994E+00  0.950542416482E+00  0.924960132608E+00  0.947969410981E+00  0.981017543527E+00
  0.987799007068E+00  0.130024611503E+01  0.101390434225E+01  0.944836364002E+00  0.944236753973E+00  0.978087763379E+00  0.100717423481E+01
  0.997784685990E+00  0.100978229883E+01  0.100012042054E+01  0.996167623161E+00  0.989919910336E+00  0.998867625831E+00  0.997941841244E+00
  0.100913681248E+01  0.106018058855E+01  0.100643337368E+01  0.100351221227E+01  0.998477816335E+00  0.102043483664E+01  0.100593736453E+01
  0.100234892524E+01  0.999828413256E+00  0.100019291436E+01  0.100028686996E+01  0.100184292305E+01
  0.000000000000E+00  0.000000000000E+00  0.000000000000E+00  0.385195961940E+00  0.000000000000E+00  0.340886060841E+00  0.583453550721E+00
  0.571759498504E+00  0.000000000000E+00  0.480963134349E+00  0.505185158355E+00  0.443661988579E+00  0.572024049033E+00  0.532003769144E+00
  0.566400159113E+00  0.512620356767E+00  0.508195576264E+00  0.526914213805E+00  0.564509560561E+00  0.531478310003E+00  0.508129379734E+00
  0.521930169556E+00  0.451330983847E+00  0.494980682902E+00  0.496091697562E+00  0.503538718532E+00  0.477380976089E+00  0.492957763217E+00
  0.494536386719E+00  0.491695275445E+00  0.489493221719E+00  0.494635429898E+00  0.497856402112E+00
  0.000000000000E+00  0.000000000000E+00  0.000000000000E+00  0.000000000000E+00  0.000000000000E+00  0.000000000000E+00  0.000000000000E+00
  0.000000000000E+00  0.000000000000E+00  0.000000000000E+00  0.000000000000E+00  0.000000000000E+00  0.000000000000E+00  0.000000000000E+00
  0.000000000000E+00  0.000000000000E+00  0.000000000000E+00  0.000000000000E+00  0.000000000000E+00  0.000000000000E+00  0.000000000000E+00
  0.000000000000E+00  0.000000000000E+00  0.000000000000E+00  0.000000000000E+00  0.000000000000E+00  0.000000000000E+00  0.000000000000E+00
  0.000000000000E+00  0.000000000000E+00  0.000000000000E+00  0.000000000000E+00  0.000000000000E+00
  0.000000000000E+00  0.000000000000E+00  0.000000000000E+00 -0.142937172741E-02  0.000000000000E+00  0.168978175531E-01  0.875992819381E-02
  0.403963755457E-01  0.000000000000E+00  0.730721681953E-01 -0.112216833828E+00 -0.262899254660E-01 -0.368284369060E-01 -0.483402378884E-01
 -0.588594698744E-02 -0.170496466455E-03 -0.195987192147E-02 -0.317075749910E-02  0.106422336247E-01  0.235146646987E-01  0.228803664704E-02
  0.486674505692E-01  0.687952740767E-01  0.868227748522E-02  0.441101578251E-02 -0.351502972113E-02  0.233070051354E-02 -0.110520570754E-02
  0.135829494034E-02  0.546603187842E-02 -0.147515883323E-02 -0.124162039786E-02  0.211864534815E-02
  0.572393197966E+00  0.662330381398E+00  0.669197857314E+00  0.681370841243E+00  0.688716333952E+00  0.681181091497E+00  0.693024449737E+00
  0.700085134075E+00  0.968150632673E+00  0.722087337885E+00  0.666760596075E+00  0.671480403137E+00  0.691232275226E+00  0.720038384687E+00
  0.710710001247E+00  0.723770719351E+00  0.714752639628E+00  0.710894216592E+00  0.704007883230E+00  0.714159224403E+00  0.712429496025E+00
  0.725804152335E+00  0.782033694764E+00  0.720438334654E+00  0.717728353989E+00  0.712837429465E+00  0.734165569053E+00  0.720297839984E+00
  0.716518298419E+00  0.714353113757E+00  0.714323978058E+00  0.714486132357E+00  0.716213117717E+00
  0.000000000000E+00  0.000000000000E+00  0.000000000000E+00  0.384516230731E+00  0.000000000000E+00  0.340285949497E+00  0.586753003449E+00
  0.575426020144E+00  0.000000000000E+00  0.487199348195E+00  0.520641024004E+00  0.445423501513E+00  0.576269217430E+00  0.533962372040E+00
  0.567224526179E+00  0.511735123997E+00  0.508063920887E+00  0.527166106425E+00  0.565842695166E+00  0.531744034128E+00  0.508272205488E+00
  0.522388423249E+00  0.449258018018E+00  0.494521457965E+00  0.495788429492E+00  0.503678480517E+00  0.475665768131E+00  0.492352557018E+00
  0.494346761314E+00  0.491660272227E+00  0.489529545894E+00  0.494638542112E+00  0.497648492315E+00
  0.104242640687E+01  0.104242640687E+01  0.104242640687E+01  0.100355245721E+01  0.104242640687E+01  0.100599609761E+01  0.989008031542E+00
  0.992225321844E+00  0.104242640687E+01  0.997058825884E+00  0.987964551397E+00  0.995589888274E+00  0.989405267655E+00  0.100087323893E+01
  0.997203119788E+00  0.100346283379E+01  0.100053321073E+01  0.999080757184E+00  0.995647250076E+00  0.100095637130E+01  0.999458338366E+00
  0.100692572177E+01  0.103269875386E+01  0.100216635784E+01  0.100130290723E+01  0.999493814408E+00  0.100724883135E+01  0.100246497598E+01
  0.100077487243E+01  0.100026599164E+01  0.999860681793E+00  0.999993717137E+00  0.100085386814E+01
        15         7        19        19
         8        20        19        19
        18        19        21        21
         7         4         8         8
         3         6         4         4
        19         7         8         8
        19        18        15        15
        14        13        15        15
         8        22        20        20
        27        24        22        22
        19        20        21        21
        32        26        21        21
        17        18        26        26
        17        16        15        15
        25        29        21        21
        12         7        13        13
        10         8         6         6
        25        20        24        24
         4         6         8         8
        12         2         4         4
        10        23        22        22
        26        31        17        17
        30        16        17        17
         4         7        12        12
        13        11        12        12
        21        20        25        25
        24        28        25        25
        22         8        10        10
         6         5        10        10
        31        26        32        32
         4         2         3         3
         5         6         3         3
        11        13        14        14
        22        23        27        27
        28        24        27        27
        15        13         7         7
         2        12         1         1
        29        25        33        33
        23        10         9         9
        21        26        18        18
        16        14        15        15
        18        17        15        15
        29        32        21        21
        22        24        20        20
        28        33        25        25
        11         1        12        12
        31        30        17        17
         5         9        10        10
zone t="boundary 3 bc-3", solutiontime= 0.6000000E+02, strandid=1003, i=33, j=48, f=feblock
  0.375059160561E+01  0.249769669317E+01  0.500322154351E+01  0.403612246844E+01  0.287976834040E+01  0.124541955111E+01  0.190552271985E+01
  0.500000000000E+01  0.326671134967E+01  0.423253777306E+01  0.201271160569E+01 -0.547446164746E-02  0.958895876503E+00  0.500000000000E+01
  0.266968161378E+01  0.385584502666E+01  0.890374255678E+00  0.154654017492E+01  0.000000000000E+00  0.500000000000E+01  0.315261145793E+01
  0.218304201233E+01  0.398195314411E+01  0.000000000000E+00  0.697379940514E+00  0.963757258037E+00  0.125000000000E+01  0.000000000000E+00
  0.500000000000E+01  0.310330742690E+01  0.250000000000E+01  0.375000000000E+01  0.000000000000E+00
  0.250494210899E+01  0.250494210899E+01  0.250494210899E+01  0.250494210899E+01  0.250494210899E+01  0.250494210899E+01  0.250494210899E+01
  0.250494210899E+01  0.250494210899E+01  0.250494210899E+01  0.250494210899E+01  0.250494210899E+01  0.250494210899E+01  0.250494210899E+01
  0.250494210899E+01  0.250494210899E+01  0.250494210899E+01  0.250494210899E+01  0.250494210899E+01  0.250494210899E+01  0.250494210899E+01
  0.250494210899E+01  0.250494210899E+01  0.250494210899E+01  0.250494210899E+01  0.250494210899E+01  0.250494210899E+01  0.250494210899E+01
  0.250494210899E+01  0.250494210899E+01  0.250494210899E+01  0.250494210899E+01  0.250494210899E+01
  0.136237443900E-03  0.111108718262E-03  0.977909467768E-04  0.101756834312E+01  0.908095514398E+00  0.104418312556E-03  0.722630002255E+00
  0.125000000000E+01  0.188965731492E+01  0.191862738997E+01  0.176708311162E+01  0.809130084774E-04  0.969653222054E+00  0.250000000000E+01
  0.285339484251E+01  0.293325095443E+01  0.205656261515E+01  0.293157054940E+01  0.125000000000E+01  0.375000000000E+01  0.363766869207E+01
  0.396069467771E+01  0.407056400730E+01  0.250000000000E+01  0.307032014504E+01  0.397359832875E+01  0.500000000000E+01  0.375000000000E+01
  0.500000000000E+01  0.433260796786E+01  0.500000000000E+01  0.500000000000E+01  0.500000000000E+01
  0.896676734373E+00  0.910447667772E+00  0.781948974412E+00  0.945770019020E+00  0.960130099985E+00  0.922179504465E+00  0.963950529587E+00
  0.950682165764E+00  0.978092887146E+00  0.979670608509E+00  0.986799181235E+00  0.121959969385E+01  0.100543682476E+01  0.100849098189E+01
  0.992240053865E+00  0.997800266748E+00  0.100537163210E+01  0.998282954095E+00  0.105831357560E+01  0.100697675919E+01  0.998804017652E+00
  0.999311199944E+00  0.100000736989E+01  0.101662522939E+01  0.100449252774E+01  0.100204227516E+01  0.100246725928E+01  0.100488610163E+01
  0.100014590917E+01  0.998721197890E+00  0.100101037147E+01  0.100049287076E+01  0.100194476720E+01
  0.000000000000E+00  0.000000000000E+00  0.000000000000E+00  0.451193599333E+00  0.403035951310E+00  0.000000000000E+00  0.369780881219E+00
  0.504465695305E+00  0.572441542066E+00  0.570700493561E+00  0.555903928606E+00  0.000000000000E+00  0.475076155609E+00  0.529012496110E+00
  0.555007174614E+00  0.562172010613E+00  0.523997637999E+00  0.523269509923E+00  0.451834035130E+00  0.514483259886E+00  0.524697309788E+00
  0.506246208149E+00  0.509778399149E+00  0.478881786322E+00  0.499519875514E+00  0.498081331353E+00  0.493201212907E+00  0.493575538143E+00
  0.493226502749E+00  0.501441532801E+00  0.491213270922E+00  0.488103498584E+00  0.498235959495E+00
  0.000000000000E+00  0.000000000000E+00  0.000000000000E+00  0.000000000000E+00  0.000000000000E+00  0.000000000000E+00  0.000000000000E+00
  0.000000000000E+00  0.000000000000E+00  0.000000000000E+00  0.000000000000E+00  0.000000000000E+00  0.000000000000E+00  0.000000000000E+00
  0.000000000000E+00  0.000000000000E+00  0.000000000000E+00  0.000000000000E+00  0.000000000000E+00  0.000000000000E+00  0.000000000000E+00
  0.000000000000E+00  0.000000000000E+00  0.000000000000E+00  0.000000000000E+00  0.000000000000E+00  0.000000000000E+00  0.000000000000E+00
  0.000000000000E+00  0.000000000000E+00  0.000000000000E+00  0.000000000000E+00  0.000000000000E+00
  0.000000000000E+00  0.000000000000E+00  0.000000000000E+00 -0.279072689715E-01  0.124067624905E-01  0.000000000000E+00  0.162362736979E-01
 -0.114474052129E+00  0.482004815372E-03 -0.460951266603E-01  0.299463318932E-01  0.000000000000E+00  0.536074267205E-01 -0.502845261098E-01
  0.507335958925E-02 -0.105802962685E-01  0.439389199960E-01  0.105965664294E-01  0.388446180684E-01 -0.221862926693E-02 -0.367149369536E-02
 -0.404335540781E-03 -0.149356303818E-02  0.342255356444E-02  0.804275509544E-02  0.207983134761E-02  0.580602408219E-03  0.244077079881E-03
  0.506601660673E-02 -0.210225740332E-02 -0.607637268607E-03 -0.695778421221E-03  0.114480922731E-02
  0.667656790241E+00  0.677910493543E+00  0.582231614109E+00  0.670520823782E+00  0.688130570423E+00  0.686645905236E+00  0.690430278254E+00
  0.670645797332E+00  0.691903435246E+00  0.692624427168E+00  0.700947330750E+00  0.908102090488E+00  0.717683252743E+00  0.721491980385E+00
  0.706702651688E+00  0.711393848685E+00  0.721305352440E+00  0.713317616153E+00  0.774899703778E+00  0.721207796554E+00  0.713532247456E+00
  0.713575106406E+00  0.714554240870E+00  0.730580353930E+00  0.718615635354E+00  0.716241103914E+00  0.716741921467E+00  0.719224741592E+00
  0.714565183153E+00  0.713128387422E+00  0.715136921642E+00  0.714653008200E+00  0.716319889660E+00
  0.000000000000E+00  0.000000000000E+00  0.000000000000E+00  0.453747974958E+00  0.402545577311E+00  0.000000000000E+00  0.369629077559E+00
  0.520525425867E+00  0.575220805604E+00  0.575502704592E+00  0.558260187704E+00  0.000000000000E+00  0.478252928909E+00  0.530976527311E+00
  0.555830968404E+00  0.562793221354E+00  0.524675213276E+00  0.523282000824E+00  0.447917876530E+00  0.513796079138E+00  0.524673088744E+00
  0.506323909425E+00  0.509686669504E+00  0.477443340459E+00  0.499194814860E+00  0.497912964378E+00  0.492962762194E+00  0.493078167572E+00
  0.493192029921E+00  0.501531681905E+00  0.491169164602E+00  0.488098788896E+00  0.498012889423E+00
  0.104242640687E+01  0.104242640687E+01  0.104242640687E+01  0.992555414547E+00  0.100338776860E+01  0.104242640687E+01  0.100275103326E+01
  0.987610949355E+00  0.990360754152E+00  0.989796151496E+00  0.994453868336E+00  0.104242640687E+01  0.999323407599E+00  0.100158433807E+01
  0.997121320097E+00  0.998147045405E+00  0.100443205395E+01  0.100036233066E+01  0.102508331207E+01  0.100269535117E+01  0.100014129778E+01
  0.999693738071E+00  0.100036856461E+01  0.100608608358E+01  0.100156234289E+01  0.100069385328E+01  0.100096903991E+01  0.100201867316E+01
  0.100024531145E+01  0.999658107289E+00  0.100018113581E+01  0.100002133020E+01  0.100090132546E+01
        15         9        16        16
        15        18        11        11
        22        15        21        21
        11         5         9         9
         5         7         2         2
        11         9        15        15
        16        21        15        15
        16        10        14        14
        18        17        11        11
        17        25        24        24
        22        18        15        15
        22        30        31        31
        30        21        23        23
        16        20        23        23
        22        27        26        26
        10         9         4         4
         7        11        13        13
        25        18        26        26
        11         7         5         5
         5         1         4         4
        17        19        13        13
        23        32        30        30
        23        20        29        29
         4         9         5         5
         4         8        10        10
        26        18        22        22
        26        28        25        25
        13        11        17        17
        13         6         7         7
        31        30        32        32
         2         1         5         5
         2         7         6         6
        14        10         8         8
        24        19        17        17
        24        25        28        28
         9        10        16        16
         3         4         1         1
        33        26        27        27
        12        13        19        19
        21        30        22        22
        16        14        20        20
        16        23        21        21
        22        31        27        27
        18        25        17        17
        26        33        28        28
         4         3         8         8
        23        29        32        32
        13        12         6         6
zone t="boundary 4 bc-4", solutiontime= 0.6000000E+02, strandid=1004, i=32, j=46, f=feblock
  0.125000000000E+01  0.219251206392E+01  0.103724302461E+01  0.500000000000E+01  0.250000000000E+01  0.375000000000E+01  0.404200324774E+01
  0.500000000000E+01  0.000000000000E+00  0.310152362409E+01  0.202479342020E+01  0.324151231464E+01  0.922061490191E+00  0.000000000000E+00
  0.299062775774E+01  0.394624082883E+01  0.500000000000E+01  0.409252726285E+01  0.500000000000E+01  0.429310310915E+01  0.175434191980E+01
  0.284428995242E+01  0.000000000000E+00  0.000000000000E+00  0.715990576545E+00  0.930412228790E+00  0.125000000000E+01  0.187029682677E+01
  0.500000000000E+01  0.375000000000E+01  0.250000000000E+01  0.000000000000E+00
  0.250494210899E+01  0.157686156160E+01  0.146289271009E+01  0.250494210899E+01  0.250494210899E+01  0.250494210899E+01  0.155830813274E+01
  0.125000000000E+01  0.250494210899E+01  0.177790177481E+01  0.477386199275E+00  0.742988685424E+00  0.308372018325E+00  0.125000000000E+01
 -0.487811078581E+00 -0.144524380962E+01 -0.125000000000E+01 -0.345533899378E+00  0.000000000000E+00  0.627766083140E+00 -0.739814786992E+00
 -0.158811787973E+01  0.000000000000E+00 -0.125000000000E+01 -0.600232012419E+00 -0.154800130438E+01 -0.249658895697E+01 -0.178862290564E+01
 -0.249658895697E+01 -0.249658895697E+01 -0.249658895697E+01 -0.249658895697E+01
  0.500000000000E+01  0.500000000000E+01  0.500000000000E+01  0.500000000000E+01  0.500000000000E+01  0.500000000000E+01  0.500000000000E+01
  0.500000000000E+01  0.500000000000E+01  0.500000000000E+01  0.500000000000E+01  0.500000000000E+01  0.500000000000E+01  0.500000000000E+01
  0.500000000000E+01  0.500000000000E+01  0.500000000000E+01  0.500000000000E+01  0.500000000000E+01  0.500000000000E+01  0.500000000000E+01
  0.500000000000E+01  0.500000000000E+01  0.500000000000E+01  0.500000000000E+01  0.500000000000E+01  0.500000000000E+01  0.500000000000E+01
  0.500000000000E+01  0.500000000000E+01  0.500000000000E+01  0.500000000000E+01
  0.100246725928E+01  0.100134430706E+01  0.100190794609E+01  0.100014590917E+01  0.100101037147E+01  0.100049287076E+01  0.999775593617E+00
  0.100034297745E+01  0.100194476720E+01  0.100086117856E+01  0.100110853641E+01  0.100019876832E+01  0.100152581915E+01  0.100190260780E+01
  0.100054385424E+01  0.998652397361E+00  0.100067113179E+01  0.999536490810E+00  0.100054145031E+01  0.999923235386E+00  0.100145779239E+01
  0.100044294089E+01  0.100077796394E+01  0.100130067843E+01  0.100105884197E+01  0.100174639431E+01  0.100234892524E+01  0.100133132736E+01
  0.999828413256E+00  0.100019291436E+01  0.100028686996E+01  0.100184292305E+01
  0.493201212907E+00  0.493601214939E+00  0.494657948231E+00  0.493226502749E+00  0.491213270922E+00  0.488103498584E+00  0.488185417390E+00
  0.494186666593E+00  0.498235959495E+00  0.490793317710E+00  0.492762895569E+00  0.491176777149E+00  0.497637809694E+00  0.498753313929E+00
  0.492051499704E+00  0.486062293796E+00  0.492255087140E+00  0.489681612646E+00  0.494622557537E+00  0.490040125652E+00  0.494628970233E+00
  0.492616668440E+00  0.499569336021E+00  0.498567813941E+00  0.498183509363E+00  0.496570939392E+00  0.494536386719E+00  0.494839504938E+00
  0.491695275445E+00  0.489493221719E+00  0.494635429898E+00  0.497856402112E+00
  0.000000000000E+00 -0.121472189533E-03 -0.110879991713E-02  0.000000000000E+00  0.000000000000E+00  0.000000000000E+00  0.121291336396E-03
  0.633467458851E-03  0.000000000000E+00  0.102563493178E-03 -0.874328094288E-03 -0.898648610701E-03 -0.157079915561E-02  0.695899459935E-04
 -0.888529524223E-03 -0.918897713736E-03 -0.139168886484E-02 -0.210155071353E-02 -0.141210687566E-02 -0.122050162436E-02 -0.534200482978E-03
 -0.644844009539E-03 -0.176723362146E-03  0.608284157795E-03 -0.247276379556E-04  0.142363326956E-02  0.000000000000E+00  0.724009965969E-03
  0.000000000000E+00  0.000000000000E+00  0.000000000000E+00  0.000000000000E+00