# vtk DataFile Version 2.0
FUN3D:global_image_vtk
ASCII
DATASET UNSTRUCTURED_GRID
POINTS 213 double
   -0.5474461647464461E-02    0.2504942108992469E+01    0.8091300847736222E-04
    0.1245419551110226E+01    0.2504942108992469E+01    0.1044183125559392E-03
    0.2497696693168747E+01    0.2504942108992469E+01    0.1111087182616591E-03
    0.3750591605607594E+01    0.2504942108992469E+01    0.1362374438995335E-03
    0.5003221543509131E+01    0.2504942108992469E+01    0.9779094677684297E-04
    0.5004677162048951E+01    0.1281291972635014E+01    0.1643464877413162E-03
    0.5004773357424145E+01    0.2775097003571158E-01    0.1913980465250087E-03
    0.5003581603763585E+01   -0.1225853271170730E+01    0.1612950580424065E-03
    0.5001953073820516E+01   -0.2496588956965093E+01    0.1087508196493410E-03
    0.3750348610502709E+01   -0.2496588956965093E+01    0.1462302879465263E-03
    0.2498612054680936E+01   -0.2496588956965093E+01    0.1018102951491492E-03
    0.1247175933891794E+01   -0.2496588956965093E+01    0.1118028953183965E-03
   -0.3383506218729720E-02   -0.2496588956965093E+01    0.8200693890121646E-04
   -0.4257637075825551E-02   -0.1225734579341631E+01    0.3505769555085253E-04
   -0.5251480946163472E-02    0.2619518069262387E-01    0.1043464847781492E-03
   -0.5675494342202531E-02    0.1278222181760415E+01    0.8332061284090538E-04
    0.9003217230366406E+00    0.1608979581192332E+01    0.8746898418251967E-04
    0.3983172957383343E+01   -0.1561211172856604E+01    0.1757872076694891E-03
    0.4035602573383526E+01    0.1486761121250088E+01    0.1720812592351607E-03
    0.1036614353405146E+01   -0.1455626121426647E+01    0.1049762811091614E-03
    0.1094354111420979E+01   -0.2964619229218530E+00    0.1262439117401145E-03
    0.7298402407342440E+00    0.6874686840224647E+00    0.1050177392536702E-03
    0.1617019342295109E+01    0.8553214718266935E+00    0.1537467761766039E-03
    0.2143199649253681E+01   -0.1627128018694232E+01    0.1608934305313190E-03
    0.4088841123111252E+01   -0.4351037435492378E+00    0.2728087410664903E-03
    0.2977916549690846E+01   -0.8334983349163732E+00    0.2255889100218793E-03
    0.3044094005785530E+01   -0.1814360944032876E+01    0.1622372213935144E-03
    0.3427866648944720E+01    0.3813911163548142E+00    0.2941131036180955E-03
    0.4313226241404377E+01    0.5489137077003723E+00    0.2321444441834213E-03
    0.1823033599252240E+01    0.1771266030608995E+01    0.1846034274876890E-03
    0.2806312023364750E+01    0.1358630549737759E+01    0.1953548522251640E-03
    0.1891861383332889E+01   -0.8481304479649456E+00    0.1678934606116991E-03
    0.2268769858566397E+01    0.7723760925646611E-01    0.2082700328655217E-03
    0.5000000000000000E+01    0.2504942108992469E+01    0.1250000000000000E+01
    0.5000000000000000E+01    0.2504942108992469E+01    0.2500000000000000E+01
    0.5000000000000000E+01    0.2504942108992469E+01    0.3750000000000000E+01
    0.5000000000000000E+01    0.2504942108992469E+01    0.5000000000000000E+01
    0.3750000000000000E+01    0.2504942108992469E+01    0.5000000000000000E+01
    0.2500000000000000E+01    0.2504942108992469E+01    0.5000000000000000E+01
    0.1250000000000000E+01    0.2504942108992469E+01    0.5000000000000000E+01
    0.0000000000000000E+00    0.2504942108992469E+01    0.5000000000000000E+01
    0.0000000000000000E+00    0.2504942108992469E+01    0.3750000000000000E+01
    0.0000000000000000E+00    0.2504942108992469E+01    0.2500000000000000E+01
    0.0000000000000000E+00    0.2504942108992469E+01    0.1250000000000000E+01
    0.9588958765028881E+00    0.2504942108992469E+01    0.9696532220544229E+00
    0.3981953144106603E+01    0.2504942108992469E+01    0.4070564007300076E+01
    0.4036122468443807E+01    0.2504942108992469E+01    0.1017568343123276E+01
    0.9637572580372976E+00    0.2504942108992469E+01    0.3973598328748808E+01
    0.1546540174922872E+01    0.2504942108992469E+01    0.2931570549403784E+01
    0.6973799405135015E+00    0.2504942108992469E+01    0.3070320145042755E+01
    0.8903742556777799E+00    0.2504942108992469E+01    0.2056562615153816E+01
    0.2183042012330853E+01    0.2504942108992469E+01    0.3960694677713721E+01
    0.3855845026655452E+01    0.2504942108992469E+01    0.2933250954431863E+01
    0.3152611457925804E+01    0.2504942108992469E+01    0.3637668692067718E+01
    0.3103307426895491E+01    0.2504942108992469E+01    0.4332607967855963E+01
    0.3266711349670356E+01    0.2504942108992469E+01    0.1889657314915315E+01
    0.4232537773062778E+01    0.2504942108992469E+01    0.1918627389967961E+01
    0.1905522719845845E+01    0.2504942108992469E+01    0.7226300022552048E+00
    0.2879768340401895E+01    0.2504942108992469E+01    0.9080955143976289E+00
    0.2012711605685119E+01    0.2504942108992469E+01    0.1767083111617868E+01
    0.2669681613777159E+01    0.2504942108992469E+01    0.2853394842509518E+01
    0.5000000000000000E+01    0.1250000000000000E+01    0.5000000000000000E+01
    0.5000000000000000E+01    0.0000000000000000E+00    0.5000000000000000E+01
    0.5000000000000000E+01   -0.1250000000000000E+01    0.5000000000000000E+01
    0.5000000000000000E+01   -0.2496588956965093E+01    0.5000000000000000E+01
    0.5000000000000000E+01   -0.2496588956965093E+01    0.3750000000000000E+01
    0.5000000000000000E+01   -0.2496588956965093E+01    0.2500000000000000E+01
    0.5000000000000000E+01   -0.2496588956965093E+01    0.1250000000000000E+01
    0.5000000000000000E+01    0.1578994732800803E+01    0.9058375365086910E+00
    0.5000000000000000E+01   -0.1583989954232354E+01    0.3982050490726493E+01
    0.5000000000000000E+01    0.1453322699199022E+01    0.4033849428301197E+01
    0.5000000000000000E+01   -0.1479596339503735E+01    0.1040505887381675E+01
    0.5000000000000000E+01   -0.3227322616384110E+00    0.1099454400140349E+01
    0.5000000000000000E+01    0.6593508822075582E+00    0.7354504170366591E+00
    0.5000000000000000E+01    0.8256214013940779E+00    0.1622302608453282E+01
    0.5000000000000000E+01   -0.1650070333782557E+01    0.2145871574390382E+01
    0.5000000000000000E+01   -0.4612828702537229E+00    0.4086422318222992E+01
    0.5000000000000000E+01   -0.8579242121530853E+00    0.2979540174134984E+01
    0.5000000000000000E+01   -0.1836846154397680E+01    0.3045064261640043E+01
    0.5000000000000000E+01    0.3508002863614053E+00    0.3428197553792836E+01
    0.5000000000000000E+01    0.5185680230613409E+00    0.4309693860063405E+01
    0.5000000000000000E+01    0.1738996113203182E+01    0.1827272193562204E+01
    0.5000000000000000E+01    0.1325493893339706E+01    0.2808563282768077E+01
    0.5000000000000000E+01   -0.8731419609589618E+00    0.1895995683864404E+01
    0.5000000000000000E+01    0.4906150219227333E-01    0.2273179336307740E+01
    0.0000000000000000E+00    0.1250000000000000E+01    0.5000000000000000E+01
    0.0000000000000000E+00    0.0000000000000000E+00    0.5000000000000000E+01
    0.0000000000000000E+00   -0.1250000000000000E+01    0.5000000000000000E+01
    0.0000000000000000E+00   -0.2496588956965093E+01    0.5000000000000000E+01
    0.1250000000000000E+01   -0.2496588956965093E+01    0.5000000000000000E+01
    0.2500000000000000E+01   -0.2496588956965093E+01    0.5000000000000000E+01
    0.3750000000000000E+01   -0.2496588956965093E+01    0.5000000000000000E+01
    0.4042003247744892E+01    0.1558308132739014E+01    0.5000000000000000E+01
    0.9304122287900499E+00   -0.1548001304379777E+01    0.5000000000000000E+01
    0.1037243024609388E+01    0.1462892710085612E+01    0.5000000000000000E+01
    0.3946240828834967E+01   -0.1445243809615570E+01    0.5000000000000000E+01
    0.4092527262848217E+01   -0.3455338993778935E+00    0.5000000000000000E+01
    0.4293103109154542E+01    0.6277660831404320E+00    0.5000000000000000E+01
    0.3241512314643519E+01    0.7429886854239611E+00    0.5000000000000000E+01
    0.2844289952419609E+01   -0.1588117879734118E+01    0.5000000000000000E+01
    0.7159905765450471E+00   -0.6002320124191652E+00    0.5000000000000000E+01
    0.1754341919796891E+01   -0.7398147869923652E+00    0.5000000000000000E+01
    0.1870296826774691E+01   -0.1788622905643739E+01    0.5000000000000000E+01
    0.9220614901912976E+00    0.3083720183248586E+00    0.5000000000000000E+01
    0.3101523624086016E+01    0.1777901774806180E+01    0.5000000000000000E+01
    0.2192512063922564E+01    0.1576861561598471E+01    0.5000000000000000E+01
    0.2024793420196460E+01    0.4773861992750707E+00    0.5000000000000000E+01
    0.2990627757741975E+01   -0.4878110785814084E+00    0.5000000000000000E+01
    0.0000000000000000E+00   -0.2496588956965093E+01    0.1250000000000000E+01
    0.0000000000000000E+00   -0.2496588956965093E+01    0.2500000000000000E+01
    0.0000000000000000E+00   -0.2496588956965093E+01    0.3750000000000000E+01
    0.0000000000000000E+00    0.1558308132739014E+01    0.4042003247744892E+01
    0.0000000000000000E+00   -0.1548001304379777E+01    0.9304122287900499E+00
    0.0000000000000000E+00    0.1462892710085612E+01    0.1037243024609388E+01
    0.0000000000000000E+00   -0.1445243809615570E+01    0.3946240828834967E+01
    0.0000000000000000E+00   -0.3455338993778935E+00    0.4092527262848217E+01
    0.0000000000000000E+00    0.6277660831404320E+00    0.4293103109154542E+01
    0.0000000000000000E+00    0.7429886854239611E+00    0.3241512314643519E+01
    0.0000000000000000E+00   -0.1588117879734118E+01    0.2844289952419609E+01
    0.0000000000000000E+00   -0.6002320124191652E+00    0.7159905765450471E+00
    0.0000000000000000E+00   -0.7398147869923652E+00    0.1754341919796891E+01
    0.0000000000000000E+00   -0.1788622905643739E+01    0.1870296826774691E+01
    0.0000000000000000E+00    0.3083720183248586E+00    0.9220614901912976E+00
    0.0000000000000000E+00    0.1777901774806180E+01    0.3101523624086016E+01
    0.0000000000000000E+00    0.1576861561598471E+01    0.2192512063922564E+01
[...]
POINT_DATA 213
SCALARS rho double 1
LOOKUP_TABLE default
   0.1219599693851280E+01
   0.9221795044652430E+00
   0.9104476677723683E+00
   0.8966767343732476E+00
   0.7819489744117623E+00
   0.7116570496589091E+00
   0.6990710321353528E+00
   0.7029548293837879E+00
   0.7687357801659723E+00
   0.8895232582804906E+00
   0.8987464189936807E+00
   0.9249601326076843E+00
   0.1300246115032982E+01
   0.1348040124183757E+01
   0.1456337498289285E+01
   0.1286719123146105E+01
   0.9619640897825178E+00
   0.9047654164324762E+00
   0.8972300821526660E+00
   0.9249192039006546E+00
   0.9126331755902541E+00
   0.9866007263108626E+00
   0.8974310463905837E+00
   0.8999718663777515E+00
   0.9067475876085159E+00
   0.9112477934151433E+00
   0.8943865877002058E+00
   0.9125850322060476E+00
   0.8902529660792043E+00
   0.9018654556891859E+00
   0.9063596022067327E+00
   0.8623953103530363E+00
   0.9078064938730330E+00
   0.9506821657635891E+00
   0.1008490981887909E+01
   0.1006976759193347E+01
   0.1000145909168555E+01
   0.1000492870764428E+01
   0.1001010371474202E+01
   0.1002467259276289E+01
   0.1001944767196207E+01
   0.1004886101629082E+01
   0.1016625229391171E+01
   0.1058313575601986E+01
   0.1005436824755534E+01
   0.1000007369891833E+01
   0.9457700190199066E+00
   0.1002042275162796E+01
   0.9982829540951829E+00
   0.1004492527737510E+01
   0.1005371632097928E+01
   0.9993111999439401E+00
   0.9978002667478235E+00
   0.9988040176520951E+00
   0.9987211978896047E+00
   0.9780928871456975E+00
   0.9796706085086208E+00
   0.9639505295867302E+00
   0.9601300999848100E+00
   0.9867991812348718E+00
   0.9922400538654779E+00
   0.1000342977449828E+01
   0.1000541450307703E+01
   0.1000671131792235E+01
   0.9998284132563973E+00
   0.1009782298827435E+01
   0.1007174234814435E+01
   0.9448363640023122E+00
   0.9034576340038908E+00
   0.1007039899225925E+01
   0.1004193125173711E+01
   0.8965165964702611E+00
   0.8926680395347546E+00
   0.8470449296081194E+00
   0.9708428953878536E+00
   0.1000202447616307E+01
   0.1006091577510901E+01
   0.1015639769203346E+01
   0.1012987277726788E+01
   0.1012861700614688E+01
   0.1005118613236757E+01
   0.9863622587089474E+00
   0.1006593491298302E+01
   0.9849764869228406E+00
   0.1008140584455432E+01
   0.1001902607801084E+01
   0.1000777963941993E+01
   0.1001300678425680E+01
   0.1001842923051184E+01
   0.1002348925243419E+01
   0.1000286869964493E+01
   0.1000192914364082E+01
   0.9997755936171888E+00
   0.1001746394306769E+01
   0.1001907946089798E+01
   0.9986523973614602E+00
   0.9995364908099551E+00
   0.9999232353857188E+00
   0.1000198768324670E+01
   0.1000442940893501E+01
   0.1001058841969489E+01
   0.1001457792390648E+01
   0.1001331327357476E+01
   0.1001525819149719E+01
   0.1000861178562580E+01
   0.1001344307055036E+01
   0.1001108536406523E+01
   0.1000543854239214E+01
   0.1060180588552674E+01
   0.1020434836641799E+01
   0.1005937364532906E+01
   0.1003463836470079E+01
   0.1142067329558025E+01
   0.1083370561278989E+01
   0.1004378516183484E+01
   0.1003909103830492E+01
   0.1003789603055032E+01
   0.1006675431261585E+01
   0.1012240627462601E+01
   0.1193114705990905E+01
   0.1028000779355966E+01
   0.1034785349130634E+01
   0.1169417114555699E+01
   0.1009874390680794E+01
   0.1023546149733819E+01
   0.1017121954150451E+01
   0.1007875017990129E+01
   0.1013904342246931E+01
   0.1000120420540645E+01
   0.9442367539729765E+00
   0.1003512212268289E+01
   0.9988676258311355E+00
   0.1006433373682382E+01
   0.1009136812477409E+01
   0.9979418412440392E+00
   0.9977846859897458E+00
   0.9961676231605765E+00
   0.9984778163348319E+00
   0.9810175435267819E+00
   0.9780877633794089E+00
   0.9479694109812504E+00
   0.9505424164817659E+00
   0.9877990070677123E+00
   0.9899199103364044E+00
   0.9925444421747303E+00
   0.9998150170464054E+00
   0.9986044297786528E+00
   0.9946496067103915E+00
   0.1006783309568966E+01
   0.1021195820508734E+01
   0.9979991521238371E+00
   0.1004785938807850E+01
   0.1001443256507527E+01
   0.1004870021054313E+01
   0.9952898883506036E+00
   0.9853957170026770E+00
   0.1000226006962634E+01
   0.9938930145284324E+00
   0.9819631320306834E+00
   0.9943515165648235E+00
   0.9968775171075024E+00
   0.9937161351101951E+00
   0.9987031100287753E+00
   0.1000033245692545E+01
   0.9996686285385534E+00
   0.9958480472833205E+00
   0.9933618084493467E+00
   0.1001379814946749E+01
   0.1018342566341357E+01
   0.1002761163613912E+01
   0.9806466813694469E+00
   0.1001874258068385E+01
   0.1008205816953611E+01
   0.9702346173708709E+00
   0.9431324582467078E+00
   0.9846786479404868E+00
   0.9843645633702265E+00
   0.9754696824382092E+00
   0.9908380437884190E+00
   0.9779133940979836E+00
   0.1033958393390190E+01
   0.1021656815381892E+01
   0.1000033005894017E+01
   0.9991734296404214E+00
   0.9919055412032346E+00
   0.9907248574479649E+00
   0.9574014636699376E+00
   0.9930506972230294E+00
   0.1006289135157402E+01
   0.1002044040256490E+01
   0.9896477932882122E+00
   0.9652799726184361E+00
   0.9203406602852710E+00
   0.9724368700350465E+00
   0.9781837059710972E+00
   0.9559727336117946E+00
   0.9617645750877987E+00
   0.9490309902302636E+00
   0.9366912391129770E+00
   0.9303104485821101E+00
   0.9992919113625491E+00
   0.9994619487010383E+00
   0.9988025048280454E+00
   0.1002017076044454E+01
   0.9391477664350769E+00
   0.9239055148114971E+00
   0.9359217156690305E+00
   0.9984137903990165E+00
   0.9983444547899025E+00
   0.1000450521585786E+01
   0.9793848522945735E+00
   0.9713546122520902E+00
   0.9447096476973615E+00
SCALARS u double 1
LOOKUP_TABLE default
   0.0000000000000000E+00
   0.0000000000000000E+00
   0.0000000000000000E+00
   0.0000000000000000E+00
   0.0000000000000000E+00
   0.0000000000000000E+00
   0.0000000000000000E+00
   0.0000000000000000E+00
   0.0000000000000000E+00
   0.0000000000000000E+00
   0.0000000000000000E+00
   0.0000000000000000E+00
   0.0000000000000000E+00
   0.0000000000000000E+00
   0.0000000000000000E+00
   0.0000000000000000E+00
   0.0000000000000000E+00
   0.0000000000000000E+00
   0.0000000000000000E+00
   0.0000000000000000E+00
   0.0000000000000000E+00
   0.0000000000000000E+00
   0.0000000000000000E+00
   0.0000000000000000E+00
   0.0000000000000000E+00
   0.0000000000000000E+00
   0.0000000000000000E+00
   0.0000000000000000E+00
   0.0000000000000000E+00
   0.0000000000000000E+00
   0.0000000000000000E+00
   0.0000000000000000E+00
   0.0000000000000000E+00
   0.5044656953054022E+00
   0.5290124961099033E+00
   0.5144832598856508E+00
   0.4932265027485770E+00
   0.4881034985844321E+00
   0.4912132709221032E+00
   0.4932012129067586E+00
   0.4982359594950389E+00
   0.4935755381425466E+00
   0.4788817863220557E+00
   0.4518340351295510E+00
   0.4750761556094772E+00
   0.5097783991489350E+00
   0.4511935993325810E+00
   0.4980813313531678E+00
   0.5232695099233615E+00
   0.4995198755142345E+00
   0.5239976379992189E+00
   0.5062462081491217E+00
   0.5621720106129439E+00
   0.5246973097881372E+00
   0.5014415328009387E+00
   0.5724415420663390E+00
   0.5707004935613201E+00
   0.3697808812185535E+00
   0.4030359513095464E+00
   0.5559039286058616E+00
   0.5550071746135311E+00
   0.4941866665926128E+00
   0.4946225575369050E+00
   0.4922550871396274E+00
   0.4916952754447468E+00
   0.5126203567669080E+00
   0.5320037691436509E+00
   0.5051851583549202E+00
   0.4700273972238723E+00
   0.5096958252097369E+00
   0.5089633518644101E+00
   0.4955096383317260E+00
   0.5091188771313416E+00
   0.4859971055855934E+00
   0.5290197065614772E+00
   0.5276939167304789E+00
   0.5095384248902051E+00
   0.5265023522676380E+00
   0.5255836668257325E+00
   0.5249264231538020E+00
   0.5039105668044438E+00
   0.5284460085302792E+00
   0.5353830991947822E+00
   0.5371546671086755E+00
   0.5324039226580655E+00
   0.4987533139286882E+00
   0.4995693360210618E+00
   0.4985678139412338E+00
   0.4978564021124013E+00
   0.4945363867186261E+00
   0.4946354298977342E+00
   0.4894932217191161E+00
   0.4881854173898820E+00
   0.4965709393917240E+00
   0.4946579482313883E+00
   0.4860622937961712E+00
   0.4896816126457357E+00
   0.4900401256523375E+00
   0.4911767771490780E+00
   0.4926166684401677E+00
   0.4981835093631692E+00
   0.4946289702334238E+00
   0.4948395049384220E+00
   0.4976378096943160E+00
   0.4907933177098857E+00
   0.4936012149385413E+00
   0.4927628955687357E+00
   0.4920514997044789E+00
   0.4513309838468173E+00
   0.4773809760891344E+00
   0.4929577632165607E+00
   0.4922016439443269E+00
   0.4645164991559337E+00
   0.4729120197707776E+00
   0.4915211081709487E+00
   0.4906741981691766E+00
   0.4940153708085283E+00
   0.4854929941764607E+00
   0.4731445636330365E+00
   0.4017685901277450E+00
   0.4925810972448759E+00
   0.4586089583414283E+00
   0.4595049581552702E+00
   0.4895104399382641E+00
   0.4701583269846058E+00
   0.4742234868721680E+00
   0.4816343275643040E+00
   0.4809631343492214E+00
   0.5081955762635596E+00
   0.4436619885794305E+00
   0.4960916975623308E+00
   0.5314783100026513E+00
   0.4949806829021157E+00
   0.5219301695555064E+00
   0.5081293797342266E+00
   0.5664001591127672E+00
   0.5269142138048298E+00
   0.5035387185316873E+00
   0.5834535507207972E+00
   0.5720240490327140E+00
   0.3408860608409571E+00
   0.3851959619399331E+00
   0.5717594985043090E+00
   0.5645095605607109E+00
   0.5689243542993213E+00
   0.5291696176664981E+00
   0.5449155523642646E+00
   0.5701879832212584E+00
   0.5404097047932243E+00
   0.5487778968262409E+00
   0.5790107801579448E+00
   0.4955235631429852E+00
   0.5064965423245931E+00
   0.4994484892123064E+00
   0.5533092428102238E+00
   0.4597901016580402E+00
   0.4983751335435712E+00
   0.5489762784475692E+00
   0.5894376731456661E+00
   0.5821700708399455E+00
   0.5457059797550622E+00
   0.5785146449857548E+00
   0.5122043813059388E+00
   0.5055088144071346E+00
   0.5048980676427505E+00
   0.5645297463568738E+00
   0.5552265327764391E+00
   0.4977583726819634E+00
   0.5488208831681053E+00
   0.5486892015691893E+00
   0.5643387554696792E+00
   0.4955121584653560E+00
   0.4958798399164655E+00
   0.3908415399287259E+00
   0.3725910520400316E+00
   0.5584900746303529E+00
   0.5739392765349732E+00
   0.4177439375082509E+00
   0.5813083360937286E+00
   0.4185999166827842E+00
   0.5391903470543218E+00
   0.4993238885572470E+00
   0.5113858579206487E+00
   0.5070194977226283E+00
   0.5732639807400102E+00
   0.5857709090726829E+00
   0.5448205790175482E+00
   0.5657062854447377E+00
   0.5320308398869509E+00
   0.5310303238427666E+00
   0.5561915550892816E+00
   0.5552162346484424E+00
   0.4401002070320518E+00
   0.5282988155924253E+00
   0.5807280001084003E+00
   0.3397139180478523E+00
   0.4812261657490227E+00
   0.5510167969626234E+00
   0.4924432257359267E+00
   0.3108744290796864E+00
   0.5051822026580366E+00
   0.5043571342850343E+00
   0.5129608666239137E+00
   0.5385848725325484E+00
   0.3519685289397980E+00
   0.3560463502102044E+00
   0.3308149527661822E+00
   0.5084554545110855E+00
   0.5125571332953895E+00
   0.5314307713979833E+00
   0.5857978727394952E+00
   0.4640825382097770E+00
   0.3627235660790554E+00
SCALARS v double 1
LOOKUP_TABLE default
   0.0000000000000000E+00
   0.0000000000000000E+00
   0.0000000000000000E+00
   0.0000000000000000E+00
   0.0000000000000000E+00
   0.0000000000000000E+00
   0.0000000000000000E+00
   0.0000000000000000E+00
   0.0000000000000000E+00
   0.0000000000000000E+00
   0.0000000000000000E+00
   0.0000000000000000E+00
   0.0000000000000000E+00
   0.0000000000000000E+00
   0.0000000000000000E+00
   0.0000000000000000E+00
   0.0000000000000000E+00
   0.0000000000000000E+00
   0.0000000000000000E+00
   0.0000000000000000E+00
   0.0000000000000000E+00
   0.0000000000000000E+00
   0.0000000000000000E+00
   0.0000000000000000E+00
   0.0000000000000000E+00
   0.0000000000000000E+00
   0.0000000000000000E+00
   0.0000000000000000E+00
   0.0000000000000000E+00
   0.0000000000000000E+00
   0.0000000000000000E+00
   0.0000000000000000E+00
   0.0000000000000000E+00
   0.0000000000000000E+00
   0.0000000000000000E+00
   0.0000000000000000E+00
   0.0000000000000000E+00
   0.0000000000000000E+00
   0.0000000000000000E+00
   0.0000000000000000E+00
   0.0000000000000000E+00
   0.0000000000000000E+00
   0.0000000000000000E+00
   0.0000000000000000E+00
   0.0000000000000000E+00
   0.0000000000000000E+00
   0.0000000000000000E+00
   0.0000000000000000E+00
   0.0000000000000000E+00
   0.0000000000000000E+00
   0.0000000000000000E+00
   0.0000000000000000E+00
   0.0000000000000000E+00
   0.0000000000000000E+00
   0.0000000000000000E+00
   0.0000000000000000E+00
   0.0000000000000000E+00
   0.0000000000000000E+00
   0.0000000000000000E+00
   0.0000000000000000E+00
   0.0000000000000000E+00
   0.6334674588506365E-03
  -0.1412106875663359E-02
  -0.1391688864835314E-02
   0.0000000000000000E+00
   0.0000000000000000E+00
   0.0000000000000000E+00
   0.0000000000000000E+00
  -0.1867976876596816E-01
   0.2777506294797900E-03
   0.2206617349688827E-02
   0.1490282918585989E-01
  -0.5368546536038832E-02
  -0.6642012060941373E-02
  -0.1142208521309223E-01
   0.4788841160799330E-02
   0.5371903984770119E-03
   0.3195631863195369E-02
   0.1530300197908380E-02
   0.3473809454181329E-02
   0.1704910023930242E-02
  -0.6356077888673269E-02
   0.7681756470959043E-03
   0.4869162696149798E-02
   0.6121899786027334E-03
   0.6958994599348159E-04
  -0.1767233621464815E-03
   0.6082841577949887E-03
   0.0000000000000000E+00
   0.0000000000000000E+00
   0.0000000000000000E+00
   0.0000000000000000E+00
   0.1212913363961036E-03
   0.1423633269561263E-02
  -0.1108799917128119E-02
  -0.9188977137364072E-03
  -0.2101550713534940E-02
  -0.1220501624361269E-02
  -0.8986486107005564E-03
  -0.6448440095394327E-03
  -0.2472763795560798E-04
  -0.5342004829777792E-03
   0.7240099659691163E-03
  -0.1570799155605098E-02
   0.1025634931777398E-03
  -0.1214721895327960E-03
  -0.8743280942875647E-03
  -0.8885295242231455E-03
   0.0000000000000000E+00
   0.0000000000000000E+00
   0.0000000000000000E+00
  -0.1091309577528923E-02
  -0.8502837151384602E-02
   0.1568985097798203E-01
   0.2148692850736894E-03
  -0.1053391022450672E-02
  -0.1673612832760255E-02
  -0.5281080811058391E-02
  -0.1235967288249350E-02
  -0.3701290553577468E-02
  -0.3032660870374165E-02
   0.2127155955796398E-02
   0.2880601254184403E-01
  -0.1724509918873408E-03
  -0.4260467106936484E-02
   0.2498517862761191E-02
   0.9551051485427714E-03
   0.0000000000000000E+00
   0.0000000000000000E+00
   0.0000000000000000E+00
   0.0000000000000000E+00
   0.0000000000000000E+00
   0.0000000000000000E+00
   0.0000000000000000E+00
   0.0000000000000000E+00
   0.0000000000000000E+00
   0.0000000000000000E+00
   0.0000000000000000E+00
   0.0000000000000000E+00
   0.0000000000000000E+00
   0.0000000000000000E+00
   0.0000000000000000E+00
   0.0000000000000000E+00
   0.0000000000000000E+00
   0.4670192205873390E-02
   0.2763266295895823E-02
   0.6893732988133605E-02
   0.5630426831667639E-02
   0.8687044733758104E-02
   0.1244112050822031E-01
   0.4866794585945545E-03
   0.4364175903279624E-02
   0.2406600772840949E-02
   0.2332208353603293E-02
   0.3176366721220162E-02
  -0.1059584366369293E-01
  -0.4893856553482111E-03
   0.6038344780067075E-02
   0.2600381058268578E-02
   0.2269790952692946E-02
   0.3837916724173191E-02
  -0.2020266267869361E-02
   0.9169931480383412E-03
   0.2371040828413118E-02
   0.1154918864170732E-02
   0.2686122886898710E-02
   0.1739840274072323E-02
   0.1798798453903585E-02
   0.8007101206414288E-02
  -0.3375984924068740E-02
   0.5470386049512031E-02
   0.6506515604758577E-04
  -0.3121380361912456E-04
  -0.1328420541590246E-01
  -0.3290568936773786E-02
  -0.3547651641577317E-02
   0.3675142551433544E-02
  -0.3988168061086213E-02
   0.8943813570815987E-03
  -0.2587594440473126E-01
  -0.3070971304199999E-02
   0.4167698989958281E-02
   0.7177031322089413E-03
   0.1825201525845345E-02
   0.4437739925975878E-02
   0.2300329195887509E-02
   0.3389535493234794E-02
   0.5068274200614989E-02
   0.1856646167702664E-02
   0.5820102943183260E-03
  -0.3347186814549972E-03
  -0.4621577585983502E-02
  -0.5498367756399137E-02
   0.4519095922399453E-03
   0.9429244145279057E-03
  -0.7332546565343316E-03
  -0.3869870788240108E-02
  -0.1215974417700540E-02
  -0.3656426958005721E-02
  -0.6898518006281201E-02
  -0.1708652061133661E-02
   0.5357569235957332E-03
  -0.3546608602781057E-03
   0.1111761889756761E-02
  -0.1832556999575299E-02
   0.6956136072707811E-02
  -0.9774596581624738E-02
  -0.1545518427269023E-04
  -0.4080173404042332E-03
   0.2409195113157508E-02
   0.1123344227274111E-02
   0.1298573617722804E-02
  -0.3828977930598816E-02
SCALARS w double 1
LOOKUP_TABLE default
   0.0000000000000000E+00
   0.0000000000000000E+00
   0.0000000000000000E+00
   0.0000000000000000E+00
   0.0000000000000000E+00
   0.0000000000000000E+00
   0.0000000000000000E+00
   0.0000000000000000E+00
   0.0000000000000000E+00
   0.0000000000000000E+00
   0.0000000000000000E+00
   0.0000000000000000E+00
   0.0000000000000000E+00
   0.0000000000000000E+00
   0.0000000000000000E+00
   0.0000000000000000E+00
   0.0000000000000000E+00
   0.0000000000000000E+00
   0.0000000000000000E+00
   0.0000000000000000E+00
   0.0000000000000000E+00
   0.0000000000000000E+00
   0.0000000000000000E+00
   0.0000000000000000E+00
   0.0000000000000000E+00
   0.0000000000000000E+00
   0.0000000000000000E+00
   0.0000000000000000E+00
   0.0000000000000000E+00
   0.0000000000000000E+00
   0.0000000000000000E+00
   0.0000000000000000E+00
   0.0000000000000000E+00
  -0.1144740521290892E+00
  -0.5028452610976693E-01
  -0.2218629266934390E-02
   0.5066016606730593E-02
  -0.6957784212211737E-03
  -0.6076372686072153E-03
   0.5806024082190755E-03
   0.1144809227307534E-02
   0.2440770798809848E-03
   0.3422553564435683E-02
   0.3884461806842820E-01
   0.5360742672052515E-01
  -0.1493563038176961E-02
  -0.2790726897151314E-01
   0.2079831347605656E-02
   0.1059656642942795E-01
   0.8042755095439153E-02
   0.4393891999604044E-01
  -0.4043355407814282E-03
  -0.1058029626845564E-01
  -0.3671493695360332E-02
  -0.2102257403321657E-02
   0.4820048153721341E-03
  -0.4609512666025092E-01
   0.1623627369794364E-01
   0.1240676249052667E-01
   0.2994633189319351E-01
   0.5073359589250015E-02
   0.4321080984915019E-02
   0.4383199571717933E-02
   0.4018274514220641E-02
   0.5466031878417829E-02
  -0.1704964664550384E-03
  -0.4834023788843563E-01
  -0.1122168338282902E+00
  -0.1279823231674626E+00
   0.2784417149594734E-02
   0.1930928648667287E-02
  -0.1150880933215859E+00
  -0.1133079951612180E+00
  -0.1132666848157166E+00
  -0.1072902277383206E+00
  -0.7748707493293298E-01
   0.3027734431100356E-02
  -0.2451874785600777E-01
  -0.2041361850433092E-01
  -0.9927797110218940E-02
   0.5241310857326559E-02
  -0.9129645930081985E-01
  -0.3406072125291018E-01
  -0.9180583007976451E-01
  -0.6776878300451486E-01
   0.1807791652144284E-02
   0.1559386519099337E-02
   0.1426787676529017E-02
   0.2118645348147762E-02
   0.1358294940336681E-02
  -0.1241620397860745E-02
  -0.1475158833227801E-02
   0.1114708198674698E-02
   0.2218159234159028E-02
   0.1202569176047622E-02
  -0.7056017202274916E-04
   0.1919567728150266E-03
   0.8213713800034939E-03
  -0.1576102227927012E-02
  -0.1943015646596193E-02
   0.1965357954712337E-02
  -0.4390681086463363E-04
  -0.4390422042893561E-03
   0.2228748089704904E-02
  -0.1071757403008296E-02
  -0.2024413866865850E-03
  -0.4923282560727160E-03
  -0.1804014628252166E-02
   0.6879527407667718E-01
   0.2330700513540552E-02
  -0.1105205707544972E-02
  -0.7920417720784634E-03
   0.1156183055127451E+00
   0.1039169943076636E+00
  -0.1771013655272296E-02
  -0.4421112138302520E-02
  -0.7493440325803372E-03
  -0.7086038752797970E-02
  -0.2645568791504649E-02
   0.1269923789960920E+00
   0.6360348388437362E-01
   0.2237137810504278E-01
   0.1353418316759454E+00