title="tecplot geometry and solution file"
variables = x y z rho u v w p mach temperature
zone t="boundary 1 bc-1", solutiontime= 0.1000000E+02, strandid=1001, i=32, j=46, f=feblock
 -0.547446164746E-02  0.000000000000E+00 -0.567549434220E-02  0.000000000000E+00  0.000000000000E+00  0.000000000000E+00 -0.525148094616E-02
 -0.425763707583E-02  0.000000000000E+00  0.000000000000E+00  0.000000000000E+00  0.000000000000E+00  0.000000000000E+00  0.000000000000E+00
  0.000000000000E+00  0.000000000000E+00 -0.338350621873E-02  0.000000000000E+00  0.000000000000E+00  0.000000000000E+00  0.000000000000E+00
  0.000000000000E+00  0.000000000000E+00  0.000000000000E+00  0.000000000000E+00  0.000000000000E+00  0.000000000000E+00  0.000000000000E+00
  0.000000000000E+00  0.000000000000E+00  0.000000000000E+00  0.000000000000E+00
  0.250494210899E+01  0.250494210899E+01  0.127822218176E+01  0.146289271009E+01  0.157686156160E+01  0.308372018325E+00  0.261951806926E-01
 -0.122573457934E+01 -0.600232012419E+00  0.250494210899E+01  0.477386199275E+00  0.742988685424E+00 -0.739814786992E+00  0.177790177481E+01
  0.155830813274E+01  0.250494210899E+01 -0.249658895697E+01 -0.154800130438E+01 -0.487811078581E+00  0.250494210899E+01  0.627766083140E+00
 -0.345533899378E+00 -0.178862290564E+01 -0.158811787973E+01  0.125000000000E+01 -0.249658895697E+01 -0.144524380962E+01  0.000000000000E+00
 -0.125000000000E+01 -0.249658895697E+01 -0.249658895697E+01 -0.249658895697E+01
  0.809130084774E-04  0.125000000000E+01  0.833206128409E-04  0.103724302461E+01  0.219251206392E+01  0.922061490191E+00  0.104346484778E-03
  0.350576955509E-04  0.715990576545E+00  0.250000000000E+01  0.202479342020E+01  0.324151231464E+01  0.175434191980E+01  0.310152362409E+01
  0.404200324774E+01  0.375000000000E+01  0.820069389012E-04  0.930412228790E+00  0.299062775774E+01  0.500000000000E+01  0.429310310915E+01
  0.409252726285E+01  0.187029682677E+01  0.284428995242E+01  0.500000000000E+01  0.125000000000E+01  0.394624082883E+01  0.500000000000E+01
  0.500000000000E+01  0.250000000000E+01  0.375000000000E+01  0.500000000000E+01
  0.121913381041E+01  0.105779153703E+01  0.128635659342E+01  0.108328624074E+01  0.102321993574E+01  0.116886028082E+01  0.145480466214E+01
  0.134672805368E+01  0.119271578684E+01  0.101649859194E+01  0.101719554648E+01  0.100659027026E+01  0.102828194911E+01  0.100980325107E+01
  0.100336978659E+01  0.100488170045E+01  0.129901135200E+01  0.114135433519E+01  0.100787888752E+01  0.100154290740E+01  0.100370070798E+01
  0.100379592296E+01  0.103449026511E+01  0.101209916007E+01  0.100176666704E+01  0.106065155419E+01  0.100432723965E+01  0.100091616054E+01
  0.100128151378E+01  0.102033435161E+01  0.100594962194E+01  0.100183209908E+01
  0.000000000000E+00  0.452531899645E+00  0.000000000000E+00  0.472171840668E+00  0.471167710946E+00  0.460022276944E+00  0.000000000000E+00
  0.000000000000E+00  0.402141645966E+00  0.479176045914E+00  0.474634054769E+00  0.485601068651E+00  0.492226705052E+00  0.489447478830E+00
  0.491928208023E+00  0.493334695626E+00  0.000000000000E+00  0.465112798219E+00  0.481745999537E+00  0.498427959911E+00  0.494141124854E+00
  0.490748824649E+00  0.459295469899E+00  0.473895893393E+00  0.499374059562E+00  0.451818202696E+00  0.491461285800E+00  0.499978798202E+00
  0.498779442372E+00  0.477460407725E+00  0.492875911881E+00  0.497927873398E+00
  0.000000000000E+00  0.000000000000E+00  0.000000000000E+00  0.149131693062E-01 -0.384959286763E-02  0.284852622216E-01  0.000000000000E+00
  0.000000000000E+00 -0.411289629718E-02  0.000000000000E+00  0.289392299434E-02 -0.501609759808E-02 -0.303047341601E-02 -0.223720827076E-03
 -0.103721107368E-02  0.000000000000E+00  0.000000000000E+00 -0.863998158222E-02  0.989609507799E-03  0.000000000000E+00 -0.179884078524E-02
 -0.104815139293E-02  0.220530593719E-02 -0.143786501959E-02 -0.308452892464E-03  0.000000000000E+00  0.130788691649E-03 -0.404132509938E-03
  0.617174221862E-03  0.000000000000E+00  0.000000000000E+00  0.000000000000E+00
  0.000000000000E+00  0.391541313931E-01  0.000000000000E+00  0.103092988670E+00  0.226108206192E-01  0.135137150658E+00  0.000000000000E+00
  0.000000000000E+00  0.127188252640E+00  0.363193928649E-02  0.221801911699E-01 -0.673459991500E-02  0.639388631976E-01  0.309111363171E-02
 -0.831856315717E-03  0.412064206920E-03  0.000000000000E+00  0.115315167297E+00 -0.790046360572E-02  0.187278616261E-02 -0.774023296618E-03
 -0.452055590358E-02  0.226165986876E-01 -0.201971059146E-02  0.235824738092E-02  0.692843408353E-01 -0.179840379920E-02  0.177659801059E-02
  0.168307119500E-02  0.233318449076E-02 -0.108519813533E-02  0.251474562865E-02
  0.907755198204E+00  0.774478257511E+00  0.957808629742E+00  0.800125691007E+00  0.737742291702E+00  0.857521151108E+00  0.108323342618E+01
  0.100276063288E+01  0.886720283697E+00  0.730430032603E+00  0.733281482222E+00  0.720269090291E+00  0.747996567335E+00  0.724145694086E+00
  0.717478323040E+00  0.719176611987E+00  0.967231240104E+00  0.840270390654E+00  0.722217583859E+00  0.716117583523E+00  0.717907692663E+00
  0.717843952142E+00  0.748949478878E+00  0.726358869913E+00  0.716191682513E+00  0.782056204120E+00  0.718577051483E+00  0.715264548938E+00
  0.715595089706E+00  0.734023531290E+00  0.720276571220E+00  0.716284877117E+00
  0.000000000000E+00  0.448642224921E+00  0.000000000000E+00  0.475497001284E+00  0.469523811223E+00  0.473928656518E+00  0.000000000000E+00
  0.000000000000E+00  0.413440829907E+00  0.477757635050E+00  0.472980773913E+00  0.485243265933E+00  0.491868453463E+00  0.488490576558E+00
  0.491660606378E+00  0.492853090974E+00  0.000000000000E+00  0.472083944682E+00  0.481042617158E+00  0.498177438800E+00  0.493808093627E+00
  0.490481189443E+00  0.456768320182E+00  0.472781833729E+00  0.499155129280E+00  0.449898110646E+00  0.491053902726E+00  0.499868712551E+00
  0.498645329463E+00  0.475767525234E+00  0.492281029371E+00  0.497694153801E+00
  0.104242640687E+01  0.102503141929E+01  0.104242640687E+01  0.103405353570E+01  0.100940098243E+01  0.102709419701E+01  0.104242640687E+01
  0.104242640687E+01  0.104082499022E+01  0.100600438972E+01  0.100923964784E+01  0.100177476000E+01  0.101839305375E+01  0.100396188134E+01
  0.100109617180E+01  0.100195600769E+01  0.104242640687E+01  0.103068653673E+01  0.100320051340E+01  0.100102013556E+01  0.100136501025E+01
  0.100118112658E+01  0.101357094001E+01  0.100474583716E+01  0.100090009830E+01  0.103226991130E+01  0.100167339126E+01  0.100045379223E+01
  0.100055090582E+01  0.100715313778E+01  0.100242316087E+01  0.100096496098E+01
        12        19        11        11
        11         5        12        12
        10        14         5         5
        19        13        11        11
        19        24        13        13
        30        23        24        24
        19        12        22        22
        28        22        21        21
        11        13         6         6
         7         6         9         9
        15        12        14        14
        18        13        23        23
        15        25        21        21
        27        19        22        22
        18         8         9         9
        27        31        24        24
         4        11         6         6
         5        14        12        12
         4         2         5         5
        21        12        15        15
        14        16        15        15
        24        19        27        27
        22        29        27        27
        23        26        18        18
        17         8        18        18
         5        11         4         4
         6         3         4         4
        26        23        30        30
         5         2        10        10
        16        14        10        10
         3         6         7         7
        21        25        28        28
        29        22        28        28
         6        13         9         9
         2         4         1         1
        31        27        32        32
        25        15        20        20
        24        23        13        13
         8         7         9         9
        13        18         9         9
        31        30        24        24
        12        21        22        22
        29        32        27        27
         3         1         4         4
        26        17        18        18
        16        20        15        15
zone t="boundary 2 bc-2", solutiontime= 0.1000000E+02, strandid=1002, i=33, j=48, f=feblock
  0.500195307382E+01  0.375034861050E+01  0.249861205468E+01  0.288036735719E+01  0.124717593389E+01  0.190856743004E+01  0.326577222177E+01
  0.201394883343E+01 -0.338350621873E-02  0.962374592227E+00  0.500000000000E+01  0.403430227363E+01  0.423029580393E+01  0.500000000000E+01
  0.385439200456E+01  0.500000000000E+01  0.398133437863E+01  0.315200089279E+01  0.266958043366E+01  0.154798036762E+01  0.218327863938E+01
  0.893688514067E+00  0.000000000000E+00  0.699009776748E+00  0.964460903624E+00  0.310303675061E+01  0.000000000000E+00  0.000000000000E+00
  0.125000000000E+01  0.500000000000E+01  0.375000000000E+01  0.250000000000E+01  0.000000000000E+00
 -0.249658895697E+01 -0.249658895697E+01 -0.249658895697E+01 -0.249658895697E+01 -0.249658895697E+01 -0.249658895697E+01 -0.249658895697E+01
 -0.249658895697E+01 -0.249658895697E+01 -0.249658895697E+01 -0.249658895697E+01 -0.249658895697E+01 -0.249658895697E+01 -0.249658895697E+01
 -0.249658895697E+01 -0.249658895697E+01 -0.249658895697E+01 -0.249658895697E+01 -0.249658895697E+01 -0.249658895697E+01 -0.249658895697E+01
 -0.249658895697E+01 -0.249658895697E+01 -0.249658895697E+01 -0.249658895697E+01 -0.249658895697E+01 -0.249658895697E+01 -0.249658895697E+01
 -0.249658895697E+01 -0.249658895697E+01 -0.249658895697E+01 -0.249658895697E+01 -0.249658895697E+01
  0.108750819649E-03  0.146230287947E-03  0.101810295149E-03  0.901663988867E+00  0.111802895318E-03  0.714929097791E+00  0.188140678853E+01
  0.175892210331E+01  0.820069389012E-04  0.957504876899E+00  0.125000000000E+01  0.100596710237E+01  0.191313533234E+01  0.250000000000E+01
  0.292898113447E+01  0.375000000000E+01  0.406883377285E+01  0.363389304875E+01  0.284756886163E+01  0.292582328739E+01  0.395754066521E+01
  0.205027281956E+01  0.125000000000E+01  0.306703283097E+01  0.397155773317E+01  0.433068629630E+01  0.250000000000E+01  0.375000000000E+01
  0.500000000000E+01  0.500000000000E+01  0.500000000000E+01  0.500000000000E+01  0.500000000000E+01
  0.769848655809E+00  0.890969575737E+00  0.899715141117E+00  0.951071618507E+00  0.924831414563E+00  0.948252285838E+00  0.980877929740E+00
  0.987872240699E+00  0.129901135200E+01  0.101379450929E+01  0.945023530569E+00  0.945591936035E+00  0.977864244226E+00  0.100636523316E+01
  0.997604655338E+00  0.100997520385E+01  0.100031097663E+01  0.996096919577E+00  0.990213213846E+00  0.999018342388E+00  0.997941747215E+00
  0.100905755262E+01  0.106065155419E+01  0.100613739561E+01  0.100334408728E+01  0.998373464115E+00  0.102033435161E+01  0.100594962194E+01
  0.100241355841E+01  0.100093089754E+01  0.100032347704E+01  0.100001270353E+01  0.100183209908E+01
  0.000000000000E+00  0.000000000000E+00  0.000000000000E+00  0.386504075833E+00  0.000000000000E+00  0.341934241866E+00  0.581907504344E+00
  0.570491433324E+00  0.000000000000E+00  0.480966523594E+00  0.506471672139E+00  0.446250278506E+00  0.571039899644E+00  0.531245877311E+00
  0.564965072207E+00  0.512717139623E+00  0.508853940498E+00  0.528092121757E+00  0.564474457951E+00  0.532595749127E+00  0.509099815200E+00
  0.522002996921E+00  0.451818202696E+00  0.495441424059E+00  0.496288377341E+00  0.503901137894E+00  0.477460407725E+00  0.492875911881E+00
  0.493109368111E+00  0.492668806564E+00  0.489129109609E+00  0.493054841746E+00  0.497927873398E+00
  0.000000000000E+00  0.000000000000E+00  0.000000000000E+00  0.000000000000E+00  0.000000000000E+00  0.000000000000E+00  0.000000000000E+00
  0.000000000000E+00  0.000000000000E+00  0.000000000000E+00  0.000000000000E+00  0.000000000000E+00  0.000000000000E+00  0.000000000000E+00
  0.000000000000E+00  0.000000000000E+00  0.000000000000E+00  0.000000000000E+00  0.000000000000E+00  0.000000000000E+00  0.000000000000E+00
  0.000000000000E+00  0.000000000000E+00  0.000000000000E+00  0.000000000000E+00  0.000000000000E+00  0.000000000000E+00  0.000000000000E+00
  0.000000000000E+00  0.000000000000E+00  0.000000000000E+00  0.000000000000E+00  0.000000000000E+00
  0.000000000000E+00  0.000000000000E+00  0.000000000000E+00 -0.141698236682E-02  0.000000000000E+00  0.170441876851E-01  0.788167696623E-02
  0.397223799484E-01  0.000000000000E+00  0.726760035304E-01 -0.110106278579E+00 -0.269389019205E-01 -0.365870876318E-01 -0.476312049391E-01
 -0.510542628500E-02 -0.497811255805E-03 -0.440509213227E-03 -0.231517662169E-02  0.105325598163E-01  0.236676982074E-01  0.226579202170E-02
  0.486907275854E-01  0.692843408353E-01  0.878844802394E-02  0.398081983881E-02 -0.302772634376E-02  0.233318449076E-02 -0.108519813533E-02
  0.656460310466E-03  0.589190504857E-02 -0.131772773632E-02 -0.137028317205E-02  0.251474562865E-02
  0.573221834364E+00  0.663407295334E+00  0.669919158402E+00  0.681595883154E+00  0.688620491746E+00  0.681137802417E+00  0.693245132452E+00
  0.700150416287E+00  0.967231240104E+00  0.721924922114E+00  0.667129509549E+00  0.672235803833E+00  0.691349361034E+00  0.719504453351E+00
  0.710603065977E+00  0.723800105392E+00  0.714798125152E+00  0.710749526475E+00  0.704166672717E+00  0.714135787468E+00  0.712505356981E+00
  0.725684601800E+00  0.782056204120E+00  0.720250685102E+00  0.717620299726E+00  0.712786928529E+00  0.734023531290E+00  0.720276571220E+00
  0.716702174522E+00  0.715226247733E+00  0.714309993832E+00  0.714194969153E+00  0.716284877117E+00
  0.000000000000E+00  0.000000000000E+00  0.000000000000E+00  0.385865642269E+00  0.000000000000E+00  0.341398730458E+00  0.585051153729E+00
  0.574103288108E+00  0.000000000000E+00  0.487171674252E+00  0.521356856431E+00  0.448121141000E+00  0.575151850218E+00  0.533127704399E+00
  0.565771424260E+00  0.511870448357E+00  0.508750796002E+00  0.528375112441E+00  0.565825468475E+00  0.532915563172E+00  0.509215660115E+00
  0.522485354311E+00  0.449898110646E+00  0.494975176791E+00  0.495977125796E+00  0.504029333227E+00  0.475767525234E+00  0.492281029371E+00
  0.492871521922E+00  0.492609097523E+00  0.489201675267E+00  0.493091200572E+00  0.497694153801E+00
  0.104242640687E+01  0.104242640687E+01  0.104242640687E+01  0.100332532046E+01  0.104242640687E+01  0.100563208507E+01  0.989463781381E+00
  0.992244282629E+00  0.104242640687E+01  0.996942557591E+00  0.988315405020E+00  0.995281462860E+00  0.989799055608E+00  0.100093504972E+01
  0.997233009133E+00  0.100331190675E+01  0.100040627224E+01  0.998948312667E+00  0.995576839432E+00  0.100077251842E+01  0.999564856924E+00
  0.100683894579E+01  0.103226991130E+01  0.100220006088E+01  0.100131991841E+01  0.999527467234E+00  0.100715313778E+01  0.100242316087E+01
  0.100096715164E+01  0.100038549044E+01  0.999710607937E+00  0.999860255055E+00  0.100096496098E+01
        15         7        19        19
         8        20        19        19
        18        19        21        21
         7         4         8         8
         3         6         4         4
        19         7         8         8
        19        18        15        15
        14        13        15        15
         8        22        20        20
        27        24        22        22
        19        20        21        21
        32        26        21        21
        17        18        26        26
        17        16        15        15
        25        29        21        21
        12         7        13        13
        10         8         6         6
        25        20        24        24
         4         6         8         8
        12         2         4         4
        10        23        22        22
        26        31        17        17
        30        16        17        17
         4         7        12        12
        13        11        12        12
        21        20        25        25
        24        28        25        25
        22         8        10        10
         6         5        10        10
        31        26        32        32
         4         2         3         3
         5         6         3         3
        11        13        14        14
        22        23        27        27
        28        24        27        27
        15        13         7         7
         2        12         1         1
        29        25        33        33
        23        10         9         9
        21        26        18        18
        16        14        15        15
        18        17        15        15
        29        32        21        21
        22        24        20        20
        28        33        25        25
        11         1        12        12
        31        30        17        17
         5         9        10        10
zone t="boundary 3 bc-3", solutiontime= 0.1000000E+02, strandid=1003, i=33, j=48, f=feblock
  0.375059160561E+01  0.249769669317E+01  0.500322154351E+01  0.403612246844E+01  0.287976834040E+01  0.124541955111E+01  0.190552271985E+01
  0.500000000000E+01  0.326671134967E+01  0.423253777306E+01  0.201271160569E+01 -0.547446164746E-02  0.958895876503E+00  0.500000000000E+01
  0.266968161378E+01  0.385584502666E+01  0.890374255678E+00  0.154654017492E+01  0.000000000000E+00  0.500000000000E+01  0.315261145793E+01
  0.218304201233E+01  0.398195314411E+01  0.000000000000E+00  0.697379940514E+00  0.963757258037E+00  0.125000000000E+01  0.000000000000E+00
  0.500000000000E+01  0.310330742690E+01  0.250000000000E+01  0.375000000000E+01  0.000000000000E+00
  0.250494210899E+01  0.250494210899E+01  0.250494210899E+01  0.250494210899E+01  0.250494210899E+01  0.250494210899E+01  0.250494210899E+01
  0.250494210899E+01  0.250494210899E+01  0.250494210899E+01  0.250494210899E+01  0.250494210899E+01  0.250494210899E+01  0.250494210899E+01
  0.250494210899E+01  0.250494210899E+01  0.250494210899E+01  0.250494210899E+01  0.250494210899E+01  0.250494210899E+01  0.250494210899E+01
  0.250494210899E+01  0.250494210899E+01  0.250494210899E+01  0.250494210899E+01  0.250494210899E+01  0.250494210899E+01  0.250494210899E+01
  0.250494210899E+01  0.250494210899E+01  0.250494210899E+01  0.250494210899E+01  0.250494210899E+01
  0.136237443900E-03  0.111108718262E-03  0.977909467768E-04  0.101756834312E+01  0.908095514398E+00  0.104418312556E-03  0.722630002255E+00
  0.125000000000E+01  0.188965731492E+01  0.191862738997E+01  0.176708311162E+01  0.809130084774E-04  0.969653222054E+00  0.250000000000E+01
  0.285339484251E+01  0.293325095443E+01  0.205656261515E+01  0.293157054940E+01  0.125000000000E+01  0.375000000000E+01  0.363766869207E+01
  0.396069467771E+01  0.407056400730E+01  0.250000000000E+01  0.307032014504E+01  0.397359832875E+01  0.500000000000E+01  0.375000000000E+01
  0.500000000000E+01  0.433260796786E+01  0.500000000000E+01  0.500000000000E+01  0.500000000000E+01
  0.898753493830E+00  0.911640699459E+00  0.782687504211E+00  0.947456415637E+00  0.961656464192E+00  0.922631158619E+00  0.964351869485E+00
  0.951536457230E+00  0.978370205323E+00  0.980121934138E+00  0.987009721488E+00  0.121913381041E+01  0.100527360233E+01  0.100837797219E+01
  0.992359108418E+00  0.997918449138E+00  0.100516526409E+01  0.998205890645E+00  0.105779153703E+01  0.100699225976E+01  0.998842560022E+00
  0.999215938082E+00  0.100027649674E+01  0.101649859194E+01  0.100441244002E+01  0.100198889879E+01  0.100260216216E+01  0.100488170045E+01
  0.100086346665E+01  0.998720992254E+00  0.100111883809E+01  0.100088103260E+01  0.100154290740E+01
  0.000000000000E+00  0.000000000000E+00  0.000000000000E+00  0.453487727889E+00  0.404641442271E+00  0.000000000000E+00  0.369502750357E+00
  0.505611156537E+00  0.571635624294E+00  0.570028977314E+00  0.554931427744E+00  0.000000000000E+00  0.474654283026E+00  0.528160561661E+00
  0.555172220916E+00  0.561464255149E+00  0.524146750986E+00  0.523876269571E+00  0.452531899645E+00  0.514409960827E+00  0.525597203596E+00
  0.506310019754E+00  0.509698557381E+00  0.479176045914E+00  0.499613982701E+00  0.498028872311E+00  0.491675230345E+00  0.493334695626E+00
  0.494319405880E+00  0.501192426380E+00  0.489248367423E+00  0.488242244741E+00  0.498427959911E+00
  0.000000000000E+00  0.000000000000E+00  0.000000000000E+00  0.000000000000E+00  0.000000000000E+00  0.000000000000E+00  0.000000000000E+00
  0.000000000000E+00  0.000000000000E+00  0.000000000000E+00  0.000000000000E+00  0.000000000000E+00  0.000000000000E+00  0.000000000000E+00
  0.000000000000E+00  0.000000000000E+00  0.000000000000E+00  0.000000000000E+00  0.000000000000E+00  0.000000000000E+00  0.000000000000E+00
  0.000000000000E+00  0.000000000000E+00  0.000000000000E+00  0.000000000000E+00  0.000000000000E+00  0.000000000000E+00  0.000000000000E+00
  0.000000000000E+00  0.000000000000E+00  0.000000000000E+00  0.000000000000E+00  0.000000000000E+00
  0.000000000000E+00  0.000000000000E+00  0.000000000000E+00 -0.278899791157E-01  0.118822975209E-01  0.000000000000E+00  0.160340864908E-01
 -0.111963333912E+00 -0.522812184071E-04 -0.449245592228E-01  0.288268699162E-01  0.000000000000E+00  0.530203591832E-01 -0.494398143558E-01
  0.466145328236E-02 -0.989570293422E-02  0.434769162860E-01  0.101240017517E-01  0.391541313931E-01 -0.272790724982E-02 -0.340559648425E-02
 -0.985554937195E-03 -0.637790258323E-03  0.363193928649E-02  0.779448542999E-02  0.180107445008E-02  0.279296701115E-03  0.412064206920E-03
  0.500831475071E-02 -0.192864886630E-02 -0.747891847662E-03 -0.351046545674E-03  0.187278616261E-02
  0.669203125168E+00  0.678798813353E+00  0.582781516227E+00  0.671377905468E+00  0.688596245402E+00  0.686982202533E+00  0.690496455396E+00
  0.671390522562E+00  0.692059016859E+00  0.693021166930E+00  0.701039804172E+00  0.907755198204E+00  0.717367472761E+00  0.721424012862E+00
  0.706841861299E+00  0.711415474470E+00  0.721150575348E+00  0.713299819901E+00  0.774478257511E+00  0.721120737623E+00  0.713524051139E+00
  0.713542864961E+00  0.714760848770E+00  0.730430032603E+00  0.718495749278E+00  0.716202051011E+00  0.716922719360E+00  0.719176611987E+00
  0.715126783723E+00  0.713140684615E+00  0.715129522804E+00  0.714793317446E+00  0.716117583523E+00
  0.000000000000E+00  0.000000000000E+00  0.000000000000E+00  0.456160213574E+00  0.404316216625E+00  0.000000000000E+00  0.369401964338E+00
  0.521042341703E+00  0.574427619866E+00  0.574704090581E+00  0.557249713911E+00  0.000000000000E+00  0.477834379732E+00  0.530045029572E+00
  0.555971227813E+00  0.562097184338E+00  0.524787613274E+00  0.523865498163E+00  0.448642224921E+00  0.513760288162E+00  0.525584266124E+00
  0.506375831623E+00  0.509599954815E+00  0.477757635050E+00  0.499306651986E+00  0.497859751233E+00  0.491408346747E+00  0.492853090974E+00
  0.494267242219E+00  0.501277463228E+00  0.489233669335E+00  0.488283935000E+00  0.498177438800E+00
  0.104242640687E+01  0.104242640687E+01  0.104242640687E+01  0.992055203957E+00  0.100247310704E+01  0.104242640687E+01  0.100242978538E+01
  0.987819987815E+00  0.990302666958E+00  0.989907071670E+00  0.994372906846E+00  0.104242640687E+01  0.999045891128E+00  0.100160222244E+01
  0.997198088296E+00  0.998059175195E+00  0.100442269700E+01  0.100041460106E+01  0.102503141929E+01  0.100255888055E+01  0.100009121715E+01
  0.999743872043E+00  0.100038858410E+01  0.100600438972E+01  0.100147510018E+01  0.100069259512E+01  0.100108681687E+01  0.100195600769E+01
  0.100031375964E+01  0.999675551234E+00  0.100006242400E+01  0.999829761805E+00  0.100102013556E+01
        15         9        16        16
        15        18        11        11
        22        15        21        21
        11         5         9         9
         5         7         2         2
        11         9        15        15
        16        21        15        15
        16        10        14        14
        18        17        11        11
        17        25        24        24
        22        18        15        15
        22        30        31        31
        30        21        23        23
        16        20        23        23
        22        27        26        26
        10         9         4         4
         7        11        13        13
        25        18        26        26
        11         7         5         5
         5         1         4         4
        17        19        13        13
        23        32        30        30
        23        20        29        29
         4         9         5         5
         4         8        10        10
        26        18        22        22
        26        28        25        25
        13        11        17        17
        13         6         7         7
        31        30        32        32
         2         1         5         5
         2         7         6         6
        14        10         8         8
        24        19        17        17
        24        25        28        28
         9        10        16        16
         3         4         1         1
        33        26        27        27
        12        13        19        19
        21        30        22        22
        16        14        20        20
        16        23        21        21
        22        31        27        27
        18        25        17        17
        26        33        28        28
         4         3         8         8
        23        29        32        32
        13        12         6         6
zone t="boundary 4 bc-4", solutiontime= 0.1000000E+02, strandid=1004, i=32, j=46, f=feblock
  0.125000000000E+01  0.219251206392E+01  0.103724302461E+01  0.500000000000E+01  0.250000000000E+01  0.375000000000E+01  0.404200324774E+01
  0.500000000000E+01  0.000000000000E+00  0.310152362409E+01  0.202479342020E+01  0.324151231464E+01  0.922061490191E+00  0.000000000000E+00
  0.299062775774E+01  0.394624082883E+01  0.500000000000E+01  0.409252726285E+01  0.500000000000E+01  0.429310310915E+01  0.175434191980E+01
  0.284428995242E+01  0.000000000000E+00  0.000000000000E+00  0.715990576545E+00  0.930412228790E+00  0.125000000000E+01  0.187029682677E+01
  0.500000000000E+01  0.375000000000E+01  0.250000000000E+01  0.000000000000E+00
  0.250494210899E+01  0.157686156160E+01  0.146289271009E+01  0.250494210899E+01  0.250494210899E+01  0.250494210899E+01  0.155830813274E+01
  0.125000000000E+01  0.250494210899E+01  0.177790177481E+01  0.477386199275E+00  0.742988685424E+00  0.308372018325E+00  0.125000000000E+01
 -0.487811078581E+00 -0.144524380962E+01 -0.125000000000E+01 -0.345533899378E+00  0.000000000000E+00  0.627766083140E+00 -0.739814786992E+00
 -0.158811787973E+01  0.000000000000E+00 -0.125000000000E+01 -0.600232012419E+00 -0.154800130438E+01 -0.249658895697E+01 -0.178862290564E+01
 -0.249658895697E+01 -0.249658895697E+01 -0.249658895697E+01 -0.249658895697E+01
  0.500000000000E+01  0.500000000000E+01  0.500000000000E+01  0.500000000000E+01  0.500000000000E+01  0.500000000000E+01  0.500000000000E+01
  0.500000000000E+01  0.500000000000E+01  0.500000000000E+01  0.500000000000E+01  0.500000000000E+01  0.500000000000E+01  0.500000000000E+01
  0.500000000000E+01  0.500000000000E+01  0.500000000000E+01  0.500000000000E+01  0.500000000000E+01  0.500000000000E+01  0.500000000000E+01
  0.500000000000E+01  0.500000000000E+01  0.500000000000E+01  0.500000000000E+01  0.500000000000E+01  0.500000000000E+01  0.500000000000E+01
  0.500000000000E+01  0.500000000000E+01  0.500000000000E+01  0.500000000000E+01
  0.100260216216E+01  0.100137430444E+01  0.100200835916E+01  0.100086346665E+01  0.100111883809E+01  0.100088103260E+01  0.100033710861E+01
  0.100137151053E+01  0.100154290740E+01  0.100106317244E+01  0.100100716295E+01  0.100024055712E+01  0.100150078860E+01  0.100176666704E+01
  0.100037147827E+01  0.998948768911E+00  0.100191854073E+01  0.100021331406E+01  0.100167019174E+01  0.100083957696E+01  0.100141284654E+01
  0.100017836932E+01  0.100091616054E+01  0.100128151378E+01  0.100102326081E+01  0.100181172047E+01  0.100241355841E+01  0.100111432833E+01
  0.100093089754E+01  0.100032347704E+01  0.100001270353E+01  0.100183209908E+01
  0.491675230345E+00  0.492209296272E+00  0.493686798154E+00  0.494319405880E+00  0.489248367423E+00  0.488242244741E+00  0.489890523257E+00
  0.495120576304E+00  0.498427959911E+00  0.489641900791E+00  0.491727081028E+00  0.491129611773E+00  0.496803940798E+00  0.499374059562E+00
  0.491264204958E+00  0.488062447828E+00  0.493545293981E+00  0.491109174942E+00  0.495480648153E+00  0.491662302947E+00  0.492958954185E+00
  0.491562673373E+00  0.499978798202E+00  0.498779442372E+00  0.497875127033E+00  0.495772328381E+00  0.493109368111E+00  0.493295547197E+00
  0.492668806564E+00  0.489129109609E+00  0.493054841746E+00  0.497927873398E+00
  0.000000000000E+00  0.143843040992E-03 -0.121224378616E-02  0.000000000000E+00  0.000000000000E+00  0.000000000000E+00  0.433863441307E-03
  0.102468099371E-02  0.000000000000E+00  0.363466846277E-03 -0.408450869132E-03 -0.159642793545E-03 -0.176592129731E-02 -0.308452892464E-03
 -0.441480346356E-03 -0.345048709422E-03 -0.549661712543E-03 -0.970058962023E-03 -0.190138346365E-03 -0.292192857384E-03 -0.499534709678E-03
 -0.231011161329E-03 -0.404132509938E-03  0.617174221862E-03 -0.252241342120E-03  0.125218657707E-02  0.000000000000E+00  0.671715435466E-03
  0.000000000000E+00  0.000000000000E+00  0.000000000000E+00  0.000000000000E+00