# vtk DataFile Version 2.0
FUN3D:global_image_vtk
ASCII
DATASET UNSTRUCTURED_GRID
POINTS 213 double
   -0.5474461647464392E-02    0.2504942108992469E+01    0.8091300847736114E-04
    0.1245419551110226E+01    0.2504942108992469E+01    0.1044183125559378E-03
    0.2497696693168747E+01    0.2504942108992469E+01    0.1111087182616575E-03
    0.3750591605607594E+01    0.2504942108992469E+01    0.1362374438995317E-03
    0.5003221543509131E+01    0.2504942108992469E+01    0.9779094677684151E-04
    0.5004677162048951E+01    0.1281291972635014E+01    0.1643464877413141E-03
    0.5004773357424145E+01    0.2775097003571120E-01    0.1913980465250065E-03
    0.5003581603763585E+01   -0.1225853271170730E+01    0.1612950580424043E-03
    0.5001953073820516E+01   -0.2496588956965093E+01    0.1087508196493396E-03
    0.3750348610502709E+01   -0.2496588956965093E+01    0.1462302879465244E-03
    0.2498612054680936E+01   -0.2496588956965093E+01    0.1018102951491478E-03
    0.1247175933891794E+01   -0.2496588956965093E+01    0.1118028953183950E-03
   -0.3383506218729673E-02   -0.2496588956965093E+01    0.8200693890121537E-04
   -0.4257637075825492E-02   -0.1225734579341631E+01    0.3505769555085207E-04
   -0.5251480946163413E-02    0.2619518069262349E-01    0.1043464847781478E-03
   -0.5675494342202461E-02    0.1278222181760415E+01    0.8332061284090429E-04
    0.9003217230366406E+00    0.1608979581192332E+01    0.8746898418251859E-04
    0.3983172957383343E+01   -0.1561211172856604E+01    0.1757872076694869E-03
    0.4035602573383526E+01    0.1486761121250088E+01    0.1720812592351585E-03
    0.1036614353405146E+01   -0.1455626121426647E+01    0.1049762811091599E-03
    0.1094354111420979E+01   -0.2964619229218530E+00    0.1262439117401126E-03
    0.7298402407342440E+00    0.6874686840224647E+00    0.1050177392536687E-03
    0.1617019342295109E+01    0.8553214718266935E+00    0.1537467761766021E-03
    0.2143199649253681E+01   -0.1627128018694232E+01    0.1608934305313169E-03
    0.4088841123111252E+01   -0.4351037435492378E+00    0.2728087410664866E-03
    0.2977916549690846E+01   -0.8334983349163732E+00    0.2255889100218763E-03
    0.3044094005785530E+01   -0.1814360944032876E+01    0.1622372213935122E-03
    0.3427866648944720E+01    0.3813911163548139E+00    0.2941131036180918E-03
    0.4313226241404377E+01    0.5489137077003723E+00    0.2321444441834184E-03
    0.1823033599252240E+01    0.1771266030608995E+01    0.1846034274876868E-03
    0.2806312023364750E+01    0.1358630549737759E+01    0.1953548522251611E-03
    0.1891861383332889E+01   -0.8481304479649456E+00    0.1678934606116969E-03
    0.2268769858566397E+01    0.7723760925646585E-01    0.2082700328655188E-03
    0.5000000000000000E+01    0.2504942108992469E+01    0.1250000000000000E+01
    0.5000000000000000E+01    0.2504942108992469E+01    0.2500000000000000E+01
    0.5000000000000000E+01    0.2504942108992469E+01    0.3750000000000000E+01
    0.5000000000000000E+01    0.2504942108992469E+01    0.5000000000000000E+01
    0.3750000000000000E+01    0.2504942108992469E+01    0.5000000000000000E+01
    0.2500000000000000E+01    0.2504942108992469E+01    0.5000000000000000E+01
    0.1250000000000000E+01    0.2504942108992469E+01    0.5000000000000000E+01
    0.0000000000000000E+00    0.2504942108992469E+01    0.5000000000000000E+01
    0.0000000000000000E+00    0.2504942108992469E+01    0.3750000000000000E+01
    0.0000000000000000E+00    0.2504942108992469E+01    0.2500000000000000E+01
    0.0000000000000000E+00    0.2504942108992469E+01    0.1250000000000000E+01
    0.9588958765028878E+00    0.2504942108992469E+01    0.9696532220544229E+00
    0.3981953144106602E+01    0.2504942108992469E+01    0.4070564007300076E+01
    0.4036122468443808E+01    0.2504942108992469E+01    0.1017568343123276E+01
    0.9637572580372976E+00    0.2504942108992469E+01    0.3973598328748807E+01
    0.1546540174922872E+01    0.2504942108992469E+01    0.2931570549403784E+01
    0.6973799405135022E+00    0.2504942108992469E+01    0.3070320145042754E+01
    0.8903742556777809E+00    0.2504942108992469E+01    0.2056562615153815E+01
    0.2183042012330853E+01    0.2504942108992469E+01    0.3960694677713722E+01
    0.3855845026655452E+01    0.2504942108992469E+01    0.2933250954431863E+01
    0.3152611457925802E+01    0.2504942108992469E+01    0.3637668692067719E+01
    0.3103307426895491E+01    0.2504942108992469E+01    0.4332607967855963E+01
    0.3266711349670356E+01    0.2504942108992469E+01    0.1889657314915315E+01
    0.4232537773062777E+01    0.2504942108992469E+01    0.1918627389967960E+01
    0.1905522719845845E+01    0.2504942108992469E+01    0.7226300022552047E+00
    0.2879768340401895E+01    0.2504942108992469E+01    0.9080955143976289E+00
    0.2012711605685119E+01    0.2504942108992469E+01    0.1767083111617868E+01
    0.2669681613777158E+01    0.2504942108992469E+01    0.2853394842509517E+01
    0.5000000000000000E+01    0.1250000000000000E+01    0.5000000000000000E+01
    0.5000000000000000E+01    0.0000000000000000E+00    0.5000000000000000E+01
    0.5000000000000000E+01   -0.1250000000000000E+01    0.5000000000000000E+01
    0.5000000000000000E+01   -0.2496588956965093E+01    0.5000000000000000E+01
    0.5000000000000000E+01   -0.2496588956965093E+01    0.3750000000000000E+01
    0.5000000000000000E+01   -0.2496588956965093E+01    0.2500000000000000E+01
    0.5000000000000000E+01   -0.2496588956965093E+01    0.1250000000000000E+01
    0.5000000000000000E+01    0.1578994732800803E+01    0.9058375365086910E+00
    0.5000000000000000E+01   -0.1583989954232354E+01    0.3982050490726493E+01
    0.5000000000000000E+01    0.1453322699199022E+01    0.4033849428301197E+01
    0.5000000000000000E+01   -0.1479596339503735E+01    0.1040505887381675E+01
    0.5000000000000000E+01   -0.3227322616384110E+00    0.1099454400140349E+01
    0.5000000000000000E+01    0.6593508822075582E+00    0.7354504170366591E+00
    0.5000000000000000E+01    0.8256214013940779E+00    0.1622302608453282E+01
    0.5000000000000000E+01   -0.1650070333782557E+01    0.2145871574390382E+01
    0.5000000000000000E+01   -0.4612828702537229E+00    0.4086422318222992E+01
    0.5000000000000000E+01   -0.8579242121530853E+00    0.2979540174134984E+01
    0.5000000000000000E+01   -0.1836846154397680E+01    0.3045064261640043E+01
    0.5000000000000000E+01    0.3508002863614053E+00    0.3428197553792836E+01
    0.5000000000000000E+01    0.5185680230613409E+00    0.4309693860063405E+01
    0.5000000000000000E+01    0.1738996113203182E+01    0.1827272193562204E+01
    0.5000000000000000E+01    0.1325493893339706E+01    0.2808563282768077E+01
    0.5000000000000000E+01   -0.8731419609589618E+00    0.1895995683864404E+01
    0.5000000000000000E+01    0.4906150219227333E-01    0.2273179336307740E+01
    0.0000000000000000E+00    0.1250000000000000E+01    0.5000000000000000E+01
    0.0000000000000000E+00    0.0000000000000000E+00    0.5000000000000000E+01
    0.0000000000000000E+00   -0.1250000000000000E+01    0.5000000000000000E+01
    0.0000000000000000E+00   -0.2496588956965093E+01    0.5000000000000000E+01
    0.1250000000000000E+01   -0.2496588956965093E+01    0.5000000000000000E+01
    0.2500000000000000E+01   -0.2496588956965093E+01    0.5000000000000000E+01
    0.3750000000000000E+01   -0.2496588956965093E+01    0.5000000000000000E+01
    0.4042003247744892E+01    0.1558308132739014E+01    0.5000000000000000E+01
    0.9304122287900499E+00   -0.1548001304379777E+01    0.5000000000000000E+01
    0.1037243024609388E+01    0.1462892710085612E+01    0.5000000000000000E+01
    0.3946240828834967E+01   -0.1445243809615570E+01    0.5000000000000000E+01
    0.4092527262848217E+01   -0.3455338993778935E+00    0.5000000000000000E+01
    0.4293103109154542E+01    0.6277660831404320E+00    0.5000000000000000E+01
    0.3241512314643519E+01    0.7429886854239611E+00    0.5000000000000000E+01
    0.2844289952419609E+01   -0.1588117879734118E+01    0.5000000000000000E+01
    0.7159905765450471E+00   -0.6002320124191652E+00    0.5000000000000000E+01
    0.1754341919796891E+01   -0.7398147869923652E+00    0.5000000000000000E+01
    0.1870296826774691E+01   -0.1788622905643739E+01    0.5000000000000000E+01
    0.9220614901912976E+00    0.3083720183248586E+00    0.5000000000000000E+01
    0.3101523624086016E+01    0.1777901774806180E+01    0.5000000000000000E+01
    0.2192512063922564E+01    0.1576861561598471E+01    0.5000000000000000E+01
    0.2024793420196460E+01    0.4773861992750707E+00    0.5000000000000000E+01
    0.2990627757741975E+01   -0.4878110785814084E+00    0.5000000000000000E+01
    0.0000000000000000E+00   -0.2496588956965093E+01    0.1250000000000000E+01
    0.0000000000000000E+00   -0.2496588956965093E+01    0.2500000000000000E+01
    0.0000000000000000E+00   -0.2496588956965093E+01    0.3750000000000000E+01
    0.0000000000000000E+00    0.1558308132739014E+01    0.4042003247744892E+01
    0.0000000000000000E+00   -0.1548001304379777E+01    0.9304122287900499E+00
    0.0000000000000000E+00    0.1462892710085612E+01    0.1037243024609388E+01
    0.0000000000000000E+00   -0.1445243809615570E+01    0.3946240828834967E+01
    0.0000000000000000E+00   -0.3455338993778935E+00    0.4092527262848217E+01
    0.0000000000000000E+00    0.6277660831404320E+00    0.4293103109154542E+01
    0.0000000000000000E+00    0.7429886854239611E+00    0.3241512314643519E+01
    0.0000000000000000E+00   -0.1588117879734118E+01    0.2844289952419609E+01
    0.0000000000000000E+00   -0.6002320124191652E+00    0.7159905765450471E+00
    0.0000000000000000E+00   -0.7398147869923652E+00    0.1754341919796891E+01
    0.0000000000000000E+00   -0.1788622905643739E+01    0.1870296826774691E+01
    0.0000000000000000E+00    0.3083720183248586E+00    0.9220614901912976E+00
    0.0000000000000000E+00    0.1777901774806180E+01    0.3101523624086016E+01
    0.0000000000000000E+00    0.1576861561598471E+01    0.2192512063922564E+01
[...]
POINT_DATA 213
SCALARS rho double 1
LOOKUP_TABLE default
   0.1219133810414657E+01
   0.9226311586192198E+00
   0.9116406994585352E+00
   0.8987534938295230E+00
   0.7826875042112529E+00
   0.7115136264086410E+00
   0.6993363089177664E+00
   0.7025694616066901E+00
   0.7698486558089168E+00
   0.8909695757370069E+00
   0.8997151411169795E+00
   0.9248314145633408E+00
   0.1299011351995454E+01
   0.1346728053678456E+01
   0.1454804662138858E+01
   0.1286356593424077E+01
   0.9622137520628170E+00
   0.9060825691360741E+00
   0.8989011735310681E+00
   0.9247548373005665E+00
   0.9119637013082419E+00
   0.9859418396658265E+00
   0.8978225351663747E+00
   0.9010682213767413E+00
   0.9082030545384886E+00
   0.9128209996779062E+00
   0.8953899553316330E+00
   0.9139638257270868E+00
   0.8913491792728482E+00
   0.9027239585282546E+00
   0.9077981195689673E+00
   0.8627642216931432E+00
   0.9090649358555624E+00
   0.9515364572297255E+00
   0.1008377972191674E+01
   0.1006992259764272E+01
   0.1000863466646803E+01
   0.1000881032604233E+01
   0.1001118838086418E+01
   0.1002602162164367E+01
   0.1001542907397982E+01
   0.1004881700448964E+01
   0.1016498591943203E+01
   0.1057791537031820E+01
   0.1005273602328489E+01
   0.1000276496740087E+01
   0.9474564156368124E+00
   0.1001988898793117E+01
   0.9982058906447351E+00
   0.1004412440018379E+01
   0.1005165264086138E+01
   0.9992159380815404E+00
   0.9979184491378053E+00
   0.9988425600224822E+00
   0.9987209922539821E+00
   0.9783702053225198E+00
   0.9801219341375978E+00
   0.9643518694847886E+00
   0.9616564641916737E+00
   0.9870097214878593E+00
   0.9923591084182308E+00
   0.1001371510531510E+01
   0.1001670191735193E+01
   0.1001918540730488E+01
   0.1000930897538775E+01
   0.1009975203854776E+01
   0.1006365233164579E+01
   0.9450235305691710E+00
   0.9042803153142018E+00
   0.1007718669969624E+01
   0.1004538759514177E+01
   0.8972278998070711E+00
   0.8933935050286205E+00
   0.8481305627602723E+00
   0.9703665323739248E+00
   0.9992973126789770E+00
   0.1006483188691538E+01
   0.1014462296942024E+01
   0.1012405573062394E+01
   0.1012213221011985E+01
   0.1005510980795948E+01
   0.9863398275027154E+00
   0.1006135419859571E+01
   0.9841398524076456E+00
   0.1006144182543420E+01
   0.1001766667041353E+01
   0.1000916160536204E+01
   0.1001281513775267E+01
   0.1001832099075957E+01
   0.1002413558414480E+01
   0.1000012703533830E+01
   0.1000323477039653E+01
   0.1000337108605839E+01
   0.1001811720465595E+01
   0.1002008359161674E+01
   0.9989487689112919E+00
   0.1000213314064099E+01
   0.1000839576960451E+01
   0.1000240557123011E+01
   0.1000178369317211E+01
   0.1001023260813066E+01
   0.1001412846535804E+01
   0.1001114328325638E+01
   0.1001500788595561E+01
   0.1001063172435260E+01
   0.1001374304438343E+01
   0.1001007162950987E+01
   0.1000371478265769E+01
   0.1060651554191744E+01
   0.1020334351610516E+01
   0.1005949621943572E+01
   0.1003369786589745E+01
   0.1141354335192336E+01
   0.1083286240741481E+01
   0.1004327239651813E+01
   0.1003795922955863E+01
   0.1003700707975489E+01
   0.1006590270258536E+01
   0.1012099160072599E+01
   0.1192715786837722E+01
   0.1028281949110451E+01
   0.1034490265105124E+01
   0.1168860280821757E+01
   0.1009803251065917E+01
   0.1023219935744512E+01
   0.1017195546478059E+01
   0.1007878887519014E+01
   0.1013794509286044E+01
   0.1000310976633265E+01
   0.9455919360354004E+00
   0.1003344087283736E+01
   0.9990183423884378E+00
   0.1006137395614514E+01
   0.1009057552618158E+01
   0.9979417472145629E+00
   0.9976046553379131E+00
   0.9960969195768254E+00
   0.9983734641149468E+00
   0.9808779297395427E+00
   0.9778642442259533E+00
   0.9482522858381233E+00
   0.9510716185071931E+00
   0.9878722406991269E+00
   0.9902132138460994E+00
   0.9926388275463481E+00
   0.9998960198983926E+00
   0.9986994539031552E+00
   0.9946796820847763E+00
   0.1006737382044147E+01
   0.1020944635639261E+01
   0.9978086062387906E+00
   0.1004741204579869E+01
   0.1001356996925210E+01
   0.1004761497581064E+01
   0.9953199620036972E+00
   0.9852685741674896E+00
   0.1000275778234117E+01
   0.9939691731037213E+00
   0.9818671879745263E+00
   0.9942176473337643E+00
   0.9968740820678487E+00
   0.9929869622871926E+00
   0.9986781881573441E+00
   0.1000045071193408E+01
   0.9997580548955559E+00
   0.9953543381506045E+00
   0.9934386779176519E+00
   0.1001359471547079E+01
   0.1018100526340209E+01
   0.1002754632437585E+01
   0.9807212002422752E+00
   0.1001888908259165E+01
   0.1008094095904448E+01
   0.9703595658365656E+00
   0.9431719277357891E+00
   0.9845791875225106E+00
   0.9845644037521378E+00
   0.9759363094517134E+00
   0.9907790782758418E+00
   0.9774205414845337E+00
   0.1033863764748411E+01
   0.1021196235650813E+01
   0.1000259158522250E+01
   0.9991305192253496E+00
   0.9911078392297078E+00
   0.9906909327171839E+00
   0.9575615999132567E+00
   0.9924950646716301E+00
   0.1006124753695018E+01
   0.1001959836162085E+01
   0.9898349829311501E+00
   0.9657116664523755E+00
   0.9211022738275098E+00
   0.9725771645857766E+00
   0.9782276574827712E+00
   0.9569319483577078E+00
   0.9618613486863891E+00
   0.9492266248937175E+00
   0.9375011587882061E+00
   0.9320227738643070E+00
   0.9993330738329272E+00
   0.9994471229620367E+00
   0.9988476061387149E+00
   0.1001937807640846E+01
   0.9401059180962466E+00
   0.9260637230828648E+00
   0.9376810741322148E+00
   0.9982716792966631E+00
   0.9982359109541563E+00
   0.1000512420759603E+01
   0.9796499139079822E+00
   0.9713011919173503E+00
   0.9459752487802142E+00
SCALARS u double 1
LOOKUP_TABLE default
   0.0000000000000000E+00
   0.0000000000000000E+00
   0.0000000000000000E+00
   0.0000000000000000E+00
   0.0000000000000000E+00
   0.0000000000000000E+00
   0.0000000000000000E+00
   0.0000000000000000E+00
   0.0000000000000000E+00
   0.0000000000000000E+00
   0.0000000000000000E+00
   0.0000000000000000E+00
   0.0000000000000000E+00
   0.0000000000000000E+00
   0.0000000000000000E+00
   0.0000000000000000E+00
   0.0000000000000000E+00
   0.0000000000000000E+00
   0.0000000000000000E+00
   0.0000000000000000E+00
   0.0000000000000000E+00
   0.0000000000000000E+00
   0.0000000000000000E+00
   0.0000000000000000E+00
   0.0000000000000000E+00
   0.0000000000000000E+00
   0.0000000000000000E+00
   0.0000000000000000E+00
   0.0000000000000000E+00
   0.0000000000000000E+00
   0.0000000000000000E+00
   0.0000000000000000E+00
   0.0000000000000000E+00
   0.5056111565371838E+00
   0.5281605616606622E+00
   0.5144099608274011E+00
   0.4943194058795016E+00
   0.4882422447413336E+00
   0.4892483674230418E+00
   0.4916752303445470E+00
   0.4984279599106472E+00
   0.4933346956261443E+00
   0.4791760459135836E+00
   0.4525318996445483E+00
   0.4746542830263479E+00
   0.5096985573812358E+00
   0.4534877278893681E+00
   0.4980288723110116E+00
   0.5238762695714102E+00
   0.4996139827012895E+00
   0.5241467509855408E+00
   0.5063100197541573E+00
   0.5614642551487136E+00
   0.5255972035957986E+00
   0.5011924263803569E+00
   0.5716356242940763E+00
   0.5700289773143047E+00
   0.3695027503568633E+00
   0.4046414422713329E+00
   0.5549314277441469E+00
   0.5551722209163705E+00
   0.4951205763036035E+00
   0.4954806481532800E+00
   0.4935452939810967E+00
   0.4926688065643351E+00
   0.5127171396231898E+00
   0.5312458773107961E+00
   0.5064716721394703E+00
   0.4711115728789550E+00
   0.5093705840188997E+00
   0.5083269518599428E+00
   0.4965792436553680E+00
   0.5104316787489407E+00
   0.4872304480480811E+00
   0.5300667758689481E+00
   0.5273088881039047E+00
   0.5090845486313337E+00
   0.5260823097503784E+00
   0.5251038637350706E+00
   0.5237638058226712E+00
   0.5036432023460866E+00
   0.5284184964365394E+00
   0.5340750637843312E+00
   0.5374446645431297E+00
   0.5320535487793249E+00
   0.4993740595622916E+00
   0.4999787982023277E+00
   0.4987794423716694E+00
   0.4979278733984275E+00
   0.4931093681107755E+00
   0.4930548417458424E+00
   0.4891291096088654E+00
   0.4898905232573638E+00
   0.4957723283812105E+00
   0.4936867981537914E+00
   0.4880624478277438E+00
   0.4911091749417782E+00
   0.4916623029465990E+00
   0.4911296117728530E+00
   0.4915626733728922E+00
   0.4978751270333222E+00
   0.4929589541849566E+00
   0.4932955471966294E+00
   0.4968039407982195E+00
   0.4896419007907288E+00
   0.4922092962720877E+00
   0.4917270810276682E+00
   0.4912642049579373E+00
   0.4518182026956079E+00
   0.4774604077249122E+00
   0.4928759118805061E+00
   0.4919282080225081E+00
   0.4651127982187864E+00
   0.4721718406678072E+00
   0.4914612857997834E+00
   0.4907488246487395E+00
   0.4941411248537521E+00
   0.4856010686510248E+00
   0.4738958933929179E+00
   0.4021416459660463E+00
   0.4922267050520664E+00
   0.4592954698991695E+00
   0.4600222769435601E+00
   0.4894474788302450E+00
   0.4711677109455083E+00
   0.4746340547688368E+00
   0.4817459995368171E+00
   0.4809665235938569E+00
   0.5088539404977165E+00
   0.4462502785056550E+00
   0.4962883773412962E+00
   0.5325957491267012E+00
   0.4954414240594169E+00
   0.5220029969206063E+00
   0.5090998152002302E+00
   0.5649650722067167E+00
   0.5280921217574355E+00
   0.5039011378942696E+00
   0.5819075043439231E+00
   0.5710398996441306E+00
   0.3419342418660899E+00
   0.3865040758329513E+00
   0.5704914333239044E+00
   0.5644744579509632E+00
   0.5680346449921436E+00
   0.5294478896749317E+00
   0.5447824477569306E+00
   0.5697499837304520E+00
   0.5403841489563803E+00
   0.5487297040349710E+00
   0.5786967883774335E+00
   0.4958869402399759E+00
   0.5066931469645090E+00
   0.4997870732962886E+00
   0.5529598617118137E+00
   0.4599358799023661E+00
   0.4984308891460133E+00
   0.5487190470697270E+00
   0.5873570384846208E+00
   0.5807065637907883E+00
   0.5451131224677020E+00
   0.5754256993959609E+00
   0.5124462016846478E+00
   0.5057331452547758E+00
   0.5050566442457329E+00
   0.5629545355031232E+00
   0.5551490637470355E+00
   0.4981552505327645E+00
   0.5484856136999445E+00
   0.5484564681940001E+00
   0.5637702843460597E+00
   0.4954125559883696E+00
   0.4963030377904069E+00
   0.3930082156845208E+00
   0.3747080156490388E+00
   0.5576770916630917E+00
   0.5730765586630677E+00
   0.4176972896783418E+00
   0.5803205061265113E+00
   0.4200524452013467E+00
   0.5390551538085121E+00
   0.4999184936679818E+00
   0.5110593836483118E+00
   0.5070779557722245E+00
   0.5706483203479302E+00
   0.5839061692482327E+00
   0.5446002700433483E+00
   0.5636689011924515E+00
   0.5322661948696231E+00
   0.5311671905262462E+00
   0.5557836057077218E+00
   0.5546870702108015E+00
   0.4419483591297495E+00
   0.5275706744977671E+00
   0.5790627291914830E+00
   0.3423579557486517E+00
   0.4809121951620912E+00
   0.5507720841889371E+00
   0.4937081431253886E+00
   0.3129739860468685E+00
   0.5064174812113273E+00
   0.5044805809042958E+00
   0.5133348683703703E+00
   0.5375017462496472E+00
   0.3546191410485024E+00
   0.3596718954392759E+00
   0.3330903408421974E+00
   0.5089455969525608E+00
   0.5137482944195235E+00
   0.5315413082926187E+00
   0.5847272703041663E+00
   0.4639012755051161E+00
   0.3664172187086114E+00
SCALARS v double 1
LOOKUP_TABLE default
   0.0000000000000000E+00
   0.0000000000000000E+00
   0.0000000000000000E+00
   0.0000000000000000E+00
   0.0000000000000000E+00
   0.0000000000000000E+00
   0.0000000000000000E+00
   0.0000000000000000E+00
   0.0000000000000000E+00
   0.0000000000000000E+00
   0.0000000000000000E+00
   0.0000000000000000E+00
   0.0000000000000000E+00
   0.0000000000000000E+00
   0.0000000000000000E+00
   0.0000000000000000E+00
   0.0000000000000000E+00
   0.0000000000000000E+00
   0.0000000000000000E+00
   0.0000000000000000E+00
   0.0000000000000000E+00
   0.0000000000000000E+00
   0.0000000000000000E+00
   0.0000000000000000E+00
   0.0000000000000000E+00
   0.0000000000000000E+00
   0.0000000000000000E+00
   0.0000000000000000E+00
   0.0000000000000000E+00
   0.0000000000000000E+00
   0.0000000000000000E+00
   0.0000000000000000E+00
   0.0000000000000000E+00
   0.0000000000000000E+00
   0.0000000000000000E+00
   0.0000000000000000E+00
   0.0000000000000000E+00
   0.0000000000000000E+00
   0.0000000000000000E+00
   0.0000000000000000E+00
   0.0000000000000000E+00
   0.0000000000000000E+00
   0.0000000000000000E+00
   0.0000000000000000E+00
   0.0000000000000000E+00
   0.0000000000000000E+00
   0.0000000000000000E+00
   0.0000000000000000E+00
   0.0000000000000000E+00
   0.0000000000000000E+00
   0.0000000000000000E+00
   0.0000000000000000E+00
   0.0000000000000000E+00
   0.0000000000000000E+00
   0.0000000000000000E+00
   0.0000000000000000E+00
   0.0000000000000000E+00
   0.0000000000000000E+00
   0.0000000000000000E+00
   0.0000000000000000E+00
   0.0000000000000000E+00
   0.1024680993705744E-02
  -0.1901383463649717E-03
  -0.5496617125431298E-03
   0.0000000000000000E+00
   0.0000000000000000E+00
   0.0000000000000000E+00
   0.0000000000000000E+00
  -0.1794953885953665E-01
   0.4151306798269874E-03
   0.1890792254209611E-02
   0.1481484358095341E-01
  -0.5477917201626503E-02
  -0.5541633361250689E-02
  -0.1106111789403485E-01
   0.4395638157115162E-02
   0.7039063343985810E-03
   0.2941547888890390E-02
   0.1472387923242214E-02
   0.2882388919323685E-02
   0.1829004753504762E-02
  -0.6346683478346611E-02
   0.3347626586966306E-04
   0.4397916670411685E-02
   0.1106824976551023E-03
  -0.3084528924636195E-03
  -0.4041325099376526E-03
   0.6171742218618124E-03
   0.0000000000000000E+00
   0.0000000000000000E+00
   0.0000000000000000E+00
   0.0000000000000000E+00
   0.4338634413066610E-03
   0.1252186577072307E-02
  -0.1212243786161472E-02
  -0.3450487094224892E-03
  -0.9700589620233930E-03
  -0.2921928573836368E-03
  -0.1596427935449275E-03
  -0.2310111613292986E-03
  -0.2522413421200411E-03
  -0.4995347096778352E-03
   0.6717154354664375E-03
  -0.1765921297309971E-02
   0.3634668462774433E-03
   0.1438430409920743E-03
  -0.4084508691317424E-03
  -0.4414803463563524E-03
   0.0000000000000000E+00
   0.0000000000000000E+00
   0.0000000000000000E+00
  -0.1037211073682417E-02
  -0.8639981582215120E-02
   0.1491316930615550E-01
   0.1307886916485406E-03
  -0.1048151392934610E-02
  -0.1798840785243974E-02
  -0.5016097598075032E-02
  -0.1437865019591276E-02
  -0.4112896297182567E-02
  -0.3030473416012898E-02
   0.2205305937185736E-02
   0.2848526222163328E-01
  -0.2237208270759974E-03
  -0.3849592867630860E-02
   0.2893922994342137E-02
   0.9896095077987659E-03
   0.0000000000000000E+00
   0.0000000000000000E+00
   0.0000000000000000E+00
   0.0000000000000000E+00
   0.0000000000000000E+00
   0.0000000000000000E+00
   0.0000000000000000E+00
   0.0000000000000000E+00
   0.0000000000000000E+00
   0.0000000000000000E+00
   0.0000000000000000E+00
   0.0000000000000000E+00
   0.0000000000000000E+00
   0.0000000000000000E+00
   0.0000000000000000E+00
   0.0000000000000000E+00
   0.0000000000000000E+00
   0.4373164419268923E-02
   0.2836884765437868E-02
   0.6897724620928125E-02
   0.5346176055551647E-02
   0.8758315618310862E-02
   0.1213585251491236E-01
  -0.1706144094181188E-03
   0.4586527797009679E-02
   0.2536539473289246E-02
   0.2550503738993212E-02
   0.3067847752480517E-02
  -0.1120606607561410E-01
  -0.5216721698714433E-03
   0.6036778821238366E-02
   0.2496620283283723E-02
   0.2507161135898193E-02
   0.3765426431567530E-02
  -0.2010813648219156E-02
   0.1220968591431281E-02
   0.2667138902096550E-02
   0.1455959689807030E-02
   0.2310219457646879E-02
   0.1654618382961507E-02
   0.1978150473134222E-02
   0.8136227954815578E-02
  -0.3285221650372673E-02
   0.5441906557875300E-02
   0.5515040247648997E-04
  -0.1298817712933907E-03
  -0.1339480851794190E-01
  -0.3508167773171982E-02
  -0.4000356047672987E-02
   0.3739351781531963E-02
  -0.4187834977994373E-02
   0.7368629330916621E-03
  -0.2694858370923639E-01
  -0.2862943587881925E-02
   0.4328007539594907E-02
   0.9019145804629770E-03
   0.2036614158737243E-02
   0.3881434231999316E-02
   0.2065313790307055E-02
   0.2999519050385416E-02
   0.4622694509078580E-02
   0.1845124384704079E-02
   0.5349411806317034E-03
  -0.2591216992638534E-03
  -0.4208004849726775E-02
  -0.4837363209771179E-02
   0.7231193643049049E-03
   0.6731535574453969E-03
  -0.2724288182721738E-03
  -0.3978620330790859E-02
  -0.1297591727419260E-02
  -0.4180661030554813E-02
  -0.7253098559318172E-02
  -0.1738560305757928E-02
   0.6416497006769070E-03
  -0.2174159362477068E-03
   0.8100069875549571E-03
  -0.1536303973834757E-02
   0.7234925683452265E-02
  -0.9844581276699403E-02
  -0.9950365639515237E-05
  -0.3763399211387278E-03
   0.2264160027657337E-02
   0.1177258288911314E-02
   0.1463247142832824E-02
  -0.3737668759053470E-02
SCALARS w double 1
LOOKUP_TABLE default
   0.0000000000000000E+00
   0.0000000000000000E+00
   0.0000000000000000E+00
   0.0000000000000000E+00
   0.0000000000000000E+00
   0.0000000000000000E+00
   0.0000000000000000E+00
   0.0000000000000000E+00
   0.0000000000000000E+00
   0.0000000000000000E+00
   0.0000000000000000E+00
   0.0000000000000000E+00
   0.0000000000000000E+00
   0.0000000000000000E+00
   0.0000000000000000E+00
   0.0000000000000000E+00
   0.0000000000000000E+00
   0.0000000000000000E+00
   0.0000000000000000E+00
   0.0000000000000000E+00
   0.0000000000000000E+00
   0.0000000000000000E+00
   0.0000000000000000E+00
   0.0000000000000000E+00
   0.0000000000000000E+00
   0.0000000000000000E+00
   0.0000000000000000E+00
   0.0000000000000000E+00
   0.0000000000000000E+00
   0.0000000000000000E+00
   0.0000000000000000E+00
   0.0000000000000000E+00
   0.0000000000000000E+00
  -0.1119633339116138E+00
  -0.4943981435577414E-01
  -0.2727907249818415E-02
   0.5008314750714575E-02
  -0.3510465456743400E-03
  -0.7478918476621621E-03
   0.2792967011150521E-03
   0.1872786162613394E-02
   0.4120642069196011E-03
   0.3631939286494657E-02
   0.3915413139309814E-01
   0.5302035918321010E-01
  -0.6377902583233919E-03
  -0.2788997911572470E-01
   0.1801074450084343E-02
   0.1012400175170609E-01
   0.7794485429988412E-02
   0.4347691628599751E-01
  -0.9855549371952739E-03
  -0.9895702934215671E-02
  -0.3405596484245860E-02
  -0.1928648866298339E-02
  -0.5228121840712153E-04
  -0.4492455922281669E-01
   0.1603408649077909E-01
   0.1188229752090165E-01
   0.2882686991616051E-01
   0.4661453282361968E-02
   0.4125871987164689E-02
   0.4483029484793627E-02
   0.4471221319384151E-02
   0.5891905048571728E-02
  -0.4978112558052586E-03
  -0.4763120493913850E-01
  -0.1101062785791024E+00
  -0.1256120489244810E+00
   0.2476611996276990E-02
   0.8887843446696770E-03
  -0.1122956953358367E+00
  -0.1108798992358076E+00
  -0.1107795254245208E+00
  -0.1053208384723712E+00
  -0.7619046505661649E-01
   0.2362434547896850E-02
  -0.2486927500245021E-01
  -0.2066314118483080E-01
  -0.1113774169599825E-01
   0.4207650180217633E-02
  -0.8953452824892304E-01
  -0.3439874033751063E-01
  -0.8998433529200398E-01
  -0.6744614437553402E-01
   0.2358247380916684E-02
   0.1776598010585927E-02
   0.1683071194995836E-02
   0.2514745628654725E-02
   0.6564603104659033E-03
  -0.1370283172051396E-02
  -0.1317727736322341E-02
   0.1224724196254332E-02
   0.2027580170975092E-02
   0.9872130908054218E-03
   0.9656068942129873E-03
   0.1043309684584007E-02
   0.8694462273517271E-03
  -0.1126120182272954E-02
  -0.2101749582463835E-02
   0.2201027590750419E-02
  -0.5889991977141473E-03
  -0.7896062105705075E-03
   0.2261947339741403E-02
  -0.1078349700751247E-02
  -0.6027416554845905E-03
  -0.4760273915828356E-03
  -0.1618299720795671E-02
   0.6928434083525112E-01
   0.2333184490764697E-02
  -0.1085198135332843E-02
  -0.8318563157169086E-03
   0.1153151672971125E+00
   0.1030929886697670E+00
  -0.1798403799204068E-02
  -0.4520555903584372E-02
  -0.7740232966180990E-03
  -0.6734599914998112E-02
  -0.2019710591459534E-02
   0.1271882526397590E+00
   0.6393886319760049E-01
   0.2261659868757349E-01
   0.1351371506575159E+00