# vtk DataFile Version 2.0
FUN3D:global_image_vtk
ASCII
DATASET UNSTRUCTURED_GRID
POINTS 213 double
   -0.5474461647464461E-02    0.2504942108992469E+01    0.8091300847736222E-04
    0.1245419551110226E+01    0.2504942108992469E+01    0.1044183125559392E-03
    0.2497696693168747E+01    0.2504942108992469E+01    0.1111087182616591E-03
    0.3750591605607594E+01    0.2504942108992469E+01    0.1362374438995335E-03
    0.5003221543509131E+01    0.2504942108992469E+01    0.9779094677684297E-04
    0.5004677162048951E+01    0.1281291972635014E+01    0.1643464877413162E-03
    0.5004773357424145E+01    0.2775097003571158E-01    0.1913980465250087E-03
    0.5003581603763585E+01   -0.1225853271170730E+01    0.1612950580424065E-03
    0.5001953073820516E+01   -0.2496588956965093E+01    0.1087508196493410E-03
    0.3750348610502709E+01   -0.2496588956965093E+01    0.1462302879465263E-03
    0.2498612054680936E+01   -0.2496588956965093E+01    0.1018102951491492E-03
    0.1247175933891794E+01   -0.2496588956965093E+01    0.1118028953183965E-03
   -0.3383506218729720E-02   -0.2496588956965093E+01    0.8200693890121646E-04
   -0.4257637075825551E-02   -0.1225734579341631E+01    0.3505769555085253E-04
   -0.5251480946163472E-02    0.2619518069262387E-01    0.1043464847781492E-03
   -0.5675494342202531E-02    0.1278222181760415E+01    0.8332061284090538E-04
    0.9003217230366406E+00    0.1608979581192332E+01    0.8746898418251967E-04
    0.3983172957383343E+01   -0.1561211172856604E+01    0.1757872076694891E-03
    0.4035602573383526E+01    0.1486761121250088E+01    0.1720812592351607E-03
    0.1036614353405146E+01   -0.1455626121426647E+01    0.1049762811091614E-03
    0.1094354111420979E+01   -0.2964619229218530E+00    0.1262439117401145E-03
    0.7298402407342440E+00    0.6874686840224647E+00    0.1050177392536702E-03
    0.1617019342295109E+01    0.8553214718266935E+00    0.1537467761766039E-03
    0.2143199649253681E+01   -0.1627128018694232E+01    0.1608934305313190E-03
    0.4088841123111252E+01   -0.4351037435492378E+00    0.2728087410664903E-03
    0.2977916549690846E+01   -0.8334983349163732E+00    0.2255889100218793E-03
    0.3044094005785530E+01   -0.1814360944032876E+01    0.1622372213935144E-03
    0.3427866648944720E+01    0.3813911163548142E+00    0.2941131036180955E-03
    0.4313226241404377E+01    0.5489137077003723E+00    0.2321444441834213E-03
    0.1823033599252240E+01    0.1771266030608995E+01    0.1846034274876890E-03
    0.2806312023364750E+01    0.1358630549737759E+01    0.1953548522251640E-03
    0.1891861383332889E+01   -0.8481304479649456E+00    0.1678934606116991E-03
    0.2268769858566397E+01    0.7723760925646611E-01    0.2082700328655217E-03
    0.5000000000000000E+01    0.2504942108992469E+01    0.1250000000000000E+01
    0.5000000000000000E+01    0.2504942108992469E+01    0.2500000000000000E+01
    0.5000000000000000E+01    0.2504942108992469E+01    0.3750000000000000E+01
    0.5000000000000000E+01    0.2504942108992469E+01    0.5000000000000000E+01
    0.3750000000000000E+01    0.2504942108992469E+01    0.5000000000000000E+01
    0.2500000000000000E+01    0.2504942108992469E+01    0.5000000000000000E+01
    0.1250000000000000E+01    0.2504942108992469E+01    0.5000000000000000E+01
    0.0000000000000000E+00    0.2504942108992469E+01    0.5000000000000000E+01
    0.0000000000000000E+00    0.2504942108992469E+01    0.3750000000000000E+01
    0.0000000000000000E+00    0.2504942108992469E+01    0.2500000000000000E+01
    0.0000000000000000E+00    0.2504942108992469E+01    0.1250000000000000E+01
    0.9588958765028881E+00    0.2504942108992469E+01    0.9696532220544231E+00
    0.3981953144106603E+01    0.2504942108992469E+01    0.4070564007300075E+01
    0.4036122468443807E+01    0.2504942108992469E+01    0.1017568343123276E+01
    0.9637572580372978E+00    0.2504942108992469E+01    0.3973598328748808E+01
    0.1546540174922872E+01    0.2504942108992469E+01    0.2931570549403785E+01
    0.6973799405135016E+00    0.2504942108992469E+01    0.3070320145042755E+01
    0.8903742556777801E+00    0.2504942108992469E+01    0.2056562615153816E+01
    0.2183042012330853E+01    0.2504942108992469E+01    0.3960694677713721E+01
    0.3855845026655452E+01    0.2504942108992469E+01    0.2933250954431863E+01
    0.3152611457925804E+01    0.2504942108992469E+01    0.3637668692067717E+01
    0.3103307426895491E+01    0.2504942108992469E+01    0.4332607967855962E+01
    0.3266711349670356E+01    0.2504942108992469E+01    0.1889657314915316E+01
    0.4232537773062778E+01    0.2504942108992469E+01    0.1918627389967961E+01
    0.1905522719845845E+01    0.2504942108992469E+01    0.7226300022552048E+00
    0.2879768340401895E+01    0.2504942108992469E+01    0.9080955143976289E+00
    0.2012711605685119E+01    0.2504942108992469E+01    0.1767083111617869E+01
    0.2669681613777159E+01    0.2504942108992469E+01    0.2853394842509518E+01
    0.5000000000000000E+01    0.1250000000000000E+01    0.5000000000000000E+01
    0.5000000000000000E+01    0.0000000000000000E+00    0.5000000000000000E+01
    0.5000000000000000E+01   -0.1250000000000000E+01    0.5000000000000000E+01
    0.5000000000000000E+01   -0.2496588956965093E+01    0.5000000000000000E+01
    0.5000000000000000E+01   -0.2496588956965093E+01    0.3750000000000000E+01
    0.5000000000000000E+01   -0.2496588956965093E+01    0.2500000000000000E+01
    0.5000000000000000E+01   -0.2496588956965093E+01    0.1250000000000000E+01
    0.5000000000000000E+01    0.1578994732800803E+01    0.9058375365086910E+00
    0.5000000000000000E+01   -0.1583989954232354E+01    0.3982050490726493E+01
    0.5000000000000000E+01    0.1453322699199022E+01    0.4033849428301197E+01
    0.5000000000000000E+01   -0.1479596339503735E+01    0.1040505887381675E+01
    0.5000000000000000E+01   -0.3227322616384110E+00    0.1099454400140349E+01
    0.5000000000000000E+01    0.6593508822075582E+00    0.7354504170366591E+00
    0.5000000000000000E+01    0.8256214013940779E+00    0.1622302608453282E+01
    0.5000000000000000E+01   -0.1650070333782557E+01    0.2145871574390382E+01
    0.5000000000000000E+01   -0.4612828702537229E+00    0.4086422318222992E+01
    0.5000000000000000E+01   -0.8579242121530853E+00    0.2979540174134984E+01
    0.5000000000000000E+01   -0.1836846154397680E+01    0.3045064261640043E+01
    0.5000000000000000E+01    0.3508002863614053E+00    0.3428197553792836E+01
    0.5000000000000000E+01    0.5185680230613409E+00    0.4309693860063405E+01
    0.5000000000000000E+01    0.1738996113203182E+01    0.1827272193562204E+01
    0.5000000000000000E+01    0.1325493893339706E+01    0.2808563282768077E+01
    0.5000000000000000E+01   -0.8731419609589618E+00    0.1895995683864404E+01
    0.5000000000000000E+01    0.4906150219227333E-01    0.2273179336307740E+01
    0.0000000000000000E+00    0.1250000000000000E+01    0.5000000000000000E+01
    0.0000000000000000E+00    0.0000000000000000E+00    0.5000000000000000E+01
    0.0000000000000000E+00   -0.1250000000000000E+01    0.5000000000000000E+01
    0.0000000000000000E+00   -0.2496588956965093E+01    0.5000000000000000E+01
    0.1250000000000000E+01   -0.2496588956965093E+01    0.5000000000000000E+01
    0.2500000000000000E+01   -0.2496588956965093E+01    0.5000000000000000E+01
    0.3750000000000000E+01   -0.2496588956965093E+01    0.5000000000000000E+01
    0.4042003247744892E+01    0.1558308132739014E+01    0.5000000000000000E+01
    0.9304122287900499E+00   -0.1548001304379777E+01    0.5000000000000000E+01
    0.1037243024609388E+01    0.1462892710085612E+01    0.5000000000000000E+01
    0.3946240828834967E+01   -0.1445243809615570E+01    0.5000000000000000E+01
    0.4092527262848217E+01   -0.3455338993778935E+00    0.5000000000000000E+01
    0.4293103109154542E+01    0.6277660831404320E+00    0.5000000000000000E+01
    0.3241512314643519E+01    0.7429886854239611E+00    0.5000000000000000E+01
    0.2844289952419609E+01   -0.1588117879734118E+01    0.5000000000000000E+01
    0.7159905765450471E+00   -0.6002320124191652E+00    0.5000000000000000E+01
    0.1754341919796891E+01   -0.7398147869923652E+00    0.5000000000000000E+01
    0.1870296826774691E+01   -0.1788622905643739E+01    0.5000000000000000E+01
    0.9220614901912976E+00    0.3083720183248586E+00    0.5000000000000000E+01
    0.3101523624086016E+01    0.1777901774806180E+01    0.5000000000000000E+01
    0.2192512063922564E+01    0.1576861561598471E+01    0.5000000000000000E+01
    0.2024793420196460E+01    0.4773861992750707E+00    0.5000000000000000E+01
    0.2990627757741975E+01   -0.4878110785814084E+00    0.5000000000000000E+01
    0.0000000000000000E+00   -0.2496588956965093E+01    0.1250000000000000E+01
    0.0000000000000000E+00   -0.2496588956965093E+01    0.2500000000000000E+01
    0.0000000000000000E+00   -0.2496588956965093E+01    0.3750000000000000E+01
    0.0000000000000000E+00    0.1558308132739014E+01    0.4042003247744892E+01
    0.0000000000000000E+00   -0.1548001304379777E+01    0.9304122287900499E+00
    0.0000000000000000E+00    0.1462892710085612E+01    0.1037243024609388E+01
    0.0000000000000000E+00   -0.1445243809615570E+01    0.3946240828834967E+01
    0.0000000000000000E+00   -0.3455338993778935E+00    0.4092527262848217E+01
    0.0000000000000000E+00    0.6277660831404320E+00    0.4293103109154542E+01
    0.0000000000000000E+00    0.7429886854239611E+00    0.3241512314643519E+01
    0.0000000000000000E+00   -0.1588117879734118E+01    0.2844289952419609E+01
    0.0000000000000000E+00   -0.6002320124191652E+00    0.7159905765450471E+00
    0.0000000000000000E+00   -0.7398147869923652E+00    0.1754341919796891E+01
    0.0000000000000000E+00   -0.1788622905643739E+01    0.1870296826774691E+01
    0.0000000000000000E+00    0.3083720183248586E+00    0.9220614901912976E+00
    0.0000000000000000E+00    0.1777901774806180E+01    0.3101523624086016E+01
    0.0000000000000000E+00    0.1576861561598471E+01    0.2192512063922564E+01
[...]
POINT_DATA 213
SCALARS rho double 1
LOOKUP_TABLE default
   0.1219599693854977E+01
   0.9221795044668414E+00
   0.9104476677639720E+00
   0.8966767343151524E+00
   0.7819489743162231E+00
   0.7116570496520120E+00
   0.6990710321394431E+00
   0.7029548293887384E+00
   0.7687357801568634E+00
   0.8895232582756583E+00
   0.8987464189931196E+00
   0.9249601326016786E+00
   0.1300246115021180E+01
   0.1348040124183849E+01
   0.1456337498284324E+01
   0.1286719123149853E+01
   0.9619640897835861E+00
   0.9047654164329167E+00
   0.8972300821047828E+00
   0.9249192038911829E+00
   0.9126331755916225E+00
   0.9866007263141275E+00
   0.8974310463880569E+00
   0.8999718663758153E+00
   0.9067475876142012E+00
   0.9112477934134133E+00
   0.8943865876987628E+00
   0.9125850321978513E+00
   0.8902529660880240E+00
   0.9018654556860374E+00
   0.9063596021868099E+00
   0.8623953103513513E+00
   0.9078064938721829E+00
   0.9506821654524248E+00
   0.1008490981909780E+01
   0.1006976759208300E+01
   0.1000145909122500E+01
   0.1000492870746342E+01
   0.1001010371485274E+01
   0.1002467259275273E+01
   0.1001944767196716E+01
   0.1004886101630038E+01
   0.1016625229391995E+01
   0.1058313575602543E+01
   0.1005436824754878E+01
   0.1000007369903998E+01
   0.9457700185642473E+00
   0.1002042275161604E+01
   0.9982829540920474E+00
   0.1004492527738283E+01
   0.1005371632096391E+01
   0.9993111999392906E+00
   0.9978002667493142E+00
   0.9988040176449899E+00
   0.9987211978978047E+00
   0.9780928871686601E+00
   0.9796706084706562E+00
   0.9639505296011689E+00
   0.9601300999146034E+00
   0.9867991812433702E+00
   0.9922400538598620E+00
   0.1000342977430124E+01
   0.1000541450350575E+01
   0.1000671131850337E+01
   0.9998284133109648E+00
   0.1009782298801277E+01
   0.1007174234818224E+01
   0.9448363639611412E+00
   0.9034576339080800E+00
   0.1007039899220472E+01
   0.1004193125173200E+01
   0.8965165964772664E+00
   0.8926680395404640E+00
   0.8470449296514904E+00
   0.9708428954148586E+00
   0.1000202447626952E+01
   0.1006091577498839E+01
   0.1015639769204445E+01
   0.1012987277727437E+01
   0.1012861700607083E+01
   0.1005118613231513E+01
   0.9863622587665672E+00
   0.1006593491300034E+01
   0.9849764869355740E+00
   0.1008140584448817E+01
   0.1001902607801273E+01
   0.1000777963943995E+01
   0.1001300678428799E+01
   0.1001842923047905E+01
   0.1002348925243667E+01
   0.1000286869953780E+01
   0.1000192914396745E+01
   0.9997755935903568E+00
   0.1001746394302997E+01
   0.1001907946092829E+01
   0.9986523974033666E+00
   0.9995364908477886E+00
   0.9999232354407804E+00
   0.1000198768339813E+01
   0.1000442940897260E+01
   0.1001058841966060E+01
   0.1001457792395639E+01
   0.1001331327352704E+01
   0.1001525819144396E+01
   0.1000861178565728E+01
   0.1001344307056486E+01
   0.1001108536398830E+01
   0.1000543854246272E+01
   0.1060180588517779E+01
   0.1020434836648904E+01
   0.1005937364532401E+01
   0.1003463836468805E+01
   0.1142067329581314E+01
   0.1083370561287541E+01
   0.1004378516183823E+01
   0.1003909103832494E+01
   0.1003789603054588E+01
   0.1006675431259938E+01
   0.1012240627467813E+01
   0.1193114705987154E+01
   0.1028000779347256E+01
   0.1034785349134367E+01
   0.1169417114545541E+01
   0.1009874390682114E+01
   0.1023546149732408E+01
   0.1017121954149537E+01
   0.1007875017991919E+01
   0.1013904342245065E+01
   0.1000120420519212E+01
   0.9442367539259351E+00
   0.1003512212268821E+01
   0.9988676258272946E+00
   0.1006433373686141E+01
   0.1009136812473610E+01
   0.9979418412432913E+00
   0.9977846859908222E+00
   0.9961676231652214E+00
   0.9984778163375015E+00
   0.9810175435204523E+00
   0.9780877633656249E+00
   0.9479694109641967E+00
   0.9505424164670121E+00
   0.9877990070635466E+00
   0.9899199103318264E+00
   0.9925444421747736E+00
   0.9998150170466888E+00
   0.9986044297789699E+00
   0.9946496067075383E+00
   0.1006783309569973E+01
   0.1021195820506057E+01
   0.9979991521210477E+00
   0.1004785938808261E+01
   0.1001443256507045E+01
   0.1004870021053612E+01
   0.9952898883488641E+00
   0.9853957170024972E+00
   0.1000226006959475E+01
   0.9938930145273723E+00
   0.9819631320136131E+00
   0.9943515165493120E+00
   0.9968775171063319E+00
   0.9937161351151168E+00
   0.9987031100271049E+00
   0.1000033245690054E+01
   0.9996686285435772E+00
   0.9958480472836340E+00
   0.9933618084493459E+00
   0.1001379814945869E+01
   0.1018342566339594E+01
   0.1002761163611612E+01
   0.9806466813695389E+00
   0.1001874258067809E+01
   0.1008205816955567E+01
   0.9702346173608459E+00
   0.9431324582447167E+00
   0.9846786479382869E+00
   0.9843645633626867E+00
   0.9754696824476657E+00
   0.9908380437839177E+00
   0.9779133940977355E+00
   0.1033958393393415E+01
   0.1021656815385157E+01
   0.1000033005887409E+01
   0.9991734296381362E+00
   0.9919055412079816E+00
   0.9907248574522945E+00
   0.9574014636747229E+00
   0.9930506972316475E+00
   0.1006289135156919E+01
   0.1002044040250035E+01
   0.9896477932903232E+00
   0.9652799726662065E+00
   0.9203406602591739E+00
   0.9724368700280626E+00
   0.9781837059769003E+00
   0.9559727336222361E+00
   0.9617645750891205E+00
   0.9490309902166338E+00
   0.9366912391222614E+00
   0.9303104485951590E+00
   0.9992919113680165E+00
   0.9994619487032022E+00
   0.9988025048238451E+00
   0.1002017076039073E+01
   0.9391477664355022E+00
   0.9239055148199291E+00
   0.9359217156690295E+00
   0.9984137903914027E+00
   0.9983444547869624E+00
   0.1000450521580301E+01
   0.9793848522939181E+00
   0.9713546122573378E+00
   0.9447096476923061E+00
SCALARS u double 1
LOOKUP_TABLE default
   0.0000000000000000E+00
   0.0000000000000000E+00
   0.0000000000000000E+00
   0.0000000000000000E+00
   0.0000000000000000E+00
   0.0000000000000000E+00
   0.0000000000000000E+00
   0.0000000000000000E+00
   0.0000000000000000E+00
   0.0000000000000000E+00
   0.0000000000000000E+00
   0.0000000000000000E+00
   0.0000000000000000E+00
   0.0000000000000000E+00
   0.0000000000000000E+00
   0.0000000000000000E+00
   0.0000000000000000E+00
   0.0000000000000000E+00
   0.0000000000000000E+00
   0.0000000000000000E+00
   0.0000000000000000E+00
   0.0000000000000000E+00
   0.0000000000000000E+00
   0.0000000000000000E+00
   0.0000000000000000E+00
   0.0000000000000000E+00
   0.0000000000000000E+00
   0.0000000000000000E+00
   0.0000000000000000E+00
   0.0000000000000000E+00
   0.0000000000000000E+00
   0.0000000000000000E+00
   0.0000000000000000E+00
   0.5044656956117124E+00
   0.5290124960820567E+00
   0.5144832599074307E+00
   0.4932265026985386E+00
   0.4881034984628214E+00
   0.4912132709050007E+00
   0.4932012129124927E+00
   0.4982359595051377E+00
   0.4935755381372040E+00
   0.4788817863218014E+00
   0.4518340351300104E+00
   0.4750761556069425E+00
   0.5097783992136359E+00
   0.4511935992559081E+00
   0.4980813313554501E+00
   0.5232695099268810E+00
   0.4995198755130239E+00
   0.5239976380011693E+00
   0.5062462081582702E+00
   0.5621720106300010E+00
   0.5246973098038175E+00
   0.5014415328253635E+00
   0.5724415420710738E+00
   0.5707004935810186E+00
   0.3697808812025499E+00
   0.4030359512088912E+00
   0.5559039286048260E+00
   0.5550071746273946E+00
   0.4941866665500543E+00
   0.4946225575184688E+00
   0.4922550871306940E+00
   0.4916952754351093E+00
   0.5126203567467303E+00
   0.5320037691448951E+00
   0.5051851583987946E+00
   0.4700273972993004E+00
   0.5096958251936087E+00
   0.5089633518950890E+00
   0.4955096383257621E+00
   0.5091188771298292E+00
   0.4859971055487453E+00
   0.5290197065500523E+00
   0.5276939167267120E+00
   0.5095384248937788E+00
   0.5265023522557036E+00
   0.5255836668095506E+00
   0.5249264231589956E+00
   0.5039105668147540E+00
   0.5284460084533390E+00
   0.5353830991931235E+00
   0.5371546671040394E+00
   0.5324039226702701E+00
   0.4987533139262032E+00
   0.4995693360222339E+00
   0.4985678139429700E+00
   0.4978564021092929E+00
   0.4945363867295370E+00
   0.4946354299124092E+00
   0.4894932217790909E+00
   0.4881854172771903E+00
   0.4965709393921494E+00
   0.4946579482301104E+00
   0.4860622938528966E+00
   0.4896816126368133E+00
   0.4900401256456161E+00
   0.4911767771729187E+00
   0.4926166685032233E+00
   0.4981835093650365E+00
   0.4946289702538207E+00
   0.4948395049549216E+00
   0.4976378096938890E+00
   0.4907933176662212E+00
   0.4936012149282514E+00
   0.4927628955730486E+00
   0.4920514997284264E+00
   0.4513309839174457E+00
   0.4773809760791133E+00
   0.4929577632172868E+00
   0.4922016439455004E+00
   0.4645164991085189E+00
   0.4729120197548263E+00
   0.4915211081781321E+00
   0.4906741981690715E+00
   0.4940153708124360E+00
   0.4854929941785306E+00
   0.4731445636190716E+00
   0.4017685901310859E+00
   0.4925810972595766E+00
   0.4586089583387197E+00
   0.4595049581733582E+00
   0.4895104399367594E+00
   0.4701583269899686E+00
   0.4742234868704926E+00
   0.4816343275612408E+00
   0.4809631343513515E+00
   0.5081955761885658E+00
   0.4436619885633147E+00
   0.4960916975620782E+00
   0.5314783099968629E+00
   0.4949806828953878E+00
   0.5219301695656279E+00
   0.5081293797098393E+00
   0.5664001591149517E+00
   0.5269142137757572E+00
   0.5035387185075409E+00
   0.5834535507273224E+00
   0.5720240490445984E+00
   0.3408860608301337E+00
   0.3851959619310510E+00
   0.5717594985152199E+00
   0.5645095605629459E+00
   0.5689243543016649E+00
   0.5291696176667182E+00
   0.5449155523654725E+00
   0.5701879832255315E+00
   0.5404097047920668E+00
   0.5487778968311950E+00
   0.5790107801598500E+00
   0.4955235631437218E+00
   0.5064965423280330E+00
   0.4994484892137686E+00
   0.5533092428087030E+00
   0.4597901016563892E+00
   0.4983751335384533E+00
   0.5489762784542884E+00
   0.5894376731642326E+00
   0.5821700708559051E+00
   0.5457059797563416E+00
   0.5785146449994388E+00
   0.5122043813052646E+00
   0.5055088144097005E+00
   0.5048980676560481E+00
   0.5645297463506025E+00
   0.5552265327736434E+00
   0.4977583726850723E+00
   0.5488208831699596E+00
   0.5486892015736418E+00
   0.5643387554718918E+00
   0.4955121584646143E+00
   0.4958798399156715E+00
   0.3908415399475483E+00
   0.3725910520464283E+00
   0.5584900746360425E+00
   0.5739392765416517E+00
   0.4177439375025115E+00
   0.5813083360995418E+00
   0.4185999166884140E+00
   0.5391903470498866E+00
   0.4993238885516073E+00
   0.5113858579279623E+00
   0.5070194977291851E+00
   0.5732639807460036E+00
   0.5857709090836322E+00
   0.5448205790238192E+00
   0.5657062854526972E+00
   0.5320308398655664E+00
   0.5310303238255857E+00
   0.5561915550968043E+00
   0.5552162346478230E+00
   0.4401002070712408E+00
   0.5282988155974774E+00
   0.5807280001127695E+00
   0.3397139180518342E+00
   0.4812261657475236E+00
   0.5510167969801920E+00
   0.4924432257429909E+00
   0.3108744290832240E+00
   0.5051822026500246E+00
   0.5043571342773011E+00
   0.5129608665970491E+00
   0.5385848725420448E+00
   0.3519685289779115E+00
   0.3560463502183056E+00
   0.3308149527587001E+00
   0.5084554544904003E+00
   0.5125571332592306E+00
   0.5314307714082778E+00
   0.5857978727454133E+00
   0.4640825382045627E+00
   0.3627235660958102E+00
SCALARS v double 1
LOOKUP_TABLE default
   0.0000000000000000E+00
   0.0000000000000000E+00
   0.0000000000000000E+00
   0.0000000000000000E+00
   0.0000000000000000E+00
   0.0000000000000000E+00
   0.0000000000000000E+00
   0.0000000000000000E+00
   0.0000000000000000E+00
   0.0000000000000000E+00
   0.0000000000000000E+00
   0.0000000000000000E+00
   0.0000000000000000E+00
   0.0000000000000000E+00
   0.0000000000000000E+00
   0.0000000000000000E+00
   0.0000000000000000E+00
   0.0000000000000000E+00
   0.0000000000000000E+00
   0.0000000000000000E+00
   0.0000000000000000E+00
   0.0000000000000000E+00
   0.0000000000000000E+00
   0.0000000000000000E+00
   0.0000000000000000E+00
   0.0000000000000000E+00
   0.0000000000000000E+00
   0.0000000000000000E+00
   0.0000000000000000E+00
   0.0000000000000000E+00
   0.0000000000000000E+00
   0.0000000000000000E+00
   0.0000000000000000E+00
   0.0000000000000000E+00
   0.0000000000000000E+00
   0.0000000000000000E+00
   0.0000000000000000E+00
   0.0000000000000000E+00
   0.0000000000000000E+00
   0.0000000000000000E+00
   0.0000000000000000E+00
   0.0000000000000000E+00
   0.0000000000000000E+00
   0.0000000000000000E+00
   0.0000000000000000E+00
   0.0000000000000000E+00
   0.0000000000000000E+00
   0.0000000000000000E+00
   0.0000000000000000E+00
   0.0000000000000000E+00
   0.0000000000000000E+00
   0.0000000000000000E+00
   0.0000000000000000E+00
   0.0000000000000000E+00
   0.0000000000000000E+00
   0.0000000000000000E+00
   0.0000000000000000E+00
   0.0000000000000000E+00
   0.0000000000000000E+00
   0.0000000000000000E+00
   0.0000000000000000E+00
   0.6334674973452859E-03
  -0.1412106969329558E-02
  -0.1391688929262444E-02
   0.0000000000000000E+00
   0.0000000000000000E+00
   0.0000000000000000E+00
   0.0000000000000000E+00
  -0.1867976861893380E-01
   0.2777506252413871E-03
   0.2206617367554722E-02
   0.1490282916548298E-01
  -0.5368546527163938E-02
  -0.6642011965266380E-02
  -0.1142208516789828E-01
   0.4788841157869531E-02
   0.5371904129109425E-03
   0.3195631881181886E-02
   0.1530300203228574E-02
   0.3473809472809810E-02
   0.1704910038682825E-02
  -0.6356077825568031E-02
   0.7681756502713231E-03
   0.4869162698018761E-02
   0.6121899822345694E-03
   0.6958995213683101E-04
  -0.1767233628122772E-03
   0.6082841533843515E-03
   0.0000000000000000E+00
   0.0000000000000000E+00
   0.0000000000000000E+00
   0.0000000000000000E+00
   0.1212913194585676E-03
   0.1423633264973558E-02
  -0.1108799924745653E-02
  -0.9188977532478120E-03
  -0.2101550820517200E-02
  -0.1220501685291519E-02
  -0.8986486626988950E-03
  -0.6448440356582349E-03
  -0.2472763634110242E-04
  -0.5342005008902466E-03
   0.7240099630321783E-03
  -0.1570799154261868E-02
   0.1025634396139588E-03
  -0.1214722029185671E-03
  -0.8743280958962820E-03
  -0.8885295526323188E-03
   0.0000000000000000E+00
   0.0000000000000000E+00
   0.0000000000000000E+00
  -0.1091309576141530E-02
  -0.8502837157270880E-02
   0.1568985097637782E-01
   0.2148692824968678E-03
  -0.1053391020215277E-02
  -0.1673612827891338E-02
  -0.5281080812113991E-02
  -0.1235967283424509E-02
  -0.3701290547752145E-02
  -0.3032660865750475E-02
   0.2127155955357420E-02
   0.2880601254085817E-01
  -0.1724509918530128E-03
  -0.4260467105525006E-02
   0.2498517861242800E-02
   0.9551051472323064E-03
   0.0000000000000000E+00
   0.0000000000000000E+00
   0.0000000000000000E+00
   0.0000000000000000E+00
   0.0000000000000000E+00
   0.0000000000000000E+00
   0.0000000000000000E+00
   0.0000000000000000E+00
   0.0000000000000000E+00
   0.0000000000000000E+00
   0.0000000000000000E+00
   0.0000000000000000E+00
   0.0000000000000000E+00
   0.0000000000000000E+00
   0.0000000000000000E+00
   0.0000000000000000E+00
   0.0000000000000000E+00
   0.4670192210505573E-02
   0.2763266299357199E-02
   0.6893732988557179E-02
   0.5630426830850400E-02
   0.8687044732698972E-02
   0.1244112050679997E-01
   0.4866794580719589E-03
   0.4364175904373067E-02
   0.2406600775693395E-02
   0.2332208353477743E-02
   0.3176366718827340E-02
  -0.1059584366660068E-01
  -0.4893856534334853E-03
   0.6038344784716715E-02
   0.2600381044688634E-02
   0.2269790949195544E-02
   0.3837916737458071E-02
  -0.2020266283254627E-02
   0.9169931610618638E-03
   0.2371040834802137E-02
   0.1154918860741993E-02
   0.2686122895452690E-02
   0.1739840281952524E-02
   0.1798798456516345E-02
   0.8007101207064634E-02
  -0.3375984922362668E-02
   0.5470386048347487E-02
   0.6506515960766792E-04
  -0.3121380155385663E-04
  -0.1328420542793438E-01
  -0.3290568939770223E-02
  -0.3547651643270984E-02
   0.3675142546490712E-02
  -0.3988168074999600E-02
   0.8943813493633709E-03
  -0.2587594440584898E-01
  -0.3070971302348039E-02
   0.4167698988823890E-02
   0.7177031466381093E-03
   0.1825201534202877E-02
   0.4437739932187779E-02
   0.2300329202619938E-02
   0.3389535488950914E-02
   0.5068274205684587E-02
   0.1856646170588496E-02
   0.5820103100099252E-03
  -0.3347186768098211E-03
  -0.4621577582753056E-02
  -0.5498367691990138E-02
   0.4519095617036611E-03
   0.9429244148835501E-03
  -0.7332546587579281E-03
  -0.3869870786875085E-02
  -0.1215974422319368E-02
  -0.3656426962471092E-02
  -0.6898518006336545E-02
  -0.1708652056353123E-02
   0.5357569329557788E-03
  -0.3546608469887249E-03
   0.1111761903879841E-02
  -0.1832556989650710E-02
   0.6956136090101768E-02
  -0.9774596581306087E-02
  -0.1545517616474573E-04
  -0.4080173327892367E-03
   0.2409195121788084E-02
   0.1123344229007434E-02
   0.1298573619115721E-02
  -0.3828977924621332E-02
SCALARS w double 1
LOOKUP_TABLE default
   0.0000000000000000E+00
   0.0000000000000000E+00
   0.0000000000000000E+00
   0.0000000000000000E+00
   0.0000000000000000E+00
   0.0000000000000000E+00
   0.0000000000000000E+00
   0.0000000000000000E+00
   0.0000000000000000E+00
   0.0000000000000000E+00
   0.0000000000000000E+00
   0.0000000000000000E+00
   0.0000000000000000E+00
   0.0000000000000000E+00
   0.0000000000000000E+00
   0.0000000000000000E+00
   0.0000000000000000E+00
   0.0000000000000000E+00
   0.0000000000000000E+00
   0.0000000000000000E+00
   0.0000000000000000E+00
   0.0000000000000000E+00
   0.0000000000000000E+00
   0.0000000000000000E+00
   0.0000000000000000E+00
   0.0000000000000000E+00
   0.0000000000000000E+00
   0.0000000000000000E+00
   0.0000000000000000E+00
   0.0000000000000000E+00
   0.0000000000000000E+00
   0.0000000000000000E+00
   0.0000000000000000E+00
  -0.1144740522486955E+00
  -0.5028452617353585E-01
  -0.2218629254445117E-02
   0.5066016641035460E-02
  -0.6957784741008257E-03
  -0.6076372538832561E-03
   0.5806024066872688E-03
   0.1144809225159852E-02
   0.2440770821370701E-03
   0.3422553565041930E-02
   0.3884461807033451E-01
   0.5360742672121669E-01
  -0.1493563046895993E-02
  -0.2790726893857283E-01
   0.2079831347026064E-02
   0.1059656643078607E-01
   0.8042755096284356E-02
   0.4393891999598069E-01
  -0.4043355408343704E-03
  -0.1058029627790638E-01
  -0.3671493692396896E-02
  -0.2102257403649647E-02
   0.4820048299091696E-03
  -0.4609512670123847E-01
   0.1623627370019184E-01
   0.1240676252451008E-01
   0.2994633191228496E-01
   0.5073359593608081E-02
   0.4321080979789227E-02
   0.4383199517756615E-02
   0.4018274487038632E-02
   0.5466031849395415E-02
  -0.1704964974878845E-03
  -0.4834023788917514E-01
  -0.1122168338360482E+00
  -0.1279823231907914E+00
   0.2784417116302025E-02
   0.1930928666030600E-02
  -0.1150880933258010E+00
  -0.1133079951681921E+00
  -0.1132666848180834E+00
  -0.1072902277661961E+00
  -0.7748707493653818E-01
   0.3027734396567396E-02
  -0.2451874785405574E-01
  -0.2041361850373675E-01
  -0.9927797105446060E-02
   0.5241310834646028E-02
  -0.9129645938169303E-01
  -0.3406072125519454E-01
  -0.9180583008479941E-01
  -0.6776878300726082E-01
   0.1807791651997069E-02
   0.1559386514928363E-02
   0.1426787669929350E-02
   0.2118645352874907E-02
   0.1358294945275152E-02
  -0.1241620407142726E-02
  -0.1475158804610805E-02
   0.1114708222140206E-02
   0.2218159239351471E-02
   0.1202569173085645E-02
  -0.7056013674998617E-04
   0.1919568058922347E-03
   0.8213713179797533E-03
  -0.1576102198249475E-02
  -0.1943015629653059E-02
   0.1965357955525502E-02
  -0.4390682369198213E-04
  -0.4390422030142184E-03
   0.2228748095549453E-02
  -0.1071757422025041E-02
  -0.2024413891237874E-03
  -0.4923282481405769E-03
  -0.1804014628271168E-02
   0.6879527410600848E-01
   0.2330700514310649E-02
  -0.1105205706024609E-02
  -0.7920417766608296E-03
   0.1156183055119626E+00
   0.1039169943043555E+00
  -0.1771013658225963E-02
  -0.4421112138634300E-02
  -0.7493440350542302E-03
  -0.7086038753634854E-02
  -0.2645568794031028E-02
   0.1269923789959269E+00
   0.6360348388496295E-01
   0.2237137810289461E-01
   0.1353418316739541E+00