# vtk DataFile Version 2.0
FUN3D:global_image_vtk
ASCII
DATASET UNSTRUCTURED_GRID
POINTS 213 double
   -0.5474461647464349E-02    0.2504942108992469E+01    0.8091300847736046E-04
    0.1245419551110226E+01    0.2504942108992469E+01    0.1044183125559369E-03
    0.2497696693168747E+01    0.2504942108992469E+01    0.1111087182616566E-03
    0.3750591605607594E+01    0.2504942108992469E+01    0.1362374438995305E-03
    0.5003221543509131E+01    0.2504942108992469E+01    0.9779094677684067E-04
    0.5004677162048951E+01    0.1281291972635014E+01    0.1643464877413127E-03
    0.5004773357424145E+01    0.2775097003571099E-01    0.1913980465250051E-03
    0.5003581603763585E+01   -0.1225853271170730E+01    0.1612950580424029E-03
    0.5001953073820516E+01   -0.2496588956965093E+01    0.1087508196493387E-03
    0.3750348610502709E+01   -0.2496588956965093E+01    0.1462302879465232E-03
    0.2498612054680936E+01   -0.2496588956965093E+01    0.1018102951491469E-03
    0.1247175933891794E+01   -0.2496588956965093E+01    0.1118028953183942E-03
   -0.3383506218729646E-02   -0.2496588956965093E+01    0.8200693890121470E-04
   -0.4257637075825453E-02   -0.1225734579341631E+01    0.3505769555085177E-04
   -0.5251480946163374E-02    0.2619518069262328E-01    0.1043464847781469E-03
   -0.5675494342202418E-02    0.1278222181760415E+01    0.8332061284090362E-04
    0.9003217230366406E+00    0.1608979581192332E+01    0.8746898418251791E-04
    0.3983172957383343E+01   -0.1561211172856604E+01    0.1757872076694856E-03
    0.4035602573383526E+01    0.1486761121250088E+01    0.1720812592351571E-03
    0.1036614353405146E+01   -0.1455626121426647E+01    0.1049762811091591E-03
    0.1094354111420979E+01   -0.2964619229218530E+00    0.1262439117401114E-03
    0.7298402407342440E+00    0.6874686840224647E+00    0.1050177392536679E-03
    0.1617019342295109E+01    0.8553214718266935E+00    0.1537467761766009E-03
    0.2143199649253681E+01   -0.1627128018694232E+01    0.1608934305313155E-03
    0.4088841123111252E+01   -0.4351037435492378E+00    0.2728087410664843E-03
    0.2977916549690846E+01   -0.8334983349163732E+00    0.2255889100218747E-03
    0.3044094005785530E+01   -0.1814360944032876E+01    0.1622372213935109E-03
    0.3427866648944720E+01    0.3813911163548139E+00    0.2941131036180894E-03
    0.4313226241404377E+01    0.5489137077003723E+00    0.2321444441834167E-03
    0.1823033599252240E+01    0.1771266030608995E+01    0.1846034274876855E-03
    0.2806312023364750E+01    0.1358630549737759E+01    0.1953548522251594E-03
    0.1891861383332889E+01   -0.8481304479649456E+00    0.1678934606116956E-03
    0.2268769858566397E+01    0.7723760925646569E-01    0.2082700328655171E-03
    0.5000000000000000E+01    0.2504942108992469E+01    0.1250000000000000E+01
    0.5000000000000000E+01    0.2504942108992469E+01    0.2500000000000000E+01
    0.5000000000000000E+01    0.2504942108992469E+01    0.3750000000000000E+01
    0.5000000000000000E+01    0.2504942108992469E+01    0.5000000000000000E+01
    0.3750000000000000E+01    0.2504942108992469E+01    0.5000000000000000E+01
    0.2500000000000000E+01    0.2504942108992469E+01    0.5000000000000000E+01
    0.1250000000000000E+01    0.2504942108992469E+01    0.5000000000000000E+01
    0.0000000000000000E+00    0.2504942108992469E+01    0.5000000000000000E+01
    0.0000000000000000E+00    0.2504942108992469E+01    0.3750000000000000E+01
    0.0000000000000000E+00    0.2504942108992469E+01    0.2500000000000000E+01
    0.0000000000000000E+00    0.2504942108992469E+01    0.1250000000000000E+01
    0.9588958765028877E+00    0.2504942108992469E+01    0.9696532220544232E+00
    0.3981953144106603E+01    0.2504942108992469E+01    0.4070564007300077E+01
    0.4036122468443808E+01    0.2504942108992469E+01    0.1017568343123276E+01
    0.9637572580372982E+00    0.2504942108992469E+01    0.3973598328748807E+01
    0.1546540174922873E+01    0.2504942108992469E+01    0.2931570549403785E+01
    0.6973799405135029E+00    0.2504942108992469E+01    0.3070320145042754E+01
    0.8903742556777821E+00    0.2504942108992469E+01    0.2056562615153816E+01
    0.2183042012330854E+01    0.2504942108992469E+01    0.3960694677713724E+01
    0.3855845026655452E+01    0.2504942108992469E+01    0.2933250954431863E+01
    0.3152611457925804E+01    0.2504942108992469E+01    0.3637668692067722E+01
    0.3103307426895492E+01    0.2504942108992469E+01    0.4332607967855965E+01
    0.3266711349670356E+01    0.2504942108992469E+01    0.1889657314915316E+01
    0.4232537773062777E+01    0.2504942108992469E+01    0.1918627389967961E+01
    0.1905522719845844E+01    0.2504942108992469E+01    0.7226300022552048E+00
    0.2879768340401895E+01    0.2504942108992469E+01    0.9080955143976291E+00
    0.2012711605685120E+01    0.2504942108992469E+01    0.1767083111617869E+01
    0.2669681613777159E+01    0.2504942108992469E+01    0.2853394842509519E+01
    0.5000000000000000E+01    0.1250000000000000E+01    0.5000000000000000E+01
    0.5000000000000000E+01    0.0000000000000000E+00    0.5000000000000000E+01
    0.5000000000000000E+01   -0.1250000000000000E+01    0.5000000000000000E+01
    0.5000000000000000E+01   -0.2496588956965093E+01    0.5000000000000000E+01
    0.5000000000000000E+01   -0.2496588956965093E+01    0.3750000000000000E+01
    0.5000000000000000E+01   -0.2496588956965093E+01    0.2500000000000000E+01
    0.5000000000000000E+01   -0.2496588956965093E+01    0.1250000000000000E+01
    0.5000000000000000E+01    0.1578994732800803E+01    0.9058375365086910E+00
    0.5000000000000000E+01   -0.1583989954232354E+01    0.3982050490726493E+01
    0.5000000000000000E+01    0.1453322699199022E+01    0.4033849428301197E+01
    0.5000000000000000E+01   -0.1479596339503735E+01    0.1040505887381675E+01
    0.5000000000000000E+01   -0.3227322616384110E+00    0.1099454400140349E+01
    0.5000000000000000E+01    0.6593508822075582E+00    0.7354504170366591E+00
    0.5000000000000000E+01    0.8256214013940779E+00    0.1622302608453282E+01
    0.5000000000000000E+01   -0.1650070333782557E+01    0.2145871574390382E+01
    0.5000000000000000E+01   -0.4612828702537229E+00    0.4086422318222992E+01
    0.5000000000000000E+01   -0.8579242121530853E+00    0.2979540174134984E+01
    0.5000000000000000E+01   -0.1836846154397680E+01    0.3045064261640043E+01
    0.5000000000000000E+01    0.3508002863614053E+00    0.3428197553792836E+01
    0.5000000000000000E+01    0.5185680230613409E+00    0.4309693860063405E+01
    0.5000000000000000E+01    0.1738996113203182E+01    0.1827272193562204E+01
    0.5000000000000000E+01    0.1325493893339706E+01    0.2808563282768077E+01
    0.5000000000000000E+01   -0.8731419609589618E+00    0.1895995683864404E+01
    0.5000000000000000E+01    0.4906150219227333E-01    0.2273179336307740E+01
    0.0000000000000000E+00    0.1250000000000000E+01    0.5000000000000000E+01
    0.0000000000000000E+00    0.0000000000000000E+00    0.5000000000000000E+01
    0.0000000000000000E+00   -0.1250000000000000E+01    0.5000000000000000E+01
    0.0000000000000000E+00   -0.2496588956965093E+01    0.5000000000000000E+01
    0.1250000000000000E+01   -0.2496588956965093E+01    0.5000000000000000E+01
    0.2500000000000000E+01   -0.2496588956965093E+01    0.5000000000000000E+01
    0.3750000000000000E+01   -0.2496588956965093E+01    0.5000000000000000E+01
    0.4042003247744892E+01    0.1558308132739014E+01    0.5000000000000000E+01
    0.9304122287900499E+00   -0.1548001304379777E+01    0.5000000000000000E+01
    0.1037243024609388E+01    0.1462892710085612E+01    0.5000000000000000E+01
    0.3946240828834967E+01   -0.1445243809615570E+01    0.5000000000000000E+01
    0.4092527262848217E+01   -0.3455338993778935E+00    0.5000000000000000E+01
    0.4293103109154542E+01    0.6277660831404320E+00    0.5000000000000000E+01
    0.3241512314643519E+01    0.7429886854239611E+00    0.5000000000000000E+01
    0.2844289952419609E+01   -0.1588117879734118E+01    0.5000000000000000E+01
    0.7159905765450471E+00   -0.6002320124191652E+00    0.5000000000000000E+01
    0.1754341919796891E+01   -0.7398147869923652E+00    0.5000000000000000E+01
    0.1870296826774691E+01   -0.1788622905643739E+01    0.5000000000000000E+01
    0.9220614901912976E+00    0.3083720183248586E+00    0.5000000000000000E+01
    0.3101523624086016E+01    0.1777901774806180E+01    0.5000000000000000E+01
    0.2192512063922564E+01    0.1576861561598471E+01    0.5000000000000000E+01
    0.2024793420196460E+01    0.4773861992750707E+00    0.5000000000000000E+01
    0.2990627757741975E+01   -0.4878110785814084E+00    0.5000000000000000E+01
    0.0000000000000000E+00   -0.2496588956965093E+01    0.1250000000000000E+01
    0.0000000000000000E+00   -0.2496588956965093E+01    0.2500000000000000E+01
    0.0000000000000000E+00   -0.2496588956965093E+01    0.3750000000000000E+01
    0.0000000000000000E+00    0.1558308132739014E+01    0.4042003247744892E+01
    0.0000000000000000E+00   -0.1548001304379777E+01    0.9304122287900499E+00
    0.0000000000000000E+00    0.1462892710085612E+01    0.1037243024609388E+01
    0.0000000000000000E+00   -0.1445243809615570E+01    0.3946240828834967E+01
    0.0000000000000000E+00   -0.3455338993778935E+00    0.4092527262848217E+01
    0.0000000000000000E+00    0.6277660831404320E+00    0.4293103109154542E+01
    0.0000000000000000E+00    0.7429886854239611E+00    0.3241512314643519E+01
    0.0000000000000000E+00   -0.1588117879734118E+01    0.2844289952419609E+01
    0.0000000000000000E+00   -0.6002320124191652E+00    0.7159905765450471E+00
    0.0000000000000000E+00   -0.7398147869923652E+00    0.1754341919796891E+01
    0.0000000000000000E+00   -0.1788622905643739E+01    0.1870296826774691E+01
    0.0000000000000000E+00    0.3083720183248586E+00    0.9220614901912976E+00
    0.0000000000000000E+00    0.1777901774806180E+01    0.3101523624086016E+01
    0.0000000000000000E+00    0.1576861561598471E+01    0.2192512063922564E+01
[...]
POINT_DATA 213
SCALARS rho double 1
LOOKUP_TABLE default
   0.1219599693811598E+01
   0.9221795044135869E+00
   0.9104476678088358E+00
   0.8966767354040096E+00
   0.7819489766030787E+00
   0.7116570498161164E+00
   0.6990710320136266E+00
   0.7029548291560647E+00
   0.7687357803821789E+00
   0.8895232583647921E+00
   0.8987464189561029E+00
   0.9249601327264766E+00
   0.1300246115282590E+01
   0.1348040124150513E+01
   0.1456337498366815E+01
   0.1286719123070710E+01
   0.9619640897349622E+00
   0.9047654163837483E+00
   0.8972300831191901E+00
   0.9249192041110089E+00
   0.9126331755329049E+00
   0.9866007262153094E+00
   0.8974310464100088E+00
   0.8999718664019754E+00
   0.9067475874369322E+00
   0.9112477934332387E+00
   0.8943865876827622E+00
   0.9125850323910484E+00
   0.8902529658503677E+00
   0.9018654557150427E+00
   0.9063596025258542E+00
   0.8623953103644834E+00
   0.9078064938798283E+00
   0.9506821744450377E+00
   0.1008490980990851E+01
   0.1006976758970632E+01
   0.1000145910519445E+01
   0.1000492871519792E+01
   0.1001010371140340E+01
   0.1002467259324023E+01
   0.1001944767071188E+01
   0.1004886101595660E+01
   0.1016625229325173E+01
   0.1058313575531851E+01
   0.1005436824788161E+01
   0.1000007369868384E+01
   0.9457700314114793E+00
   0.1002042275150883E+01
   0.9982829541107544E+00
   0.1004492527696956E+01
   0.1005371632125431E+01
   0.9993111999635268E+00
   0.9978002664850251E+00
   0.9988040177805279E+00
   0.9987211973930200E+00
   0.9780928864658425E+00
   0.9796706096293374E+00
   0.9639505291494656E+00
   0.9601301027119926E+00
   0.9867991808703954E+00
   0.9922400539485674E+00
   0.1000342977003191E+01
   0.1000541447688561E+01
   0.1000671129365655E+01
   0.9998284113130607E+00
   0.1009782299653295E+01
   0.1007174234479844E+01
   0.9448363648698467E+00
   0.9034576367287073E+00
   0.1007039899347705E+01
   0.1004193125560280E+01
   0.8965165964155826E+00
   0.8926680394879387E+00
   0.8470449284285075E+00
   0.9708428945052955E+00
   0.1000202447187614E+01
   0.1006091578025906E+01
   0.1015639769239014E+01
   0.1012987277632929E+01
   0.1012861700973259E+01
   0.1005118613601022E+01
   0.9863622573989118E+00
   0.1006593490899881E+01
   0.9849764866038917E+00
   0.1008140584461470E+01
   0.1001902607829487E+01
   0.1000777963943639E+01
   0.1001300678308624E+01
   0.1001842923205088E+01
   0.1002348925241950E+01
   0.1000286870315266E+01
   0.1000192913267702E+01
   0.9997755935776248E+00
   0.1001746394390337E+01
   0.1001907945989284E+01
   0.9986523959415597E+00
   0.9995364886383885E+00
   0.9999232323051275E+00
   0.1000198767478054E+01
   0.1000442940832059E+01
   0.1001058842027504E+01
   0.1001457792239945E+01
   0.1001331327534835E+01
   0.1001525819241884E+01
   0.1000861178814986E+01
   0.1001344306859978E+01
   0.1001108536467945E+01
   0.1000543854026874E+01
   0.1060180589352834E+01
   0.1020434836460779E+01
   0.1005937364522073E+01
   0.1003463836408736E+01
   0.1142067328975556E+01
   0.1083370560996782E+01
   0.1004378516137461E+01
   0.1003909103770728E+01
   0.1003789603036838E+01
   0.1006675431266111E+01
   0.1012240627308158E+01
   0.1193114706057075E+01
   0.1028000779545836E+01
   0.1034785349000481E+01
   0.1169417114784918E+01
   0.1009874390606656E+01
   0.1023546149732648E+01
   0.1017121954156807E+01
   0.1007875017906238E+01
   0.1013904342251295E+01
   0.1000120421235815E+01
   0.9442367550946957E+00
   0.1003512212217094E+01
   0.9988676258646205E+00
   0.1006433373549268E+01
   0.1009136812538773E+01
   0.9979418412250900E+00
   0.9977846858214277E+00
   0.9961676229940706E+00
   0.9984778161976001E+00
   0.9810175436497199E+00
   0.9780877636193729E+00
   0.9479694113527829E+00
   0.9505424167253576E+00
   0.9877990071676466E+00
   0.9899199104665632E+00
   0.9925444421400000E+00
   0.9998150170071670E+00
   0.9986044297206585E+00
   0.9946496067274769E+00
   0.1006783309500410E+01
   0.1021195820540898E+01
   0.9979991521908808E+00
   0.1004785938762174E+01
   0.1001443256471272E+01
   0.1004870021023538E+01
   0.9952898883846404E+00
   0.9853957170166483E+00
   0.1000226007024051E+01
   0.9938930145539981E+00
   0.9819631323645133E+00
   0.9943515168694683E+00
   0.9968775171190343E+00
   0.9937161348211696E+00
   0.9987031100235728E+00
   0.1000033245710817E+01
   0.9996686282621394E+00
   0.9958480472482388E+00
   0.9933618084194051E+00
   0.1001379814969928E+01
   0.1018342566350875E+01
   0.1002761163642555E+01
   0.9806466813572704E+00
   0.1001874258037691E+01
   0.1008205816858960E+01
   0.9702346176086442E+00
   0.9431324582825631E+00
   0.9846786479291113E+00
   0.9843645635179658E+00
   0.9754696821188704E+00
   0.9908380438664836E+00
   0.9779133940911551E+00
   0.1033958393291997E+01
   0.1021656815284425E+01
   0.1000033006271178E+01
   0.9991734295222432E+00
   0.9919055410250938E+00
   0.9907248572603791E+00
   0.9574014634760672E+00
   0.9930506968692332E+00
   0.1006289135130664E+01
   0.1002044040463919E+01
   0.9896477931726962E+00
   0.9652799715748857E+00
   0.9203406609224727E+00
   0.9724368699076291E+00
   0.9781837057503125E+00
   0.9559727333784319E+00
   0.9617645750067069E+00
   0.9490309905185863E+00
   0.9366912389775948E+00
   0.9303104483821742E+00
   0.9992919112149160E+00
   0.9994619486458762E+00
   0.9988025050517219E+00
   0.1002017076138350E+01
   0.9391477661796741E+00
   0.9239055146776260E+00
   0.9359217157925213E+00
   0.9984137906796692E+00
   0.9983444548846406E+00
   0.1000450521510093E+01
   0.9793848522884185E+00
   0.9713546121174330E+00
   0.9447096479451026E+00
SCALARS u double 1
LOOKUP_TABLE default
   0.0000000000000000E+00
   0.0000000000000000E+00
   0.0000000000000000E+00
   0.0000000000000000E+00
   0.0000000000000000E+00
   0.0000000000000000E+00
   0.0000000000000000E+00
   0.0000000000000000E+00
   0.0000000000000000E+00
   0.0000000000000000E+00
   0.0000000000000000E+00
   0.0000000000000000E+00
   0.0000000000000000E+00
   0.0000000000000000E+00
   0.0000000000000000E+00
   0.0000000000000000E+00
   0.0000000000000000E+00
   0.0000000000000000E+00
   0.0000000000000000E+00
   0.0000000000000000E+00
   0.0000000000000000E+00
   0.0000000000000000E+00
   0.0000000000000000E+00
   0.0000000000000000E+00
   0.0000000000000000E+00
   0.0000000000000000E+00
   0.0000000000000000E+00
   0.0000000000000000E+00
   0.0000000000000000E+00
   0.0000000000000000E+00
   0.0000000000000000E+00
   0.0000000000000000E+00
   0.0000000000000000E+00
   0.5044656860511152E+00
   0.5290124970352243E+00
   0.5144832590785742E+00
   0.4932265052437533E+00
   0.4881035041361961E+00
   0.4912132721177459E+00
   0.4932012131965172E+00
   0.4982359590315045E+00
   0.4935755383798794E+00
   0.4788817863583406E+00
   0.4518340351882631E+00
   0.4750761556836741E+00
   0.5097783981526134E+00
   0.4511935997946377E+00
   0.4980813312531107E+00
   0.5232695098512733E+00
   0.4995198756059704E+00
   0.5239976379702262E+00
   0.5062462080506419E+00
   0.5621720102019336E+00
   0.5246973095378528E+00
   0.5014415325580636E+00
   0.5724415420187245E+00
   0.5707004927200020E+00
   0.3697808814973042E+00
   0.4030359529038108E+00
   0.5559039287050918E+00
   0.5550071744359976E+00
   0.4941866687951616E+00
   0.4946225579809337E+00
   0.4922550873342887E+00
   0.4916952756472689E+00
   0.5126203575763124E+00
   0.5320037692458490E+00
   0.5051851573159358E+00
   0.4700273947388331E+00
   0.5096958258791936E+00
   0.5089633508141681E+00
   0.4955096382114178E+00
   0.5091188770359236E+00
   0.4859971065406894E+00
   0.5290197070027519E+00
   0.5276939168813558E+00
   0.5095384248486186E+00
   0.5265023526962671E+00
   0.5255836674859093E+00
   0.5249264231201520E+00
   0.5039105664427290E+00
   0.5284460100257853E+00
   0.5353830995867479E+00
   0.5371546671595484E+00
   0.5324039225419810E+00
   0.4987533140536575E+00
   0.4995693360761521E+00
   0.4985678139116766E+00
   0.4978564023293203E+00
   0.4945363863387736E+00
   0.4946354289631009E+00
   0.4894932192992701E+00
   0.4881854220528707E+00
   0.4965709393735668E+00
   0.4946579484240902E+00
   0.4860622912867830E+00
   0.4896816118528026E+00
   0.4900401254842838E+00
   0.4911767757030056E+00
   0.4926166661504001E+00
   0.4981835093091586E+00
   0.4946289695231620E+00
   0.4948395042663265E+00
   0.4976378097481765E+00
   0.4907933201732854E+00
   0.4936012155454399E+00
   0.4927628950261952E+00
   0.4920514982571939E+00
   0.4513309821824504E+00
   0.4773809763518778E+00
   0.4929577632271493E+00
   0.4922016438692958E+00
   0.4645165003291454E+00
   0.4729120201744179E+00
   0.4915211080120414E+00
   0.4906741981941079E+00
   0.4940153706584806E+00
   0.4854929941838029E+00
   0.4731445640279595E+00
   0.4017685900697168E+00
   0.4925810968946719E+00
   0.4586089584575186E+00
   0.4595049577742393E+00
   0.4895104400151203E+00
   0.4701583268897139E+00
   0.4742234869650578E+00
   0.4816343276968795E+00
   0.4809631343301772E+00
   0.5081955789872107E+00
   0.4436619890321292E+00
   0.4960916976486713E+00
   0.5314783101589360E+00
   0.4949806831002649E+00
   0.5219301693254998E+00
   0.5081293806029652E+00
   0.5664001590252165E+00
   0.5269142148165703E+00
   0.5035387192999818E+00
   0.5834535505525942E+00
   0.5720240486279594E+00
   0.3408860611437979E+00
   0.3851959621850787E+00
   0.5717594982639373E+00
   0.5645095604785441E+00
   0.5689243542779922E+00
   0.5291696177356885E+00
   0.5449155523750752E+00
   0.5701879831015081E+00
   0.5404097048561757E+00
   0.5487778967327085E+00
   0.5790107801382789E+00
   0.4955235631592728E+00
   0.5064965422527332E+00
   0.4994484892041298E+00
   0.5533092428800233E+00
   0.4597901017107485E+00
   0.4983751338185027E+00
   0.5489762782976824E+00
   0.5894376727515078E+00
   0.5821700705894873E+00
   0.5457059797658097E+00
   0.5785146448942682E+00
   0.5122043813242694E+00
   0.5055088143827460E+00
   0.5048980677380793E+00
   0.5645297465565913E+00
   0.5552265330290833E+00
   0.4977583726726820E+00
   0.5488208831437363E+00
   0.5486892014521799E+00
   0.5643387554111289E+00
   0.4955121586029602E+00
   0.4958798399632552E+00
   0.3908415395507692E+00
   0.3725910519413320E+00
   0.5584900744696627E+00
   0.5739392764304132E+00
   0.4177439376116051E+00
   0.5813083359894176E+00
   0.4185999165780144E+00
   0.5391903471883763E+00
   0.4993238887381556E+00
   0.5113858583078839E+00
   0.5070194976891276E+00
   0.5732639806511347E+00
   0.5857709087190018E+00
   0.5448205787785048E+00
   0.5657062852152871E+00
   0.5320308407336897E+00
   0.5310303247340302E+00
   0.5561915548284107E+00
   0.5552162345636298E+00
   0.4401002058025089E+00
   0.5282988155106713E+00
   0.5807279999704549E+00
   0.3397139180305553E+00
   0.4812261657953097E+00
   0.5510167965666769E+00
   0.4924432254659989E+00
   0.3108744289905819E+00
   0.5051822029504647E+00
   0.5043571347796705E+00
   0.5129608677092988E+00
   0.5385848724284423E+00
   0.3519685279961104E+00
   0.3560463501186246E+00
   0.3308149529596717E+00
   0.5084554554704573E+00
   0.5125571346326375E+00
   0.5314307708810917E+00
   0.5857978725601887E+00
   0.4640825383724793E+00
   0.3627235657416245E+00
SCALARS v double 1
LOOKUP_TABLE default
   0.0000000000000000E+00
   0.0000000000000000E+00
   0.0000000000000000E+00
   0.0000000000000000E+00
   0.0000000000000000E+00
   0.0000000000000000E+00
   0.0000000000000000E+00
   0.0000000000000000E+00
   0.0000000000000000E+00
   0.0000000000000000E+00
   0.0000000000000000E+00
   0.0000000000000000E+00
   0.0000000000000000E+00
   0.0000000000000000E+00
   0.0000000000000000E+00
   0.0000000000000000E+00
   0.0000000000000000E+00
   0.0000000000000000E+00
   0.0000000000000000E+00
   0.0000000000000000E+00
   0.0000000000000000E+00
   0.0000000000000000E+00
   0.0000000000000000E+00
   0.0000000000000000E+00
   0.0000000000000000E+00
   0.0000000000000000E+00
   0.0000000000000000E+00
   0.0000000000000000E+00
   0.0000000000000000E+00
   0.0000000000000000E+00
   0.0000000000000000E+00
   0.0000000000000000E+00
   0.0000000000000000E+00
   0.0000000000000000E+00
   0.0000000000000000E+00
   0.0000000000000000E+00
   0.0000000000000000E+00
   0.0000000000000000E+00
   0.0000000000000000E+00
   0.0000000000000000E+00
   0.0000000000000000E+00
   0.0000000000000000E+00
   0.0000000000000000E+00
   0.0000000000000000E+00
   0.0000000000000000E+00
   0.0000000000000000E+00
   0.0000000000000000E+00
   0.0000000000000000E+00
   0.0000000000000000E+00
   0.0000000000000000E+00
   0.0000000000000000E+00
   0.0000000000000000E+00
   0.0000000000000000E+00
   0.0000000000000000E+00
   0.0000000000000000E+00
   0.0000000000000000E+00
   0.0000000000000000E+00
   0.0000000000000000E+00
   0.0000000000000000E+00
   0.0000000000000000E+00
   0.0000000000000000E+00
   0.6334657744270048E-03
  -0.1412103645418334E-02
  -0.1391686544323266E-02
   0.0000000000000000E+00
   0.0000000000000000E+00
   0.0000000000000000E+00
   0.0000000000000000E+00
  -0.1867977251689849E-01
   0.2777509589709641E-03
   0.2206617009458174E-02
   0.1490282963902810E-01
  -0.5368546696837528E-02
  -0.6642014362346728E-02
  -0.1142208646465779E-01
   0.4788841103617547E-02
   0.5371903960023231E-03
   0.3195631366985554E-02
   0.1530300041509993E-02
   0.3473809195381987E-02
   0.1704909954406450E-02
  -0.6356079634484928E-02
   0.7681755645094799E-03
   0.4869162587636699E-02
   0.6121898428351871E-03
   0.6958989198613362E-04
  -0.1767233902062422E-03
   0.6082842043033142E-03
   0.0000000000000000E+00
   0.0000000000000000E+00
   0.0000000000000000E+00
   0.0000000000000000E+00
   0.1212909825772387E-03
   0.1423633534811054E-02
  -0.1108799648842952E-02
  -0.9188964924108319E-03
  -0.2101546809707084E-02
  -0.1220499839647528E-02
  -0.8986467371364111E-03
  -0.6448432789547949E-03
  -0.2472767049226801E-04
  -0.5341998341307956E-03
   0.7240102081356720E-03
  -0.1570799102536182E-02
   0.1025651191490783E-03
  -0.1214716971319840E-03
  -0.8743278637764724E-03
  -0.8885285143239687E-03
   0.0000000000000000E+00
   0.0000000000000000E+00
   0.0000000000000000E+00
  -0.1091309619588158E-02
  -0.8502837012565484E-02
   0.1568985104425578E-01
   0.2148692724387949E-03
  -0.1053391170920237E-02
  -0.1673612983900168E-02
  -0.5281080744380471E-02
  -0.1235967401348538E-02
  -0.3701290687694639E-02
  -0.3032660968261520E-02
   0.2127155975654049E-02
   0.2880601255834118E-01
  -0.1724509856171996E-03
  -0.4260467123977113E-02
   0.2498517915717968E-02
   0.9551051806784744E-03
   0.0000000000000000E+00
   0.0000000000000000E+00
   0.0000000000000000E+00
   0.0000000000000000E+00
   0.0000000000000000E+00
   0.0000000000000000E+00
   0.0000000000000000E+00
   0.0000000000000000E+00
   0.0000000000000000E+00
   0.0000000000000000E+00
   0.0000000000000000E+00
   0.0000000000000000E+00
   0.0000000000000000E+00
   0.0000000000000000E+00
   0.0000000000000000E+00
   0.0000000000000000E+00
   0.0000000000000000E+00
   0.4670192049060454E-02
   0.2763266206807555E-02
   0.6893732968549715E-02
   0.5630426843213504E-02
   0.8687044783641443E-02
   0.1244112054695419E-01
   0.4866794796342033E-03
   0.4364175853781021E-02
   0.2406600644164108E-02
   0.2332208349878392E-02
   0.3176366779402377E-02
  -0.1059584362626432E-01
  -0.4893856045664031E-03
   0.6038344653092408E-02
   0.2600381326767823E-02
   0.2269790897145387E-02
   0.3837916468852696E-02
  -0.2020266051167481E-02
   0.9169928692241774E-03
   0.2371040693322378E-02
   0.1154919154390415E-02
   0.2686122671366040E-02
   0.1739840102877404E-02
   0.1798798303251168E-02
   0.8007101173157094E-02
  -0.3375984981821713E-02
   0.5470386067410131E-02
   0.6506507319449734E-04
  -0.3121390724787552E-04
  -0.1328420521769056E-01
  -0.3290568883301196E-02
  -0.3547651603143044E-02
   0.3675142633291520E-02
  -0.3988167821089702E-02
   0.8943814897067119E-03
  -0.2587594439385441E-01
  -0.3070971334603154E-02
   0.4167699026265639E-02
   0.7177031346307362E-03
   0.1825201458901486E-02
   0.4437739730820627E-02
   0.2300329033398298E-02
   0.3389535573201205E-02
   0.5068274014359506E-02
   0.1856646151930137E-02
   0.5820099560393181E-03
  -0.3347187917506111E-03
  -0.4621577850009104E-02
  -0.5498369316207916E-02
   0.4519102384338101E-03
   0.9429243963557076E-03
  -0.7332546481894421E-03
  -0.3869870850797707E-02
  -0.1215974309113985E-02
  -0.3656426828455401E-02
  -0.6898517976845462E-02
  -0.1708652197497792E-02
   0.5357566730299634E-03
  -0.3546610358180231E-03
   0.1111761668694531E-02
  -0.1832557299340969E-02
   0.6956135650826802E-02
  -0.9774596582023494E-02
  -0.1545537680559164E-04
  -0.4080175600938302E-03
   0.2409194941334117E-02
   0.1123344187435016E-02
   0.1298573575024073E-02
  -0.3828978095360585E-02
SCALARS w double 1
LOOKUP_TABLE default
   0.0000000000000000E+00
   0.0000000000000000E+00
   0.0000000000000000E+00
   0.0000000000000000E+00
   0.0000000000000000E+00
   0.0000000000000000E+00
   0.0000000000000000E+00
   0.0000000000000000E+00
   0.0000000000000000E+00
   0.0000000000000000E+00
   0.0000000000000000E+00
   0.0000000000000000E+00
   0.0000000000000000E+00
   0.0000000000000000E+00
   0.0000000000000000E+00
   0.0000000000000000E+00
   0.0000000000000000E+00
   0.0000000000000000E+00
   0.0000000000000000E+00
   0.0000000000000000E+00
   0.0000000000000000E+00
   0.0000000000000000E+00
   0.0000000000000000E+00
   0.0000000000000000E+00
   0.0000000000000000E+00
   0.0000000000000000E+00
   0.0000000000000000E+00
   0.0000000000000000E+00
   0.0000000000000000E+00
   0.0000000000000000E+00
   0.0000000000000000E+00
   0.0000000000000000E+00
   0.0000000000000000E+00
  -0.1144740490638777E+00
  -0.5028452438842172E-01
  -0.2218629531676515E-02
   0.5066016367721512E-02
  -0.6957770375731433E-03
  -0.6076374959122464E-03
   0.5806021221006879E-03
   0.1144809392885873E-02
   0.2440770007766267E-03
   0.3422553534805559E-02
   0.3884461804550363E-01
   0.5360742672236981E-01
  -0.1493562682869761E-02
  -0.2790726977074139E-01
   0.2079831363487840E-02
   0.1059656642180648E-01
   0.8042755077373127E-02
   0.4393891999340977E-01
  -0.4043356037528445E-03
  -0.1058029589287580E-01
  -0.3671493526712420E-02
  -0.2102257062962109E-02
   0.4820046851649598E-03
  -0.4609512544245830E-01
   0.1623627365377071E-01
   0.1240676185704688E-01
   0.2994633161787885E-01
   0.5073359573485966E-02
   0.4321082891842377E-02
   0.4383201841655480E-02
   0.4018275399020648E-02
   0.5466032683598725E-02
  -0.1704954791335877E-03
  -0.4834023790339892E-01
  -0.1122168335351517E+00
  -0.1279823227727750E+00
   0.2784418374141518E-02
   0.1930928828866980E-02
  -0.1150880931054997E+00
  -0.1133079948753975E+00
  -0.1132666847367460E+00
  -0.1072902269154922E+00
  -0.7748707475582470E-01
   0.3027735956195391E-02
  -0.2451874777369660E-01
  -0.2041361847730318E-01
  -0.9927797091449017E-02
   0.5241312564768380E-02
  -0.9129645702851107E-01
  -0.3406072121146674E-01
  -0.9180582982310176E-01
  -0.6776878283246270E-01
   0.1807791565861592E-02
   0.1559386456674972E-02
   0.1426787876167829E-02
   0.2118645148900491E-02
   0.1358294729137022E-02
  -0.1241620202192914E-02
  -0.1475159781562250E-02
   0.1114708267055729E-02
   0.2218159054387547E-02
   0.1202569112181997E-02
  -0.7056158080658190E-04
   0.1919544651904708E-03
   0.8213740783304128E-03
  -0.1576104010790201E-02
  -0.1943016178441541E-02
   0.1965357917197368E-02
  -0.4390650046867649E-04
  -0.4390423225485630E-03
   0.2228747931244697E-02
  -0.1071756609317527E-02
  -0.2024413057961460E-03
  -0.4923281776399029E-03
  -0.1804014702888879E-02
   0.6879527339573271E-01
   0.2330700472024390E-02
  -0.1105205792131516E-02
  -0.7920416163300218E-03
   0.1156183055243990E+00
   0.1039169943463373E+00
  -0.1771013504600604E-02
  -0.4421112262509990E-02
  -0.7493440629803356E-03
  -0.7086038729188743E-02
  -0.2645568749828847E-02
   0.1269923789940064E+00
   0.6360348385551720E-01
   0.2237137815483259E-01
   0.1353418317248477E+00