TITLE="fun3d_case_title"
VARIABLES="Iteration" "R_1" "R_2" "R_3" "R_4" "R_5" "C_L" "C_D" "C_M_x" "C_M_y" "C_M_z" "Wall Time" "C_x" "C_y" "C_z" "C_Lp" "C_Dp" "C_Lv" "C_Dv" "C_M_xp" "C_M_yp" "C_M_zp" "C_M_xv" "C_M_yv" "C_M_zv" "C_xp" "C_yp" "C_zp" "C_xv" "C_yv" "C_zv"
ZONE  I=100 F=POINT
1  0.2160028480E-01  0.2803577306E-01  0.2142266298E-02  0.5329975095E-02  0.4375737903E-01 -0.4331222015E+01  0.4639076809E-02 -0.1700372318E-01 -0.2622229233E+01  0.5451450822E-04  0.3359000000E+00  0.4639076809E-02  0.4901487480E-05 -0.4331222015E+01 -0.4331391250E+01  0.2897229790E-03  0.1692353916E-03  0.4349353830E-02 -0.1699399971E-01 -0.2622073487E+01  0.9758893679E-04 -0.9723474358E-05 -0.1557462937E-03 -0.4307442857E-04  0.2897229790E-03 -0.3813669212E-05 -0.4331391250E+01  0.4349353830E-02  0.8715156692E-05  0.1692353916E-03
2  0.1080553881E-01  0.1562950681E-01  0.2353151955E-02  0.5688726469E-02  0.1812381168E-01 -0.1935061317E+01  0.4513165582E-02  0.9727924003E-01 -0.1551141694E+02  0.6170451903E-04  0.3999000000E+00  0.4513165582E-02  0.3959417531E-05 -0.1935061317E+01 -0.1935286072E+01  0.3381433440E-03  0.2247549702E-03  0.4175022238E-02  0.9728426450E-01 -0.1551137017E+02  0.1444516022E-03 -0.5024461484E-05 -0.4677817351E-04 -0.8274708319E-04  0.3381433440E-03  0.3082169984E-05 -0.1935286072E+01  0.4175022238E-02  0.8772475462E-06  0.2247549702E-03
3  0.5173695864E-02  0.1032773790E-01  0.1754560028E-02  0.5894717077E-02  0.1164130675E-01  0.3811936315E+00  0.4374902389E-02  0.2709318220E+00 -0.2273975085E+02  0.2200762076E-04  0.4530000000E+00  0.4374902389E-02 -0.1898059169E-05  0.3811936315E+00  0.3809530212E+00  0.3079680944E-03  0.2406102391E-03  0.4066934294E-02  0.2709313359E+00 -0.2273983755E+02  0.1613621741E-03  0.4861676400E-06  0.8669766295E-04 -0.1393545534E-03  0.3079680944E-03  0.7271877107E-05  0.3809530212E+00  0.4066934294E-02 -0.9169936275E-05  0.2406102391E-03
4  0.2636796323E-02  0.7316654783E-02  0.1328822847E-02  0.4540175990E-02  0.7260817018E-02  0.2068462921E+01  0.4252709048E-02  0.3142333261E+00 -0.2614451945E+02 -0.2262476043E-04  0.5048000000E+00  0.4252709048E-02 -0.9402623001E-05  0.2068462921E+01  0.2068231031E+01  0.2639580262E-03  0.2318896841E-03  0.3988751022E-02  0.3142318695E+00 -0.2614471251E+02  0.1586387322E-03  0.1456567032E-05  0.1930675924E-03 -0.1812634926E-03  0.2639580262E-03  0.8838006811E-05  0.2068231031E+01  0.3988751022E-02 -0.1824062981E-04  0.2318896841E-03
5  0.1553269889E-02  0.5091226578E-02  0.9206404906E-03  0.2883893182E-02  0.4491251358E-02  0.2967933512E+01  0.4165415916E-02  0.2652903819E+00 -0.2738769587E+02 -0.6190929040E-04  0.5485000000E+00  0.4165415916E-02 -0.1712800782E-04  0.2967933512E+01  0.2967715145E+01  0.2367333706E-03  0.2183672028E-03  0.3928682546E-02  0.2652882789E+00 -0.2738795348E+02  0.1471033427E-03  0.2103008009E-05  0.2576096607E-03 -0.2090126331E-03  0.2367333706E-03  0.7562753707E-05  0.2967715145E+01  0.3928682546E-02 -0.2469076152E-04  0.2183672028E-03
6  0.9468826758E-03  0.3523928320E-02  0.6657383800E-03  0.1691775214E-02  0.2794818512E-02  0.3359176830E+01  0.4110410425E-02  0.1992103344E+00 -0.2782051668E+02 -0.8878793341E-04  0.6003000000E+00  0.4110410425E-02 -0.2319044513E-04  0.3359176830E+01  0.3358968454E+01  0.2264512184E-03  0.2083763536E-03  0.3883959206E-02  0.1992066337E+00 -0.2782080677E+02  0.1370379226E-03  0.3700690177E-05  0.2900971427E-03 -0.2258258560E-03  0.2264512184E-03  0.5849129327E-05  0.3358968454E+01  0.3883959206E-02 -0.2903957446E-04  0.2083763536E-03
7  0.5497464712E-03  0.2413006733E-02  0.4729259128E-03  0.1009563653E-02  0.1818346072E-02  0.3480296935E+01  0.4078188681E-02  0.1576895836E+00 -0.2799694215E+02 -0.1052370414E-03  0.6442000000E+00  0.4078188681E-02 -0.2728248636E-04  0.3480296935E+01  0.3480093549E+01  0.2260535631E-03  0.2033858934E-03  0.3852135118E-02  0.1576837317E+00 -0.2799724681E+02  0.1310728532E-03  0.5851906243E-05  0.3046570632E-03 -0.2363098947E-03  0.2260535631E-03  0.4489963129E-05  0.3480093549E+01  0.3852135118E-02 -0.3177244949E-04  0.2033858934E-03
8  0.3330157815E-03  0.1642381990E-02  0.3184768237E-03  0.6646207643E-03  0.1232069519E-02  0.3529085668E+01  0.4059425301E-02  0.1493162696E+00 -0.2819643041E+02 -0.1136749700E-03  0.6973000000E+00  0.4059425301E-02 -0.2941753069E-04  0.3529085668E+01  0.3528883926E+01  0.2284013294E-03  0.2017419290E-03  0.3831023972E-02  0.1493083830E+00 -0.2819674163E+02  0.1292062562E-03  0.7886596155E-05  0.3112167417E-03 -0.2428812262E-03  0.2284013294E-03  0.3933594357E-05  0.3528883926E+01  0.3831023972E-02 -0.3335112505E-04  0.2017419290E-03
9  0.2216412871E-03  0.1111675687E-02  0.2110713070E-03  0.4528824469E-03  0.8411573166E-03  0.3562210140E+01  0.4047797947E-02  0.1608820192E+00 -0.2840090805E+02 -0.1174541573E-03  0.7398000000E+00  0.4047797947E-02 -0.3023124686E-04  0.3562210140E+01  0.3562008814E+01  0.2304709098E-03  0.2013260589E-03  0.3817327037E-02  0.1608726191E+00 -0.2840122369E+02  0.1295294599E-03  0.9400081209E-05  0.3156472428E-03 -0.2469836172E-03  0.2304709098E-03  0.3879871869E-05  0.3562008814E+01  0.3817327037E-02 -0.3411111872E-04  0.2013260589E-03
10  0.1592568146E-03  0.7492233236E-03  0.1410606923E-03  0.3164075102E-03  0.5718266961E-03  0.3598037371E+01  0.4040125258E-02  0.1759569603E+00 -0.2858766917E+02 -0.1190312046E-03  0.7823000000E+00  0.4040125258E-02 -0.3037940268E-04  0.3598037371E+01  0.3597836193E+01  0.2314688886E-03  0.2011780961E-03  0.3808656369E-02  0.1759466036E+00 -0.2858798855E+02  0.1304392578E-03  0.1035669330E-04  0.3193824381E-03 -0.2494704624E-03  0.2314688886E-03  0.4021165002E-05  0.3597836193E+01  0.3808656369E-02 -0.3440056769E-04  0.2011780961E-03
11  0.1108597435E-03  0.5003062811E-03  0.9674203875E-04  0.2228251971E-03  0.3807274641E-03  0.3629172112E+01  0.4034825956E-02  0.1880991481E+00 -0.2872515706E+02 -0.1195334999E-03  0.9800000000E+00  0.4034825956E-02 -0.3019783288E-04  0.3629172112E+01  0.3628971139E+01  0.2317252978E-03  0.2009735526E-03  0.3803100658E-02  0.1880881382E+00 -0.2872547970E+02  0.1312775054E-03  0.1100993480E-04  0.3226305709E-03 -0.2508110053E-03  0.2317252978E-03  0.4192454634E-05  0.3628971139E+01  0.3803100658E-02 -0.3439028751E-04  0.2009735526E-03
12  0.7481737186E-04  0.3295123674E-03  0.6846045842E-04  0.1517955300E-03  0.2497799818E-03  0.3652747816E+01  0.4031259210E-02  0.1956106546E+00 -0.2881624604E+02 -0.1195119052E-03  0.1031900000E+01  0.4031259210E-02 -0.2989305344E-04  0.3652747816E+01  0.3652547068E+01  0.2316727818E-03  0.2007482238E-03  0.3799586429E-02  0.1955991541E+00 -0.2881657113E+02  0.1318551484E-03  0.1150049700E-04  0.3250858573E-03 -0.2513670536E-03  0.2316727818E-03  0.4332711086E-05  0.3652547068E+01  0.3799586429E-02 -0.3422576453E-04  0.2007482238E-03
13  0.4860289913E-04  0.2146289082E-03  0.4946244864E-04  0.1016931290E-03  0.1620657086E-03  0.3666836336E+01  0.4028972311E-02  0.1990067136E+00 -0.2886767350E+02 -0.1194087998E-03  0.1074500000E+01  0.4028972311E-02 -0.2963500879E-04  0.3666836336E+01  0.3666635790E+01  0.2315970427E-03  0.2005456969E-03  0.3797375268E-02  0.1989948573E+00 -0.2886800027E+02  0.1321447180E-03  0.1185626742E-04  0.3267761940E-03 -0.2515535178E-03  0.2315970427E-03  0.4412422134E-05  0.3666635790E+01  0.3797375268E-02 -0.3404743092E-04  0.2005456969E-03
14  0.3162797441E-04  0.1393551969E-03  0.3478304363E-04  0.6821876115E-04  0.1057480303E-03  0.3675204393E+01  0.4027592467E-02  0.2005917486E+00 -0.2889667591E+02 -0.1192870497E-03  0.1117100000E+01  0.4027592467E-02 -0.2944016892E-04  0.3675204393E+01  0.3675003980E+01  0.2315541791E-03  0.2004127525E-03  0.3796038288E-02  0.2005796348E+00 -0.2889700372E+02  0.1323085877E-03  0.1211383135E-04  0.3278080759E-03 -0.2515956374E-03  0.2315541791E-03  0.4465248955E-05  0.3675003980E+01  0.3796038288E-02 -0.3390541787E-04  0.2004127525E-03
15  0.2064946090E-04  0.9066302202E-04  0.2387137110E-04  0.4488319352E-04  0.6956980604E-04  0.3680451007E+01  0.4026805935E-02  0.2016288490E+00 -0.2891403976E+02 -0.1191609105E-03  0.1161000000E+01  0.4026805935E-02 -0.2929739988E-04  0.3680451007E+01  0.3680250668E+01  0.2315397384E-03  0.2003389632E-03  0.3795266196E-02  0.2016165568E+00 -0.2891436815E+02  0.1324290476E-03  0.1229220737E-04  0.3283921000E-03 -0.2515899581E-03  0.2315397384E-03  0.4507257860E-05  0.3680250668E+01  0.3795266196E-02 -0.3380465774E-04  0.2003389632E-03
16  0.1350479505E-04  0.5933009028E-04  0.1613023283E-04  0.2888858335E-04  0.4581047654E-04  0.3683970651E+01  0.4026378450E-02  0.2025200698E+00 -0.2892526899E+02 -0.1190393018E-03  0.1203600000E+01  0.4026378450E-02 -0.2919303002E-04  0.3683970651E+01  0.3683770350E+01  0.2315376264E-03  0.2003006986E-03  0.3794840824E-02  0.2025076602E+00 -0.2892559770E+02  0.1325310574E-03  0.1240966456E-04  0.3287125382E-03 -0.2515703593E-03  0.2315376264E-03  0.4542947766E-05  0.3683770350E+01  0.3794840824E-02 -0.3373597779E-04  0.2003006986E-03
17  0.8839186343E-05  0.3930869760E-04  0.1084851615E-04  0.1823167447E-04  0.3048916910E-04  0.3686430244E+01  0.4026151796E-02  0.2033023455E+00 -0.2893291372E+02 -0.1189332425E-03  0.1247500000E+01  0.4026151796E-02 -0.2911712344E-04  0.3686430244E+01  0.3686229965E+01  0.2315366352E-03  0.2002791204E-03  0.3794615161E-02  0.2032898616E+00 -0.2893324261E+02  0.1326163421E-03  0.1248385005E-04  0.3288950591E-03 -0.2515495846E-03  0.2315366352E-03  0.4572146379E-05  0.3686229965E+01  0.3794615161E-02 -0.3368926982E-04  0.2002791204E-03
18  0.5897853611E-05  0.2648939800E-04  0.7337441993E-05  0.1141004558E-04  0.2067686477E-04  0.3688135830E+01  0.4026030057E-02  0.2039382821E+00 -0.2893812315E+02 -0.1188466313E-03  0.1299600000E+01  0.4026030057E-02 -0.2906178685E-04  0.3688135830E+01  0.3687935566E+01  0.2315330829E-03  0.2002641069E-03  0.3794496974E-02  0.2039257521E+00 -0.2893845216E+02  0.1326837594E-03  0.1253005168E-04  0.3290099308E-03 -0.2515303906E-03  0.2315330829E-03  0.4594773386E-05  0.3687935566E+01  0.3794496974E-02 -0.3365656024E-04  0.2002641069E-03
19  0.4012693348E-05  0.1819933220E-04  0.5010646266E-05  0.7207685244E-05  0.1441711859E-04  0.3689278226E+01  0.4025960750E-02  0.2044116472E+00 -0.2894156417E+02 -0.1187791071E-03  0.1343500000E+01  0.4025960750E-02 -0.2902128202E-04  0.3689278226E+01  0.3689077974E+01  0.2315273540E-03  0.2002520631E-03  0.3794433395E-02  0.2043990877E+00 -0.2894189326E+02  0.1327337426E-03  0.1255946746E-04  0.3290900703E-03 -0.2515128497E-03  0.2315273540E-03  0.4611323422E-05  0.3689077974E+01  0.3794433395E-02 -0.3363260545E-04  0.2002520631E-03
20  0.2786393230E-05  0.1276182785E-04  0.3448759250E-05  0.4649835474E-05  0.1033091667E-04  0.3690010577E+01  0.4025917902E-02  0.2047403506E+00 -0.2894373816E+02 -0.1187273201E-03  0.1387400000E+01  0.4025917902E-02 -0.2899142246E-04  0.3690010577E+01  0.3689810335E+01  0.2315210367E-03  0.2002422279E-03  0.3794396866E-02  0.2047277716E+00 -0.2894406731E+02  0.1327690097E-03  0.1257903420E-04  0.3291489169E-03 -0.2514963298E-03  0.2315210367E-03  0.4622920551E-05  0.3689810335E+01  0.3794396866E-02 -0.3361434301E-04  0.2002422279E-03
21  0.1969138640E-05  0.9133866153E-05  0.2380449499E-05  0.3053358959E-05  0.7591769187E-05  0.3690464743E+01  0.4025889712E-02  0.2049581796E+00 -0.2894506298E+02 -0.1186876999E-03  0.1586000000E+01  0.4025889712E-02 -0.2896934538E-04  0.3690464743E+01  0.3690264508E+01  0.2315153896E-03  0.2002345719E-03  0.3794374322E-02  0.2049455870E+00 -0.2894539217E+02  0.1327930525E-03  0.1259257564E-04  0.3291920175E-03 -0.2514807524E-03  0.2315153896E-03  0.4630806981E-05  0.3690264508E+01  0.3794374322E-02 -0.3360015236E-04  0.2002345719E-03
22  0.1419494254E-05  0.6655163070E-05  0.1643949759E-05  0.2024834226E-05  0.5662314648E-05  0.3690741215E+01  0.4025870893E-02  0.2050990776E+00 -0.2894585364E+02 -0.1186572607E-03  0.1628800000E+01  0.4025870893E-02 -0.2895307463E-04  0.3690741215E+01  0.3690540986E+01  0.2315110161E-03  0.2002289954E-03  0.3794359876E-02  0.2050864755E+00 -0.2894618286E+02  0.1328091513E-03  0.1260209014E-04  0.3292224992E-03 -0.2514664120E-03  0.2315110161E-03  0.4636089487E-05  0.3690540986E+01  0.3794359876E-02 -0.3358916412E-04  0.2002289954E-03
23  0.1040839788E-05  0.4907024435E-05  0.1137649925E-05  0.1353520145E-05  0.4240596398E-05  0.3690908975E+01  0.4025858668E-02  0.2051892845E+00 -0.2894632474E+02 -0.1186339489E-03  0.1671500000E+01  0.4025858668E-02 -0.2894123536E-04  0.3690908975E+01  0.3690708750E+01  0.2315079739E-03  0.2002251786E-03  0.3794350694E-02  0.2051766758E+00 -0.2894665399E+02  0.1328198200E-03  0.1260869589E-04  0.3292431163E-03 -0.2514537690E-03  0.2315079739E-03  0.4639593940E-05  0.3690708750E+01  0.3794350694E-02 -0.3358082930E-04  0.2002251786E-03
24  0.7711099916E-06  0.3632937918E-05  0.7916805449E-06  0.9152301181E-06  0.3156567922E-05  0.3691011363E+01  0.4025851120E-02  0.2052467881E+00 -0.2894660869E+02 -0.1186163605E-03  0.1714100000E+01  0.4025851120E-02 -0.2893280421E-04  0.3691011363E+01  0.3690811141E+01  0.2315060252E-03  0.2002226949E-03  0.3794345094E-02  0.2052341750E+00 -0.2894693795E+02  0.1328268198E-03  0.1261315369E-04  0.3292564882E-03 -0.2514431803E-03  0.2315060252E-03  0.4641894281E-05  0.3690811141E+01  0.3794345094E-02 -0.3357469849E-04  0.2002226949E-03
25  0.5719635463E-06  0.2682637481E-05  0.5548264850E-06  0.6285697505E-06  0.2322368688E-05  0.3691074307E+01  0.4025846708E-02  0.2052833469E+00 -0.2894678236E+02 -0.1186034423E-03  0.1757000000E+01  0.4025846708E-02 -0.2892696707E-04  0.3691074307E+01  0.3690874086E+01  0.2315048468E-03  0.2002211269E-03  0.3794341861E-02  0.2052707308E+00 -0.2894711162E+02  0.1328313481E-03  0.1261606128E-04  0.3292649157E-03 -0.2514347904E-03  0.2315048468E-03  0.4643379523E-05  0.3690874086E+01  0.3794341861E-02 -0.3357034659E-04  0.2002211269E-03
26  0.4220545070E-06  0.1967865259E-05  0.3908893065E-06  0.4393123531E-06  0.1685595567E-05  0.3691112979E+01  0.4025844232E-02  0.2053065796E+00 -0.2894688910E+02 -0.1185942739E-03  0.1799800000E+01  0.4025844232E-02 -0.2892304903E-04  0.3691112979E+01  0.3690912759E+01  0.2315041560E-03  0.2002201398E-03  0.3794340076E-02  0.2052939617E+00 -0.2894721837E+02  0.1328342290E-03  0.1261790040E-04  0.3292701825E-03 -0.2514285029E-03  0.2315041560E-03  0.4644318817E-05  0.3690912759E+01  0.3794340076E-02 -0.3356736785E-04  0.2002201398E-03
27  0.3091234182E-06  0.1432189564E-05  0.2757942681E-06  0.3124683850E-06  0.1208671468E-05  0.3691136408E+01  0.4025842852E-02  0.2053214080E+00 -0.2894695400E+02 -0.1185880048E-03  0.1843900000E+01  0.4025842852E-02 -0.2892049613E-04  0.3691136408E+01  0.3690936188E+01  0.2315037539E-03  0.2002195027E-03  0.3794339098E-02  0.2053087890E+00 -0.2894728327E+02  0.1328360356E-03  0.1261903972E-04  0.3292735204E-03 -0.2514240404E-03  0.2315037539E-03  0.4644900989E-05  0.3690936188E+01  0.3794339098E-02 -0.3356539712E-04  0.2002195027E-03
28  0.2251369983E-06  0.1034582450E-05  0.1942764097E-06  0.2259249293E-06  0.8589147890E-06  0.3691150171E+01  0.4025842051E-02  0.2053309830E+00 -0.2894699241E+02 -0.1185838660E-03  0.1886800000E+01  0.4025842051E-02 -0.2891887145E-04  0.3691150171E+01  0.3690949952E+01  0.2315035196E-03  0.2002190758E-03  0.3794338531E-02  0.2053183633E+00 -0.2894732168E+02  0.1328371645E-03  0.1261974199E-04  0.3292756941E-03 -0.2514210305E-03  0.2315035196E-03  0.4645258232E-05  0.3690949952E+01  0.3794338531E-02 -0.3356412968E-04  0.2002190758E-03
29  0.1636469303E-06  0.7425364564E-06  0.1365160143E-06  0.1658854760E-06  0.6069891523E-06  0.3691157881E+01  0.4025841554E-02  0.2053372929E+00 -0.2894701434E+02 -0.1185812086E-03  0.1930900000E+01  0.4025841554E-02 -0.2891784979E-04  0.3691157881E+01  0.3690957662E+01  0.2315033851E-03  0.2002187817E-03  0.3794338169E-02  0.2053246727E+00 -0.2894734361E+02  0.1328378822E-03  0.1262018111E-04  0.3292771441E-03 -0.2514190908E-03  0.2315033851E-03  0.4645480174E-05  0.3690957662E+01  0.3794338169E-02 -0.3356332996E-04  0.2002187817E-03
30  0.1190678061E-06  0.5298498286E-06  0.9582626333E-07  0.1236356452E-06  0.4275979743E-06  0.3691161917E+01  0.4025841231E-02  0.2053415668E+00 -0.2894702638E+02 -0.1185795277E-03  0.1983100000E+01  0.4025841231E-02 -0.2891720440E-04  0.3691161917E+01  0.3690961698E+01  0.2315033129E-03  0.2002185783E-03  0.3794337918E-02  0.2053289463E+00 -0.2894735566E+02  0.1328383582E-03  0.1262046456E-04  0.3292781189E-03 -0.2514178859E-03  0.2315033129E-03  0.4645624207E-05  0.3690961698E+01  0.3794337918E-02 -0.3356282861E-04  0.2002185783E-03
31  0.8675681972E-07  0.3758930476E-06  0.6736638327E-07  0.9344977829E-07  0.3004748989E-06  0.3691163848E+01  0.4025841021E-02  0.2053445575E+00 -0.2894703281E+02 -0.1185784613E-03  0.2184700000E+01  0.4025841021E-02 -0.2891678713E-04  0.3691163848E+01  0.3690963630E+01  0.2315032796E-03  0.2002184403E-03  0.3794337741E-02  0.2053319368E+00 -0.2894736209E+02  0.1328386942E-03  0.1262065532E-04  0.3292787676E-03 -0.2514171555E-03  0.2315032796E-03  0.4645724497E-05  0.3690963630E+01  0.3794337741E-02 -0.3356251162E-04  0.2002184403E-03
32  0.6319295548E-07  0.2650050818E-06  0.4756016264E-07  0.7145360533E-07  0.2104923553E-06  0.3691164650E+01  0.4025840891E-02  0.2053467101E+00 -0.2894703620E+02 -0.1185777714E-03  0.2228800000E+01  0.4025840891E-02 -0.2891650773E-04  0.3691164650E+01  0.3690964432E+01  0.2315032695E-03  0.2002183493E-03  0.3794337621E-02  0.2053340894E+00 -0.2894736548E+02  0.1328389450E-03  0.1262078851E-04  0.3292791903E-03 -0.2514167164E-03  0.2315032695E-03  0.4645799268E-05  0.3690964432E+01  0.3794337621E-02 -0.3356230700E-04  0.2002183493E-03
33  0.4589142603E-07  0.1855738807E-06  0.3378297404E-07  0.5498340214E-07  0.1468694389E-06  0.3691164897E+01  0.4025840818E-02  0.2053482875E+00 -0.2894703798E+02 -0.1185773123E-03  0.2271700000E+01  0.4025840818E-02 -0.2891631416E-04  0.3691164897E+01  0.3690964679E+01  0.2315032717E-03  0.2002182910E-03  0.3794337546E-02  0.2053356666E+00 -0.2894736726E+02  0.1328391382E-03  0.1262088366E-04  0.3292794603E-03 -0.2514164505E-03  0.2315032717E-03  0.4645857279E-05  0.3690964679E+01  0.3794337546E-02 -0.3356217144E-04  0.2002182910E-03
34  0.3314590010E-07  0.1290733877E-06  0.2416715036E-07  0.4228829941E-07  0.1020155466E-06  0.3691164901E+01  0.4025840780E-02  0.2053494495E+00 -0.2894703892E+02 -0.1185769993E-03  0.2314700000E+01  0.4025840780E-02 -0.2891617715E-04  0.3691164901E+01  0.3690964683E+01  0.2315032789E-03  0.2002182541E-03  0.3794337502E-02  0.2053368285E+00 -0.2894736820E+02  0.1328392873E-03  0.1262095216E-04  0.3292796311E-03 -0.2514162867E-03  0.2315032789E-03  0.4645902524E-05  0.3690964683E+01  0.3794337502E-02 -0.3356207967E-04  0.2002182541E-03
35  0.2377972280E-07  0.8923517058E-07  0.1741344760E-07  0.3229601208E-07  0.7058543532E-07  0.3691164820E+01  0.4025840764E-02  0.2053503007E+00 -0.2894703942E+02 -0.1185767838E-03  0.2357600000E+01  0.4025840764E-02 -0.2891607973E-04  0.3691164820E+01  0.3690964602E+01  0.2315032869E-03  0.2002182306E-03  0.3794337478E-02  0.2053376797E+00 -0.2894736870E+02  0.1328394004E-03  0.1262100131E-04  0.3292797397E-03 -0.2514161842E-03  0.2315032869E-03  0.4645937133E-05  0.3690964602E+01  0.3794337478E-02 -0.3356201686E-04  0.2002182306E-03
36  0.1695131372E-07  0.6141780618E-07  0.1263272412E-07  0.2438119857E-07  0.4874708576E-07  0.3691164726E+01  0.4025840759E-02  0.2053509170E+00 -0.2894703969E+02 -0.1185766360E-03  0.2410100000E+01  0.4025840759E-02 -0.2891601108E-04  0.3691164726E+01  0.3690964508E+01  0.2315032938E-03  0.2002182153E-03  0.3794337465E-02  0.2053382960E+00 -0.2894736896E+02  0.1328394838E-03  0.1262103628E-04  0.3292798100E-03 -0.2514161198E-03  0.2315032938E-03  0.4645962819E-05  0.3690964508E+01  0.3794337465E-02 -0.3356197390E-04  0.2002182153E-03
37  0.1202614985E-07  0.4217290573E-07  0.9220761913E-08  0.1816225472E-07  0.3370112439E-07  0.3691164647E+01  0.4025840758E-02  0.2053513578E+00 -0.2894703984E+02 -0.1185765359E-03  0.2452900000E+01  0.4025840758E-02 -0.2891596342E-04  0.3691164647E+01  0.3690964429E+01  0.2315032991E-03  0.2002182050E-03  0.3794337458E-02  0.2053387367E+00 -0.2894736912E+02  0.1328395437E-03  0.1262106094E-04  0.3292798565E-03 -0.2514160797E-03  0.2315032991E-03  0.4645981326E-05  0.3690964429E+01  0.3794337458E-02 -0.3356194474E-04  0.2002182050E-03
38  0.8510246723E-08  0.2895574504E-07  0.6766697870E-08  0.1335888840E-07  0.2339388944E-07  0.3691164591E+01  0.4025840758E-02  0.2053516703E+00 -0.2894703995E+02 -0.1185764689E-03  0.2495900000E+01  0.4025840758E-02 -0.2891593077E-04  0.3691164591E+01  0.3690964373E+01  0.2315033031E-03  0.2002181980E-03  0.3794337455E-02  0.2053390492E+00 -0.2894736923E+02  0.1328395861E-03  0.1262107827E-04  0.3292798875E-03 -0.2514160550E-03  0.2315033031E-03  0.4645994392E-05  0.3690964373E+01  0.3794337455E-02 -0.3356192516E-04  0.2002181980E-03
39  0.6018827261E-08  0.1991814287E-07  0.4988850205E-08  0.9721567298E-08  0.1633934485E-07  0.3691164558E+01  0.4025840760E-02  0.2053518918E+00 -0.2894704006E+02 -0.1185764240E-03  0.2540100000E+01  0.4025840760E-02 -0.2891590853E-04  0.3691164558E+01  0.3690964340E+01  0.2315033060E-03  0.2002181933E-03  0.3794337454E-02  0.2053392708E+00 -0.2894736934E+02  0.1328396159E-03  0.1262109047E-04  0.3292799079E-03 -0.2514160399E-03  0.2315033060E-03  0.4646003567E-05  0.3690964340E+01  0.3794337454E-02 -0.3356191209E-04  0.2002181933E-03
40  0.4259631278E-08  0.1374597691E-07  0.3691916476E-08  0.7015292872E-08  0.1149105191E-07  0.3691164544E+01  0.4025840761E-02  0.2053520503E+00 -0.2894704017E+02 -0.1185763933E-03  0.2593600000E+01  0.4025840761E-02 -0.2891589326E-04  0.3691164544E+01  0.3690964326E+01  0.2315033081E-03  0.2002181903E-03  0.3794337453E-02  0.2053394292E+00 -0.2894736945E+02  0.1328396370E-03  0.1262109914E-04  0.3292799211E-03 -0.2514160303E-03  0.2315033081E-03  0.4646010082E-05  0.3690964326E+01  0.3794337453E-02 -0.3356190334E-04  0.2002181903E-03
41  0.3018037824E-08  0.9524363583E-08  0.2739322602E-08  0.5028426739E-08  0.8133454184E-08  0.3691164543E+01  0.4025840763E-02  0.2053521656E+00 -0.2894704028E+02 -0.1185763714E-03  0.2791400000E+01  0.4025840763E-02 -0.2891588259E-04  0.3691164543E+01  0.3690964325E+01  0.2315033096E-03  0.2002181884E-03  0.3794337453E-02  0.2053395445E+00 -0.2894736956E+02  0.1328396524E-03  0.1262110539E-04  0.3292799292E-03 -0.2514160238E-03  0.2315033096E-03  0.4646014818E-05  0.3690964325E+01  0.3794337453E-02 -0.3356189741E-04  0.2002181884E-03
42  0.2140856838E-08  0.6627107241E-08  0.2035232943E-08  0.3583564528E-08  0.5787562475E-08  0.3691164550E+01  0.4025840765E-02  0.2053522511E+00 -0.2894704039E+02 -0.1185763549E-03  0.2834400000E+01  0.4025840765E-02 -0.2891587495E-04  0.3691164550E+01  0.3690964332E+01  0.2315033108E-03  0.2002181872E-03  0.3794337454E-02  0.2053396300E+00 -0.2894736967E+02  0.1328396639E-03  0.1262110995E-04  0.3292799341E-03 -0.2514160188E-03  0.2315033108E-03  0.4646018354E-05  0.3690964332E+01  0.3794337454E-02 -0.3356189330E-04  0.2002181872E-03
43  0.1520393957E-08  0.4629962181E-08  0.1512220631E-08  0.2540638096E-08  0.4135024610E-08  0.3691164562E+01  0.4025840767E-02  0.2053523159E+00 -0.2894704049E+02 -0.1185763421E-03  0.2877400000E+01  0.4025840767E-02 -0.2891586934E-04  0.3691164562E+01  0.3690964343E+01  0.2315033116E-03  0.2002181866E-03  0.3794337455E-02  0.2053396948E+00 -0.2894736977E+02  0.1328396726E-03  0.1262111334E-04  0.3292799369E-03 -0.2514160147E-03  0.2315033116E-03  0.4646021051E-05  0.3690964343E+01  0.3794337455E-02 -0.3356189039E-04  0.2002181866E-03
44  0.1081163889E-08  0.3246652488E-08  0.1122512682E-08  0.1793049223E-08  0.2962953492E-08  0.3691164574E+01  0.4025840768E-02  0.2053523655E+00 -0.2894704057E+02 -0.1185763317E-03  0.2920400000E+01  0.4025840768E-02 -0.2891586514E-04  0.3691164574E+01  0.3690964356E+01  0.2315033121E-03  0.2002181862E-03  0.3794337456E-02  0.2053397444E+00 -0.2894736985E+02  0.1328396793E-03  0.1262111587E-04  0.3292799384E-03 -0.2514160110E-03  0.2315033121E-03  0.4646023130E-05  0.3690964356E+01  0.3794337456E-02 -0.3356188827E-04  0.2002181862E-03
45  0.7700170525E-09  0.2283869358E-08  0.8318040508E-09  0.1260915499E-08  0.2127155985E-08  0.3691164587E+01  0.4025840769E-02  0.2053524038E+00 -0.2894704064E+02 -0.1185763233E-03  0.2963400000E+01  0.4025840769E-02 -0.2891586196E-04  0.3691164587E+01  0.3690964369E+01  0.2315033124E-03  0.2002181860E-03  0.3794337457E-02  0.2053397826E+00 -0.2894736992E+02  0.1328396844E-03  0.1262111777E-04  0.3292799391E-03 -0.2514160077E-03  0.2315033124E-03  0.4646024737E-05  0.3690964369E+01  0.3794337457E-02 -0.3356188670E-04  0.2002181860E-03
46  0.5493616125E-09  0.1610688774E-08  0.6150428356E-09  0.8846339570E-09  0.1528654594E-08  0.3691164598E+01  0.4025840770E-02  0.2053524333E+00 -0.2894704069E+02 -0.1185763165E-03  0.3006500000E+01  0.4025840770E-02 -0.2891585955E-04  0.3691164598E+01  0.3690964380E+01  0.2315033126E-03  0.2002181859E-03  0.3794337458E-02  0.2053398122E+00 -0.2894736997E+02  0.1328396884E-03  0.1262111920E-04  0.3292799395E-03 -0.2514160049E-03  0.2315033126E-03  0.4646025971E-05  0.3690964380E+01  0.3794337458E-02 -0.3356188552E-04  0.2002181859E-03
47  0.3925905968E-09  0.1138078306E-08  0.4536613879E-09  0.6199304667E-09  0.1098775529E-08  0.3691164608E+01  0.4025840771E-02  0.2053524560E+00 -0.2894704073E+02 -0.1185763111E-03  0.3050800000E+01  0.4025840771E-02 -0.2891585772E-04  0.3691164608E+01  0.3690964390E+01  0.2315033127E-03  0.2002181859E-03  0.3794337458E-02  0.2053398349E+00 -0.2894737001E+02  0.1328396914E-03  0.1262112029E-04  0.3292799395E-03 -0.2514160025E-03  0.2315033127E-03  0.4646026914E-05  0.3690964390E+01  0.3794337458E-02 -0.3356188464E-04  0.2002181859E-03
48  0.2809363312E-09  0.8051854638E-09  0.3337642493E-09  0.4342740238E-09  0.7894482730E-09  0.3691164616E+01  0.4025840771E-02  0.2053524734E+00 -0.2894704077E+02 -0.1185763067E-03  0.3093900000E+01  0.4025840771E-02 -0.2891585634E-04  0.3691164616E+01  0.3690964398E+01  0.2315033128E-03  0.2002181859E-03  0.3794337458E-02  0.2053398523E+00 -0.2894737005E+02  0.1328396937E-03  0.1262112111E-04  0.3292799395E-03 -0.2514160004E-03  0.2315033128E-03  0.4646027627E-05  0.3690964398E+01  0.3794337458E-02 -0.3356188397E-04  0.2002181859E-03
49  0.2012154372E-09  0.5701466985E-09  0.2449063100E-09  0.3041651208E-09  0.5667289330E-09  0.3691164623E+01  0.4025840771E-02  0.2053524867E+00 -0.2894704079E+02 -0.1185763034E-03  0.3138400000E+01  0.4025840771E-02 -0.2891585529E-04  0.3691164623E+01  0.3690964405E+01  0.2315033128E-03  0.2002181859E-03  0.3794337459E-02  0.2053398656E+00 -0.2894737007E+02  0.1328396954E-03  0.1262112172E-04  0.3292799393E-03 -0.2514159988E-03  0.2315033128E-03  0.4646028165E-05  0.3690964405E+01  0.3794337459E-02 -0.3356188346E-04  0.2002181859E-03
50  0.1441798713E-09  0.4039402065E-09  0.1792282413E-09  0.2129371121E-09  0.4064290252E-09  0.3691164629E+01  0.4025840772E-02  0.2053524967E+00 -0.2894704081E+02 -0.1185763007E-03  0.3190800000E+01  0.4025840772E-02 -0.2891585451E-04  0.3691164629E+01  0.3690964410E+01  0.2315033128E-03  0.2002181860E-03  0.3794337459E-02  0.2053398756E+00 -0.2894737009E+02  0.1328396967E-03  0.1262112219E-04  0.3292799392E-03 -0.2514159974E-03  0.2315033128E-03  0.4646028568E-05  0.3690964410E+01  0.3794337459E-02 -0.3356188308E-04  0.2002181860E-03
51  0.1033229288E-09  0.2862939960E-09  0.1308203363E-09  0.1489310701E-09  0.2911683359E-09  0.3691164633E+01  0.4025840772E-02  0.2053525043E+00 -0.2894704083E+02 -0.1185762987E-03  0.3389900000E+01  0.4025840772E-02 -0.2891585392E-04  0.3691164633E+01  0.3690964415E+01  0.2315033128E-03  0.2002181860E-03  0.3794337459E-02  0.2053398831E+00 -0.2894737011E+02  0.1328396977E-03  0.1262112254E-04  0.3292799391E-03 -0.2514159964E-03  0.2315033128E-03  0.4646028869E-05  0.3690964415E+01  0.3794337459E-02 -0.3356188279E-04  0.2002181860E-03
52  0.7403852961E-10  0.2029635332E-09  0.9524522558E-10  0.1040345748E-09  0.2083903079E-09  0.3691164637E+01  0.4025840772E-02  0.2053525099E+00 -0.2894704084E+02 -0.1185762972E-03  0.3432900000E+01  0.4025840772E-02 -0.2891585348E-04  0.3691164637E+01  0.3690964419E+01  0.2315033129E-03  0.2002181861E-03  0.3794337459E-02  0.2053398888E+00 -0.2894737012E+02  0.1328396984E-03  0.1262112280E-04  0.3292799389E-03 -0.2514159955E-03  0.2315033129E-03  0.4646029094E-05  0.3690964419E+01  0.3794337459E-02 -0.3356188258E-04  0.2002181861E-03
53  0.5304551602E-10  0.1439049113E-09  0.6917687842E-10  0.7258553640E-10  0.1490059947E-09  0.3691164640E+01  0.4025840772E-02  0.2053525142E+00 -0.2894704085E+02 -0.1185762960E-03  0.3477800000E+01  0.4025840772E-02 -0.2891585316E-04  0.3691164640E+01  0.3690964421E+01  0.2315033129E-03  0.2002181861E-03  0.3794337459E-02  0.2053398931E+00 -0.2894737013E+02  0.1328396989E-03  0.1262112299E-04  0.3292799388E-03 -0.2514159949E-03  0.2315033129E-03  0.4646029262E-05  0.3690964421E+01  0.3794337459E-02 -0.3356188242E-04  0.2002181861E-03
54  0.3799563602E-10  0.1020257278E-09  0.5012839294E-10  0.5060317655E-10  0.1064431884E-09  0.3691164642E+01  0.4025840772E-02  0.2053525174E+00 -0.2894704086E+02 -0.1185762951E-03  0.3521000000E+01  0.4025840772E-02 -0.2891585292E-04  0.3691164642E+01  0.3690964424E+01  0.2315033129E-03  0.2002181861E-03  0.3794337459E-02  0.2053398962E+00 -0.2894737014E+02  0.1328396993E-03  0.1262112314E-04  0.3292799387E-03 -0.2514159944E-03  0.2315033129E-03  0.4646029386E-05  0.3690964424E+01  0.3794337459E-02 -0.3356188231E-04  0.2002181861E-03