title="tecplot geometry and solution file"
variables = x y z mach temperature lambda1 lambda2 lambda3 lambda4 lambda5
zone t="boundary 1 bc-1", solutiontime= 0.7000000E+02, strandid=1001, i=32, j=46, f=feblock
 -0.547468544169E-02  0.000000000000E+00 -0.567606031243E-02  0.000000000000E+00  0.000000000000E+00  0.000000000000E+00 -0.525159244851E-02
 -0.425776897977E-02  0.000000000000E+00  0.000000000000E+00  0.000000000000E+00  0.000000000000E+00  0.000000000000E+00  0.000000000000E+00
  0.000000000000E+00  0.000000000000E+00 -0.338395986572E-02  0.000000000000E+00  0.000000000000E+00  0.000000000000E+00  0.000000000000E+00
  0.000000000000E+00  0.000000000000E+00  0.000000000000E+00  0.000000000000E+00  0.000000000000E+00  0.000000000000E+00  0.000000000000E+00
  0.000000000000E+00  0.000000000000E+00  0.000000000000E+00  0.000000000000E+00
  0.250494197117E+01  0.250494197117E+01  0.127822156907E+01  0.146289271009E+01  0.157686156160E+01  0.308372018325E+00  0.261948602442E-01
 -0.122573481164E+01 -0.600232012419E+00  0.250494197117E+01  0.477386199275E+00  0.742988685424E+00 -0.739814786992E+00  0.177790177481E+01
  0.155830813274E+01  0.250494197117E+01 -0.249658903664E+01 -0.154800130438E+01 -0.487811078581E+00  0.250494197117E+01  0.627766083140E+00
 -0.345533899378E+00 -0.178862290564E+01 -0.158811787973E+01  0.125000000000E+01 -0.249658903664E+01 -0.144524380962E+01  0.000000000000E+00
 -0.125000000000E+01 -0.249658903664E+01 -0.249658903664E+01 -0.249658903664E+01
  0.803813859866E-04  0.125000000000E+01  0.822460170216E-04  0.103724302461E+01  0.219251206392E+01  0.922061490191E+00  0.103872438719E-03
  0.341545874231E-04  0.715990576545E+00  0.250000000000E+01  0.202479342020E+01  0.324151231464E+01  0.175434191980E+01  0.310152362409E+01
  0.404200324774E+01  0.375000000000E+01  0.810725962649E-04  0.930412228790E+00  0.299062775774E+01  0.500000000000E+01  0.429310310915E+01
  0.409252726285E+01  0.187029682677E+01  0.284428995242E+01  0.500000000000E+01  0.125000000000E+01  0.394624082883E+01  0.500000000000E+01
  0.500000000000E+01  0.250000000000E+01  0.375000000000E+01  0.500000000000E+01
  0.000000000000E+00  0.440672136512E+00  0.000000000000E+00  0.474618025820E+00  0.460125068601E+00  0.468639320143E+00  0.000000000000E+00
  0.000000000000E+00  0.402534623939E+00  0.469886789982E+00  0.464193107367E+00  0.478749739491E+00  0.489555756507E+00  0.483130037990E+00
  0.488002902366E+00  0.489035017215E+00  0.000000000000E+00  0.465237698331E+00  0.473759127176E+00  0.495364848064E+00  0.490293257191E+00
  0.486276632093E+00  0.445850265191E+00  0.464356446519E+00  0.496127940578E+00  0.443891909404E+00  0.486928147025E+00  0.497248366859E+00
  0.496055083747E+00  0.467740399690E+00  0.488187228171E+00  0.495089980244E+00
  0.999990300362E+00  0.102982970104E+01  0.999990762612E+00  0.104241436388E+01  0.101187663318E+01  0.102516400612E+01  0.999991420552E+00
  0.999992171067E+00  0.103882325429E+01  0.100825795511E+01  0.101253536096E+01  0.100301645575E+01  0.102705594255E+01  0.100604114309E+01
  0.100244532432E+01  0.100354817652E+01  0.999992724186E+00  0.103209991946E+01  0.100459425771E+01  0.100178625606E+01  0.100260326526E+01
  0.100234745937E+01  0.101657167924E+01  0.100620610961E+01  0.100168369530E+01  0.104025009063E+01  0.100303477791E+01  0.100118721261E+01
  0.100134451878E+01  0.100976460100E+01  0.100405634212E+01  0.100176433139E+01
  0.610129922644E-02  0.306716106261E-01  0.698494810718E-02  0.492836780768E-01  0.346862143036E-02  0.587059677119E-01  0.512165754281E-02
  0.170598236090E-02  0.582732515015E-01 -0.164995248753E-02  0.389953020936E-02 -0.701958840099E-02  0.329293722355E-02 -0.389670499778E-02
 -0.933379093053E-02 -0.931134389133E-02  0.308604612322E-02  0.385674836714E-01 -0.515851104919E-02 -0.339852407758E-01 -0.121361465038E-01
 -0.812690829768E-02  0.186574585164E-02 -0.443745070792E-02 -0.351890941707E-01  0.248759639772E-01 -0.633150299415E-02 -0.387855913403E-01
 -0.342302825165E-01 -0.361021503712E-02 -0.697141729596E-02 -0.321706554701E-01
  0.239193325925E-03  0.444690397668E-02  0.331468285361E-03  0.629797490398E-02  0.165103219007E-03  0.888125469602E-02  0.361485944810E-03
  0.321555625726E-03  0.868020723866E-02 -0.782603191458E-03  0.347082569374E-03 -0.148142157219E-02 -0.971838892724E-04 -0.114287151565E-02
 -0.182978749357E-02 -0.204919605897E-02  0.284324144116E-03  0.601318334407E-02 -0.103416908331E-02 -0.697903126485E-02 -0.240637986837E-02
 -0.155610076342E-02 -0.207720125812E-03 -0.851542815848E-03 -0.736738768597E-02  0.306409083179E-02 -0.124804097671E-02 -0.814802123038E-02
 -0.716145287267E-02 -0.904775866768E-03 -0.148496439602E-02 -0.669180333452E-02
  0.405817013952E-03  0.128356927870E-03  0.546884956400E-03  0.125031023729E-02  0.147352989731E-03  0.606722002393E-03  0.467396497959E-03
 -0.174854008137E-03 -0.333211443736E-04 -0.133078975065E-04  0.128347570092E-03  0.133156983587E-03 -0.140617286751E-03  0.250991456012E-04
 -0.495600656725E-04 -0.287138044038E-05 -0.245073120927E-03 -0.794134820437E-03  0.152612234766E-04  0.332386625107E-05 -0.320427946024E-04
 -0.381293660660E-04 -0.165275909277E-04 -0.137082729817E-03  0.897585252278E-04 -0.102521552376E-03 -0.785938481209E-04 -0.171187163366E-04
 -0.755962443572E-04 -0.219850910678E-04 -0.801657775197E-05  0.654904315426E-05
 -0.147369372948E-02 -0.134232841184E-02 -0.160704540173E-02 -0.713594942495E-05  0.142118690966E-02  0.153397996640E-02 -0.899993146017E-03
 -0.786601351008E-03  0.108729784914E-02  0.155237100388E-02  0.289652917060E-02  0.159507312205E-02  0.319732236230E-02  0.148279149596E-02
  0.109559100546E-02  0.128763660830E-02 -0.609660945444E-03  0.916844685571E-03  0.183380067583E-02  0.461659000967E-03  0.101739774330E-02
  0.121216204043E-02  0.217918278084E-02  0.148770175238E-02  0.443203169993E-03  0.112530545116E-02  0.111191379548E-02  0.419535726487E-03
  0.501268775804E-03  0.168637885997E-02  0.113900509252E-02  0.491825441788E-03
 -0.487347766738E-02 -0.126325489266E-01 -0.665636108508E-02 -0.197247323741E-01 -0.144244376336E-02 -0.243687324760E-01  0.325552966599E-03
  0.104266199016E-02 -0.242167463524E-01  0.663711704022E-03 -0.170497238198E-02  0.274439661680E-02 -0.142036272753E-02  0.153547866810E-02
  0.372763472444E-02  0.375539613471E-02 -0.101640115512E-02 -0.161237571914E-01  0.191163867524E-02  0.141084867985E-01  0.490135931050E-02
  0.321411057962E-02 -0.897667927051E-03  0.158959200833E-02  0.146345875591E-01 -0.101412324631E-01  0.246913200023E-02  0.161775575344E-01
  0.142445456585E-01  0.131292042063E-02  0.276987759609E-02  0.133525625051E-01
        12        19        11        11
        11         5        12        12
        10        14         5         5
        19        13        11        11
        19        24        13        13
        30        23        24        24
        19        12        22        22
        28        22        21        21
        11        13         6         6
         7         6         9         9
        15        12        14        14
        18        13        23        23
        15        25        21        21
        27        19        22        22
        18         8         9         9
        27        31        24        24
         4        11         6         6
         5        14        12        12
         4         2         5         5
        21        12        15        15
        14        16        15        15
        24        19        27        27
        22        29        27        27
        23        26        18        18
        17         8        18        18
         5        11         4         4
         6         3         4         4
        26        23        30        30
         5         2        10        10
        16        14        10        10
         3         6         7         7
        21        25        28        28
        29        22        28        28
         6        13         9         9
         2         4         1         1
        31        27        32        32
        25        15        20        20
        24        23        13        13
         8         7         9         9
        13        18         9         9
        31        30        24        24
        12        21        22        22
        29        32        27        27
         3         1         4         4
        26        17        18        18
        16        20        15        15
zone t="boundary 2 bc-2", solutiontime= 0.7000000E+02, strandid=1002, i=33, j=48, f=feblock
  0.500195253374E+01  0.375034811161E+01  0.249861146299E+01  0.288036674177E+01  0.124717526933E+01  0.190856698521E+01  0.326577190273E+01
  0.201394856120E+01 -0.338395986572E-02  0.962374249381E+00  0.500000000000E+01  0.403430190008E+01  0.423029563807E+01  0.500000000000E+01
  0.385439188940E+01  0.500000000000E+01  0.398133433176E+01  0.315200081417E+01  0.266958028869E+01  0.154798029824E+01  0.218327860466E+01
  0.893688440338E+00  0.000000000000E+00  0.699009761768E+00  0.964460899052E+00  0.310303671659E+01  0.000000000000E+00  0.000000000000E+00
  0.125000000000E+01  0.500000000000E+01  0.375000000000E+01  0.250000000000E+01  0.000000000000E+00
 -0.249658903664E+01 -0.249658903664E+01 -0.249658903664E+01 -0.249658903664E+01 -0.249658903664E+01 -0.249658903664E+01 -0.249658903664E+01
 -0.249658903664E+01 -0.249658903664E+01 -0.249658903664E+01 -0.249658903664E+01 -0.249658903664E+01 -0.249658903664E+01 -0.249658903664E+01
 -0.249658903664E+01 -0.249658903664E+01 -0.249658903664E+01 -0.249658903664E+01 -0.249658903664E+01 -0.249658903664E+01 -0.249658903664E+01
 -0.249658903664E+01 -0.249658903664E+01 -0.249658903664E+01 -0.249658903664E+01 -0.249658903664E+01 -0.249658903664E+01 -0.249658903664E+01
 -0.249658903664E+01 -0.249658903664E+01 -0.249658903664E+01 -0.249658903664E+01 -0.249658903664E+01
  0.108225889030E-03  0.145875369682E-03  0.100893326425E-03  0.901663374396E+00  0.110858761917E-03  0.714928318829E+00  0.188140648011E+01
  0.175892165504E+01  0.810725962649E-04  0.957504300331E+00  0.125000000000E+01  0.100596698996E+01  0.191313519089E+01  0.250000000000E+01
  0.292898096716E+01  0.375000000000E+01  0.406883369524E+01  0.363389289944E+01  0.284756860985E+01  0.292582308120E+01  0.395754054931E+01
  0.205027256979E+01  0.125000000000E+01  0.306703272692E+01  0.397155766662E+01  0.433068622168E+01  0.250000000000E+01  0.375000000000E+01
  0.500000000000E+01  0.500000000000E+01  0.500000000000E+01  0.500000000000E+01  0.500000000000E+01
  0.000000000000E+00  0.000000000000E+00  0.000000000000E+00  0.380534933893E+00  0.000000000000E+00  0.343213081171E+00  0.585244496925E+00
  0.579499344205E+00  0.000000000000E+00  0.500959578913E+00  0.508769460148E+00  0.434312419771E+00  0.572817919451E+00  0.537160208080E+00
  0.569105645782E+00  0.515014970171E+00  0.508256765061E+00  0.527354036988E+00  0.567656182489E+00  0.531857069084E+00  0.506013391179E+00
  0.521044573739E+00  0.443891909404E+00  0.490703078146E+00  0.492147926412E+00  0.501388000320E+00  0.467740399690E+00  0.488187228171E+00
  0.489959820989E+00  0.491323935798E+00  0.486019442841E+00  0.489980976742E+00  0.495089980244E+00
  0.999993488485E+00  0.999993690942E+00  0.999993544242E+00  0.989596674085E+00  0.999993139053E+00  0.985604091028E+00  0.989839488847E+00
  0.991730617690E+00  0.999992724186E+00  0.984220387528E+00  0.985139981863E+00  0.984817712566E+00  0.990066477090E+00  0.100292374828E+01
  0.999857731400E+00  0.100487268684E+01  0.100122724769E+01  0.100056983810E+01  0.997888256964E+00  0.100350942201E+01  0.100059365414E+01
  0.101090707434E+01  0.104025009063E+01  0.100327959733E+01  0.100254952730E+01  0.100046804572E+01  0.100976460100E+01  0.100405634212E+01
  0.100192626091E+01  0.100045827286E+01  0.100058947226E+01  0.100110091494E+01  0.100176433139E+01
 -0.252330487440E-02 -0.197836621951E-02 -0.121459746257E-02  0.238871103875E-01  0.241586183401E-02  0.783249452519E-01 -0.513268752634E-02
  0.945451857646E-03  0.308604612322E-02  0.364110480097E-01 -0.659539635436E-02 -0.762573640996E-02 -0.517678834739E-02 -0.442551219724E-02
 -0.325421248466E-02 -0.297003835077E-02 -0.218678533421E-02 -0.253089911787E-02 -0.418838461233E-02 -0.501215371014E-02 -0.329352939350E-02
  0.131166688834E-02  0.248759639772E-01 -0.338760319680E-02 -0.608983159713E-02 -0.396506082902E-02 -0.361021503712E-02 -0.697141729596E-02
 -0.289373545984E-01 -0.345683964933E-02 -0.132315415591E-01 -0.254248108981E-01 -0.321706554701E-01
  0.688017510686E-03 -0.192413013735E-03  0.186016233380E-04  0.410457408673E-02 -0.447445721825E-03  0.973191000424E-02 -0.195190446293E-04
 -0.387698627526E-03  0.284324144116E-03  0.429782600059E-02  0.149329780651E-02  0.510348466579E-04  0.758601252949E-03  0.113146538272E-02
  0.753199109526E-03  0.696408259534E-03  0.834179969669E-03  0.695142164307E-03  0.255886702970E-03 -0.423834827920E-03  0.298491590480E-03
 -0.360628127215E-03  0.306409083179E-02 -0.230052329553E-03 -0.701311819320E-03  0.411793464840E-03 -0.904775866768E-03 -0.148496439602E-02
 -0.520556007993E-02  0.174285303092E-03 -0.132936078847E-02 -0.395250282320E-02 -0.669180333452E-02
 -0.155436672055E-03  0.411018462180E-04  0.241698283125E-03  0.557908595175E-03  0.128340269542E-03  0.973142449805E-03 -0.761032388878E-04
  0.867706160837E-05 -0.245073120927E-03  0.373150050968E-03 -0.884472289633E-04 -0.284864282680E-03  0.530084535163E-05  0.835654754740E-05
  0.687429659380E-05 -0.133548071335E-04  0.161898464417E-05 -0.712032430575E-05  0.115808377815E-04  0.276324968184E-04 -0.169170412245E-04
  0.289642108248E-04 -0.102521552376E-03  0.546518371377E-05 -0.265980690670E-05 -0.591907537664E-05 -0.219850910678E-04 -0.801657775197E-05
 -0.261298573629E-05 -0.238092430878E-05  0.519556921156E-06  0.173538152696E-05  0.654904315426E-05
 -0.198495091347E-03 -0.204935691425E-03 -0.309701014891E-03  0.103425720400E-02 -0.716684376644E-03  0.224343024070E-03  0.156042881624E-02
  0.208716680112E-02 -0.609660945444E-03  0.980861978065E-03  0.298756006026E-03  0.109217566386E-02  0.626931682308E-03  0.283381855829E-03
  0.647019654853E-03  0.236866150120E-03  0.629141877458E-03  0.888584560212E-03  0.105425390155E-02  0.109568967162E-02  0.102596603152E-02
  0.165897305490E-02  0.112530545116E-02  0.116587722309E-02  0.102754449438E-02  0.886970797195E-03  0.168637885997E-02  0.113900509252E-02
  0.691322975779E-03  0.368551789168E-03  0.801729859024E-03  0.869536662766E-03  0.491825441788E-03
  0.718496133259E-03  0.197892363546E-02  0.342981611530E-02 -0.108863608062E-01  0.409105199363E-02 -0.335473621367E-01  0.152391572311E-02
 -0.485558419423E-03 -0.101640115512E-02 -0.150873566764E-01  0.142552992894E-02  0.231557458610E-02  0.127166493478E-02  0.848554395907E-03
  0.635872438429E-03  0.600567938238E-03  0.300582603029E-03  0.460749715598E-03  0.114878653717E-02  0.170376536385E-02  0.880390894414E-03
 -0.598242574615E-03 -0.101412324631E-01  0.109205819710E-02  0.222182643595E-02  0.108182189615E-02  0.131292042063E-02  0.276987759609E-02
  0.117573805860E-01  0.104473869613E-02  0.496518309364E-02  0.101091202249E-01  0.133525625051E-01
        15         7        19        19
         8        20        19        19
        18        19        21        21
         7         4         8         8
         3         6         4         4
        19         7         8         8
        19        18        15        15
        14        13        15        15
         8        22        20        20
        27        24        22        22
        19        20        21        21
        32        26        21        21
        17        18        26        26
        17        16        15        15
        25        29        21        21
        12         7        13        13
        10         8         6         6
        25        20        24        24
         4         6         8         8
        12         2         4         4
        10        23        22        22
        26        31        17        17
        30        16        17        17
         4         7        12        12
        13        11        12        12
        21        20        25        25
        24        28        25        25
        22         8        10        10
         6         5        10        10
        31        26        32        32
         4         2         3         3
         5         6         3         3
        11        13        14        14
        22        23        27        27
        28        24        27        27
        15        13         7         7
         2        12         1         1
        29        25        33        33
        23        10         9         9
        21        26        18        18
        16        14        15        15
        18        17        15        15
        29        32        21        21
        22        24        20        20
        28        33        25        25
        11         1        12        12
        31        30        17        17
         5         9        10        10
zone t="boundary 3 bc-3", solutiontime= 0.7000000E+02, strandid=1003, i=33, j=48, f=feblock
  0.375059096892E+01  0.249769609313E+01  0.500322133174E+01  0.403612218725E+01  0.287976772365E+01  0.124541910518E+01  0.190552237404E+01
  0.500000000000E+01  0.326671104552E+01  0.423253755448E+01  0.201271136506E+01 -0.547468544169E-02  0.958895643487E+00  0.500000000000E+01
  0.266968147299E+01  0.385584487271E+01  0.890374214836E+00  0.154654013699E+01  0.000000000000E+00  0.500000000000E+01  0.315261136744E+01
  0.218304199515E+01  0.398195307895E+01  0.000000000000E+00  0.697379952124E+00  0.963757277315E+00  0.125000000000E+01  0.000000000000E+00
  0.500000000000E+01  0.310330738524E+01  0.250000000000E+01  0.375000000000E+01  0.000000000000E+00
  0.250494197117E+01  0.250494197117E+01  0.250494197117E+01  0.250494197117E+01  0.250494197117E+01  0.250494197117E+01  0.250494197117E+01
  0.250494197117E+01  0.250494197117E+01  0.250494197117E+01  0.250494197117E+01  0.250494197117E+01  0.250494197117E+01  0.250494197117E+01
  0.250494197117E+01  0.250494197117E+01  0.250494197117E+01  0.250494197117E+01  0.250494197117E+01  0.250494197117E+01  0.250494197117E+01
  0.250494197117E+01  0.250494197117E+01  0.250494197117E+01  0.250494197117E+01  0.250494197117E+01  0.250494197117E+01  0.250494197117E+01
  0.250494197117E+01  0.250494197117E+01  0.250494197117E+01  0.250494197117E+01  0.250494197117E+01
  0.135649900494E-03  0.110129816467E-03  0.966887303890E-04  0.101756752009E+01  0.908094589218E+00  0.103942505801E-03  0.722629083213E+00
  0.125000000000E+01  0.188965661746E+01  0.191862696980E+01  0.176708239098E+01  0.803813859866E-04  0.969652551954E+00  0.250000000000E+01
  0.285339433501E+01  0.293325058812E+01  0.205656223819E+01  0.293157016932E+01  0.125000000000E+01  0.375000000000E+01  0.363766838842E+01
  0.396069444983E+01  0.407056385475E+01  0.250000000000E+01  0.307031995245E+01  0.397359820314E+01  0.500000000000E+01  0.375000000000E+01
  0.500000000000E+01  0.433260781310E+01  0.500000000000E+01  0.500000000000E+01  0.500000000000E+01
  0.000000000000E+00  0.000000000000E+00  0.000000000000E+00  0.444961626928E+00  0.402838316190E+00  0.000000000000E+00  0.379029001549E+00
  0.508827846411E+00  0.575719767468E+00  0.573484231916E+00  0.562571091033E+00  0.000000000000E+00  0.491643474339E+00  0.534340493553E+00
  0.556353506125E+00  0.564141623675E+00  0.522489639030E+00  0.521815314100E+00  0.440672136512E+00  0.517132480923E+00  0.524064820256E+00
  0.503612613683E+00  0.509416634110E+00  0.469886789982E+00  0.495646532245E+00  0.494503101969E+00  0.488630053423E+00  0.489035017215E+00
  0.492985464012E+00  0.498953669977E+00  0.486505314975E+00  0.484610387305E+00  0.495364848064E+00
  0.999989345567E+00  0.999989414891E+00  0.999989632591E+00  0.981375695393E+00  0.988672653297E+00  0.999989832933E+00  0.982271891095E+00
  0.984075644303E+00  0.990406052732E+00  0.990320090376E+00  0.994390331428E+00  0.999990300362E+00  0.988743428079E+00  0.100365390733E+01
  0.999774597300E+00  0.100117529834E+01  0.100830077599E+01  0.100251293722E+01  0.102982970104E+01  0.100442054131E+01  0.100199281310E+01
  0.100081994749E+01  0.100137956774E+01  0.100825795511E+01  0.100297377722E+01  0.100191712118E+01  0.100214790177E+01  0.100354817652E+01
  0.100047567419E+01  0.100056574043E+01  0.100126719373E+01  0.100066769089E+01  0.100178625606E+01
 -0.170696781093E-02  0.132207098625E-02 -0.282319815353E-02  0.156157646155E-01  0.610978512915E-01  0.384271911084E-02  0.607949817741E-01
 -0.967038352796E-02 -0.492433189178E-02 -0.609281631571E-02  0.101025527583E-01  0.610129922644E-02  0.411699539832E-01 -0.462840410120E-02
 -0.535308344051E-02 -0.380336338187E-02  0.118122450137E-02 -0.517337283318E-02  0.306716106261E-01 -0.315202917714E-02 -0.230353518856E-02
 -0.315301299952E-02 -0.240355618105E-02 -0.164995248753E-02 -0.450961517740E-02 -0.833683373831E-02 -0.256245148039E-01 -0.931134389133E-02
 -0.298751388667E-02 -0.367456420879E-02 -0.239580416433E-01 -0.129989983872E-01 -0.339852407758E-01
 -0.395706375717E-03 -0.383848319697E-03  0.702864382251E-03  0.442188960021E-02  0.844024569362E-02 -0.799463920779E-03  0.752240676252E-02
  0.158570834816E-02 -0.850342384497E-04  0.835479247304E-03  0.183789321531E-03  0.239193325925E-03  0.310158470522E-02  0.121100862102E-02
 -0.766596840852E-04  0.632353599226E-03 -0.114683436271E-02 -0.543420192042E-03  0.444690397668E-02  0.772751444046E-03  0.668048134120E-03
  0.362296842463E-03  0.780343585268E-03 -0.782603191458E-03 -0.105759982958E-02 -0.104813600529E-02 -0.454526566527E-02 -0.204919605897E-02
  0.271633105143E-03  0.430051221341E-03 -0.371580940899E-02 -0.129185096211E-02 -0.697903126485E-02
 -0.747356299743E-04  0.397315442071E-04  0.956353280669E-04 -0.296472221960E-03 -0.858454513193E-03  0.335336086765E-03 -0.127837818014E-04
  0.190251301093E-05 -0.958302756026E-04  0.160419383205E-04 -0.808274820458E-04  0.405817013952E-03  0.465368245881E-03  0.352475359347E-04
 -0.404503463551E-05  0.485518928729E-05 -0.158968073529E-03 -0.597025640544E-04  0.128356927870E-03  0.197179186137E-04  0.966534903299E-05
  0.428264678391E-04  0.767429935026E-06 -0.133078975065E-04 -0.361591555599E-04  0.121955585115E-04  0.171304912572E-04 -0.287138044038E-05
  0.691913434637E-05 -0.250033009783E-06  0.391636211788E-05 -0.101222743459E-05  0.332386625107E-05
 -0.462498245589E-03 -0.866064419200E-03 -0.242260646105E-03  0.654618289725E-03  0.104382874654E-02 -0.834678371331E-03  0.330680343008E-03
  0.374351333948E-03  0.191563528578E-02  0.929875309854E-03  0.277649582412E-02 -0.147369372948E-02  0.912458131967E-03  0.371744569260E-03
  0.986686448238E-03  0.826358489844E-03  0.233921776095E-02  0.105018211740E-02 -0.134232841184E-02  0.329609220475E-03  0.949354445682E-03
  0.981439914345E-03  0.710057365464E-03  0.155237100388E-02  0.151209461897E-02  0.101233620029E-02  0.727848781915E-03  0.128763660830E-02
  0.350540761157E-03  0.922613891988E-03  0.882361351172E-03  0.804643229087E-03  0.461659000967E-03
  0.706470113908E-02  0.301234403989E-02  0.132765212029E-02 -0.812540875412E-02 -0.264541833240E-01  0.190755533229E-03 -0.255324627092E-01
  0.246326728755E-02  0.152867513949E-02  0.157349616526E-02 -0.394621570882E-02 -0.487347766738E-02 -0.162213645560E-01  0.871128916150E-03
  0.169074161210E-02  0.862120610492E-03 -0.353966079090E-03  0.179123004160E-02 -0.126325489266E-01  0.618591539590E-03  0.381131310396E-03
  0.812845953636E-03  0.391873476019E-03  0.663711704022E-03  0.165145868484E-02  0.313655177663E-02  0.103597311962E-01  0.375539613471E-02
  0.846625040097E-03  0.970824198330E-03  0.950677385661E-02  0.486632875410E-02  0.141084867985E-01
        15         9        16        16
        15        18        11        11
        22        15        21        21
        11         5         9         9
         5         7         2         2
        11         9        15        15
        16        21        15        15
        16        10        14        14
        18        17        11        11
        17        25        24        24
        22        18        15        15
        22        30        31        31
        30        21        23        23
        16        20        23        23
        22        27        26        26
        10         9         4         4
         7        11        13        13
        25        18        26        26
        11         7         5         5
         5         1         4         4
        17        19        13        13
        23        32        30        30
        23        20        29        29
         4         9         5         5
         4         8        10        10
        26        18        22        22
        26        28        25        25
        13        11        17        17
        13         6         7         7
        31        30        32        32
         2         1         5         5
         2         7         6         6
        14        10         8         8
        24        19        17        17
        24        25        28        28
         9        10        16        16
         3         4         1         1
        33        26        27        27
        12        13        19        19
        21        30        22        22
        16        14        20        20
        16        23        21        21
        22        31        27        27
        18        25        17        17
        26        33        28        28
         4         3         8         8
        23        29        32        32
        13        12         6         6
zone t="boundary 4 bc-4", solutiontime= 0.7000000E+02, strandid=1004, i=32, j=46, f=feblock
  0.125000000000E+01  0.219251206392E+01  0.103724302461E+01  0.500000000000E+01  0.250000000000E+01  0.375000000000E+01  0.404200324774E+01
  0.500000000000E+01  0.000000000000E+00  0.310152362409E+01  0.202479342020E+01  0.324151231464E+01  0.922061490191E+00  0.000000000000E+00
  0.299062775774E+01  0.394624082883E+01  0.500000000000E+01  0.409252726285E+01  0.500000000000E+01  0.429310310915E+01  0.175434191980E+01
  0.284428995242E+01  0.000000000000E+00  0.000000000000E+00  0.715990576545E+00  0.930412228790E+00  0.125000000000E+01  0.187029682677E+01
  0.500000000000E+01  0.375000000000E+01  0.250000000000E+01  0.000000000000E+00
  0.250494197117E+01  0.157686156160E+01  0.146289271009E+01  0.250494197117E+01  0.250494197117E+01  0.250494197117E+01  0.155830813274E+01
  0.125000000000E+01  0.250494197117E+01  0.177790177481E+01  0.477386199275E+00  0.742988685424E+00  0.308372018325E+00  0.125000000000E+01
 -0.487811078581E+00 -0.144524380962E+01 -0.125000000000E+01 -0.345533899378E+00  0.000000000000E+00  0.627766083140E+00 -0.739814786992E+00
 -0.158811787973E+01  0.000000000000E+00 -0.125000000000E+01 -0.600232012419E+00 -0.154800130438E+01 -0.249658903664E+01 -0.178862290564E+01
 -0.249658903664E+01 -0.249658903664E+01 -0.249658903664E+01 -0.249658903664E+01
  0.500000000000E+01  0.500000000000E+01  0.500000000000E+01  0.500000000000E+01  0.500000000000E+01  0.500000000000E+01  0.500000000000E+01
  0.500000000000E+01  0.500000000000E+01  0.500000000000E+01  0.500000000000E+01  0.500000000000E+01  0.500000000000E+01  0.500000000000E+01
  0.500000000000E+01  0.500000000000E+01  0.500000000000E+01  0.500000000000E+01  0.500000000000E+01  0.500000000000E+01  0.500000000000E+01
  0.500000000000E+01  0.500000000000E+01  0.500000000000E+01  0.500000000000E+01  0.500000000000E+01  0.500000000000E+01  0.500000000000E+01
  0.500000000000E+01  0.500000000000E+01  0.500000000000E+01  0.500000000000E+01
  0.488630053423E+00  0.488907200673E+00  0.490613524454E+00  0.492985464012E+00  0.486505314975E+00  0.484610387305E+00  0.485346346417E+00
  0.494164094826E+00  0.495364848064E+00  0.486544301825E+00  0.487826539497E+00  0.487053944491E+00  0.494057895498E+00  0.496127940578E+00
  0.487590739712E+00  0.483169495133E+00  0.492384717662E+00  0.487198320547E+00  0.494738341209E+00  0.487947262281E+00  0.489650836219E+00
  0.487975047811E+00  0.497248366859E+00  0.496055083747E+00  0.494947818077E+00  0.492777844524E+00  0.489959820989E+00  0.489963118744E+00
  0.491323935798E+00  0.486019442841E+00  0.489980976742E+00  0.495089980244E+00
  0.100214790177E+01  0.100152376261E+01  0.100177920363E+01  0.100047567419E+01  0.100126719373E+01  0.100066769089E+01  0.100025509248E+01
  0.100050308878E+01  0.100178625606E+01  0.100112381228E+01  0.100132857256E+01  0.100072299640E+01  0.100164084009E+01  0.100168369530E+01
  0.100096380429E+01  0.100001109262E+01  0.100083219162E+01  0.100022379580E+01  0.100062130449E+01  0.100023379273E+01  0.100174737467E+01
  0.100099023681E+01  0.100118721261E+01  0.100134451878E+01  0.100132726122E+01  0.100179980273E+01  0.100192626091E+01  0.100163810987E+01
  0.100045827286E+01  0.100058947226E+01  0.100110091494E+01  0.100176433139E+01
 -0.256245148039E-01 -0.248591199931E-01 -0.255304624606E-01 -0.298751388667E-02 -0.239580416433E-01 -0.129989983872E-01 -0.903607575758E-02
 -0.297344858494E-02 -0.339852407758E-01 -0.199239759837E-01 -0.267203004608E-01 -0.187255428457E-01 -0.311246160939E-01 -0.351890941707E-01
 -0.211045816675E-01 -0.870183010199E-02 -0.336852040051E-02 -0.110807153207E-01 -0.276169309027E-02 -0.110691221957E-01 -0.328852467497E-01
 -0.198616239604E-01 -0.387855913403E-01 -0.342302825165E-01 -0.360581885738E-01 -0.289171087859E-01 -0.289373545984E-01 -0.306010681598E-01
 -0.345683964933E-02 -0.132315415591E-01 -0.254248108981E-01 -0.321706554701E-01