# vtk DataFile Version 2.0
FUN3D:global_image_vtk
ASCII
DATASET UNSTRUCTURED_GRID
POINTS 213 double
    0.0000000000000000E+00    0.2500000000000000E+01    0.0000000000000000E+00
    0.1250000000000000E+01    0.2500000000000000E+01    0.0000000000000000E+00
    0.2500000000000000E+01    0.2500000000000000E+01    0.0000000000000000E+00
    0.3750000000000000E+01    0.2500000000000000E+01    0.0000000000000000E+00
    0.5000000000000000E+01    0.2500000000000000E+01    0.0000000000000000E+00
    0.5000000000000000E+01    0.1250000000000000E+01    0.0000000000000000E+00
    0.5000000000000000E+01    0.0000000000000000E+00    0.0000000000000000E+00
    0.5000000000000000E+01   -0.1250000000000000E+01    0.0000000000000000E+00
    0.5000000000000000E+01   -0.2500000000000000E+01    0.0000000000000000E+00
    0.3750000000000000E+01   -0.2500000000000000E+01    0.0000000000000000E+00
    0.2500000000000000E+01   -0.2500000000000000E+01    0.0000000000000000E+00
    0.1250000000000000E+01   -0.2500000000000000E+01    0.0000000000000000E+00
    0.0000000000000000E+00   -0.2500000000000000E+01    0.0000000000000000E+00
    0.0000000000000000E+00   -0.1250000000000000E+01    0.0000000000000000E+00
    0.0000000000000000E+00    0.0000000000000000E+00    0.0000000000000000E+00
    0.0000000000000000E+00    0.1250000000000000E+01    0.0000000000000000E+00
    0.9058375365086910E+00    0.1578994732800803E+01    0.0000000000000000E+00
    0.3982050490726493E+01   -0.1583989954232354E+01    0.0000000000000000E+00
    0.4033849428301197E+01    0.1453322699199022E+01    0.0000000000000000E+00
    0.1040505887381675E+01   -0.1479596339503735E+01    0.0000000000000000E+00
    0.1099454400140349E+01   -0.3227322616384110E+00    0.0000000000000000E+00
    0.7354504170366591E+00    0.6593508822075582E+00    0.0000000000000000E+00
    0.1622302608453282E+01    0.8256214013940779E+00    0.0000000000000000E+00
    0.2145871574390382E+01   -0.1650070333782557E+01    0.0000000000000000E+00
    0.4086422318222992E+01   -0.4612828702537229E+00    0.0000000000000000E+00
    0.2979540174134984E+01   -0.8579242121530853E+00    0.0000000000000000E+00
    0.3045064261640043E+01   -0.1836846154397680E+01    0.0000000000000000E+00
    0.3428197553792836E+01    0.3508002863614053E+00    0.0000000000000000E+00
    0.4309693860063405E+01    0.5185680230613409E+00    0.0000000000000000E+00
    0.1827272193562204E+01    0.1738996113203182E+01    0.0000000000000000E+00
    0.2808563282768077E+01    0.1325493893339706E+01    0.0000000000000000E+00
    0.1895995683864404E+01   -0.8731419609589618E+00    0.0000000000000000E+00
    0.2273179336307740E+01    0.4906150219227333E-01    0.0000000000000000E+00
    0.5000000000000000E+01    0.2500000000000000E+01    0.1250000000000000E+01
    0.5000000000000000E+01    0.2500000000000000E+01    0.2500000000000000E+01
    0.5000000000000000E+01    0.2500000000000000E+01    0.3750000000000000E+01
    0.5000000000000000E+01    0.2500000000000000E+01    0.5000000000000000E+01
    0.3750000000000000E+01    0.2500000000000000E+01    0.5000000000000000E+01
    0.2500000000000000E+01    0.2500000000000000E+01    0.5000000000000000E+01
    0.1250000000000000E+01    0.2500000000000000E+01    0.5000000000000000E+01
    0.0000000000000000E+00    0.2500000000000000E+01    0.5000000000000000E+01
    0.0000000000000000E+00    0.2500000000000000E+01    0.3750000000000000E+01
    0.0000000000000000E+00    0.2500000000000000E+01    0.2500000000000000E+01
    0.0000000000000000E+00    0.2500000000000000E+01    0.1250000000000000E+01
    0.9631080833812172E+00    0.2500000000000000E+01    0.9613285771248219E+00
    0.3981732467264904E+01    0.2500000000000000E+01    0.4069753913607991E+01
    0.4035525118777670E+01    0.2500000000000000E+01    0.1012015867579395E+01
    0.9641717640894248E+00    0.2500000000000000E+01    0.3972455192261839E+01
    0.1547743040396780E+01    0.2500000000000000E+01    0.2928177746738678E+01
    0.6985170616192014E+00    0.2500000000000000E+01    0.3068281976055466E+01
    0.8931277594515110E+00    0.2500000000000000E+01    0.2052465503257726E+01
    0.2183293750162785E+01    0.2500000000000000E+01    0.3959073795658649E+01
    0.3855333506014705E+01    0.2500000000000000E+01    0.2931218481500625E+01
    0.3152495579421047E+01    0.2500000000000000E+01    0.3635850502723324E+01
    0.3103247580566054E+01    0.2500000000000000E+01    0.4331682712472464E+01
    0.3266837581688852E+01    0.2500000000000000E+01    0.1886092433583972E+01
    0.4231539241296245E+01    0.2500000000000000E+01    0.1915865356532799E+01
    0.1909741006522088E+01    0.2500000000000000E+01    0.7170024419130505E+00
    0.2880784107213163E+01    0.2500000000000000E+01    0.9046598906449592E+00
    0.2014316024535771E+01    0.2500000000000000E+01    0.1762464314805728E+01
    0.2670003247036656E+01    0.2500000000000000E+01    0.2850479545835163E+01
    0.5000000000000000E+01    0.1250000000000000E+01    0.5000000000000000E+01
    0.5000000000000000E+01    0.0000000000000000E+00    0.5000000000000000E+01
    0.5000000000000000E+01   -0.1250000000000000E+01    0.5000000000000000E+01
    0.5000000000000000E+01   -0.2500000000000000E+01    0.5000000000000000E+01
    0.5000000000000000E+01   -0.2500000000000000E+01    0.3750000000000000E+01
    0.5000000000000000E+01   -0.2500000000000000E+01    0.2500000000000000E+01
    0.5000000000000000E+01   -0.2500000000000000E+01    0.1250000000000000E+01
    0.5000000000000000E+01    0.1578994732800803E+01    0.9058375365086910E+00
    0.5000000000000000E+01   -0.1583989954232354E+01    0.3982050490726493E+01
    0.5000000000000000E+01    0.1453322699199022E+01    0.4033849428301197E+01
    0.5000000000000000E+01   -0.1479596339503735E+01    0.1040505887381675E+01
    0.5000000000000000E+01   -0.3227322616384110E+00    0.1099454400140349E+01
    0.5000000000000000E+01    0.6593508822075582E+00    0.7354504170366591E+00
    0.5000000000000000E+01    0.8256214013940779E+00    0.1622302608453282E+01
    0.5000000000000000E+01   -0.1650070333782557E+01    0.2145871574390382E+01
    0.5000000000000000E+01   -0.4612828702537229E+00    0.4086422318222992E+01
    0.5000000000000000E+01   -0.8579242121530853E+00    0.2979540174134984E+01
    0.5000000000000000E+01   -0.1836846154397680E+01    0.3045064261640043E+01
    0.5000000000000000E+01    0.3508002863614053E+00    0.3428197553792836E+01
    0.5000000000000000E+01    0.5185680230613409E+00    0.4309693860063405E+01
    0.5000000000000000E+01    0.1738996113203182E+01    0.1827272193562204E+01
    0.5000000000000000E+01    0.1325493893339706E+01    0.2808563282768077E+01
    0.5000000000000000E+01   -0.8731419609589618E+00    0.1895995683864404E+01
    0.5000000000000000E+01    0.4906150219227333E-01    0.2273179336307740E+01
    0.0000000000000000E+00    0.1250000000000000E+01    0.5000000000000000E+01
    0.0000000000000000E+00    0.0000000000000000E+00    0.5000000000000000E+01
    0.0000000000000000E+00   -0.1250000000000000E+01    0.5000000000000000E+01
    0.0000000000000000E+00   -0.2500000000000000E+01    0.5000000000000000E+01
    0.1250000000000000E+01   -0.2500000000000000E+01    0.5000000000000000E+01
    0.2500000000000000E+01   -0.2500000000000000E+01    0.5000000000000000E+01
    0.3750000000000000E+01   -0.2500000000000000E+01    0.5000000000000000E+01
    0.4042003247744892E+01    0.1558308132739014E+01    0.5000000000000000E+01
    0.9304122287900499E+00   -0.1548001304379777E+01    0.5000000000000000E+01
    0.1037243024609388E+01    0.1462892710085612E+01    0.5000000000000000E+01
    0.3946240828834967E+01   -0.1445243809615570E+01    0.5000000000000000E+01
    0.4092527262848217E+01   -0.3455338993778935E+00    0.5000000000000000E+01
    0.4293103109154542E+01    0.6277660831404320E+00    0.5000000000000000E+01
    0.3241512314643519E+01    0.7429886854239611E+00    0.5000000000000000E+01
    0.2844289952419609E+01   -0.1588117879734118E+01    0.5000000000000000E+01
    0.7159905765450471E+00   -0.6002320124191652E+00    0.5000000000000000E+01
    0.1754341919796891E+01   -0.7398147869923652E+00    0.5000000000000000E+01
    0.1870296826774691E+01   -0.1788622905643739E+01    0.5000000000000000E+01
    0.9220614901912976E+00    0.3083720183248586E+00    0.5000000000000000E+01
    0.3101523624086016E+01    0.1777901774806180E+01    0.5000000000000000E+01
    0.2192512063922564E+01    0.1576861561598471E+01    0.5000000000000000E+01
    0.2024793420196460E+01    0.4773861992750707E+00    0.5000000000000000E+01
    0.2990627757741975E+01   -0.4878110785814084E+00    0.5000000000000000E+01
    0.0000000000000000E+00   -0.2500000000000000E+01    0.1250000000000000E+01
    0.0000000000000000E+00   -0.2500000000000000E+01    0.2500000000000000E+01
    0.0000000000000000E+00   -0.2500000000000000E+01    0.3750000000000000E+01
    0.0000000000000000E+00    0.1558308132739014E+01    0.4042003247744892E+01
    0.0000000000000000E+00   -0.1548001304379777E+01    0.9304122287900499E+00
    0.0000000000000000E+00    0.1462892710085612E+01    0.1037243024609388E+01
    0.0000000000000000E+00   -0.1445243809615570E+01    0.3946240828834967E+01
    0.0000000000000000E+00   -0.3455338993778935E+00    0.4092527262848217E+01
    0.0000000000000000E+00    0.6277660831404320E+00    0.4293103109154542E+01
    0.0000000000000000E+00    0.7429886854239611E+00    0.3241512314643519E+01
    0.0000000000000000E+00   -0.1588117879734118E+01    0.2844289952419609E+01
    0.0000000000000000E+00   -0.6002320124191652E+00    0.7159905765450471E+00
    0.0000000000000000E+00   -0.7398147869923652E+00    0.1754341919796891E+01
    0.0000000000000000E+00   -0.1788622905643739E+01    0.1870296826774691E+01
    0.0000000000000000E+00    0.3083720183248586E+00    0.9220614901912976E+00
    0.0000000000000000E+00    0.1777901774806180E+01    0.3101523624086016E+01
    0.0000000000000000E+00    0.1576861561598471E+01    0.2192512063922564E+01
[...]
POINT_DATA 213
SCALARS rho double 1
LOOKUP_TABLE default
   0.1218184581937175E+01
   0.9219514815791889E+00
   0.9105761164329277E+00
   0.8963907322736969E+00
   0.7821487695201015E+00
   0.7113148803304096E+00
   0.6992893411556705E+00
   0.7032404038578914E+00
   0.7684421093166478E+00
   0.8894678483610247E+00
   0.8985900672134031E+00
   0.9250023122700780E+00
   0.1301121345503426E+01
   0.1347022930886596E+01
   0.1454831679480763E+01
   0.1286189667023161E+01
   0.9613233422978593E+00
   0.9044690315774371E+00
   0.8971043733196585E+00
   0.9254347187344730E+00
   0.9126297801630215E+00
   0.9860043934880324E+00
   0.8972396622195926E+00
   0.8999329548393200E+00
   0.9066948829166864E+00
   0.9110930459241869E+00
   0.8941461930304047E+00
   0.9124640131495799E+00
   0.8900158785205639E+00
   0.9016131265787580E+00
   0.9062422375641010E+00
   0.8624504173712286E+00
   0.9077459314495101E+00
   0.9505888652307359E+00
   0.1008474470532153E+01
   0.1007001766386442E+01
   0.1000146969415346E+01
   0.1000490536340990E+01
   0.1001017263125554E+01
   0.1002483472891017E+01
   0.1001954919689005E+01
   0.1004920219295280E+01
   0.1016635445347062E+01
   0.1058262378655826E+01
   0.1005081954969785E+01
   0.1000008945938027E+01
   0.9454893974925411E+00
   0.1002056195951323E+01
   0.9982585752662269E+00
   0.1004522101183929E+01
   0.1005397571214499E+01
   0.9993043477509654E+00
   0.9977967443809255E+00
   0.9987969980594408E+00
   0.9987175321238397E+00
   0.9780104291257429E+00
   0.9795698587523548E+00
   0.9637898421566210E+00
   0.9599288548996583E+00
   0.9865823599800334E+00
   0.9921847843187844E+00
   0.1000341740793900E+01
   0.1000540470197389E+01
   0.1000672445680320E+01
   0.9998320009302936E+00
   0.1009742277125788E+01
   0.1007075843619445E+01
   0.9445329136716976E+00
   0.9031883679423716E+00
   0.1007020049120409E+01
   0.1004204466918690E+01
   0.8963263484538668E+00
   0.8924644432646579E+00
   0.8470158322453841E+00
   0.9708136069265447E+00
   0.1000084620277536E+01
   0.1006090912776479E+01
   0.1015615766766548E+01
   0.1012917766868521E+01
   0.1012882988857658E+01
   0.1005125323848199E+01
   0.9862694343400147E+00
   0.1006604373321943E+01
   0.9849226275570926E+00
   0.1008160798357341E+01
   0.1001910649398587E+01
   0.1000781019669841E+01
   0.1001299340018191E+01
   0.1001841425398961E+01
   0.1002341947699923E+01
   0.1000279180737449E+01
   0.1000188340998849E+01
   0.9997695336175645E+00
   0.1001742065224806E+01
   0.1001919936492250E+01
   0.9986513035326836E+00
   0.9995291893356556E+00
   0.9999173802706581E+00
   0.1000195476578120E+01
   0.1000438389166135E+01
   0.1001059545628778E+01
   0.1001455920902138E+01
   0.1001325224759887E+01
   0.1001532757051362E+01
   0.1000861904615502E+01
   0.1001351223461643E+01
   0.1001109623108558E+01
   0.1000539044047212E+01
   0.1060293781283821E+01
   0.1020473082592681E+01
   0.1005927663310489E+01
   0.1003473871585216E+01
   0.1142180864878671E+01
   0.1083603186827300E+01
   0.1004373984273411E+01
   0.1003910149972523E+01
   0.1003792817222368E+01
   0.1006642291158224E+01
   0.1012290406395505E+01
   0.1193353157228869E+01
   0.1027982030050987E+01
   0.1034896014589675E+01
   0.1168960269148698E+01
   0.1009916641402412E+01
   0.1023538181501071E+01
   0.1017047822362931E+01
   0.1007880005636819E+01
   0.1014167767811856E+01
   0.1000108752687625E+01
   0.9441675583524751E+00
   0.1003511641428597E+01
   0.9988708197688623E+00
   0.1006459273468685E+01
   0.1009161605865895E+01
   0.9979472547957671E+00
   0.9977523782016353E+00
   0.9961553772012883E+00
   0.9984680785739876E+00
   0.9809396724640027E+00
   0.9780369726749487E+00
   0.9479395348042757E+00
   0.9505452939782499E+00
   0.9878129776600001E+00
   0.9899097235084593E+00
   0.9925449500647127E+00
   0.9998092598092343E+00
   0.9986253873914052E+00
   0.9946413675364293E+00
   0.1006842000517371E+01
   0.1021139432976017E+01
   0.9979987587114122E+00
   0.1004800060090808E+01
   0.1001439399980314E+01
   0.1004887519150307E+01
   0.9952170299646574E+00
   0.9849387898655750E+00
   0.1000227400909598E+01
   0.9938607749873266E+00
   0.9819042772201223E+00
   0.9943162772009407E+00
   0.9968742997792117E+00
   0.9937021713321113E+00
   0.9986959087209373E+00
   0.1000032869839581E+01
   0.9996633754467532E+00
   0.9958429947923656E+00
   0.9933664241379981E+00
   0.1001382433673394E+01
   0.1018313230210595E+01
   0.1002795502333152E+01
   0.9806267457700685E+00
   0.1001874115405612E+01
   0.1008214252840878E+01
   0.9700874902092087E+00
   0.9431491561977360E+00
   0.9846668272273907E+00
   0.9842469264923199E+00
   0.9754066308186670E+00
   0.9907875197188506E+00
   0.9774391229466878E+00
   0.1033916606875489E+01
   0.1021948940639926E+01
   0.1000030936440471E+01
   0.9991729251965394E+00
   0.9919133321494129E+00
   0.9906924277334817E+00
   0.9572797179696103E+00
   0.9929856557583564E+00
   0.1006251253061444E+01
   0.1002026055224482E+01
   0.9896510215116842E+00
   0.9651975056451386E+00
   0.9202300912456922E+00
   0.9722612463551643E+00
   0.9781735214548574E+00
   0.9559296815181129E+00
   0.9616922190401788E+00
   0.9489803079752296E+00
   0.9365305554005743E+00
   0.9301822355915347E+00
   0.9993117042270214E+00
   0.9994570490379074E+00
   0.9987948518645277E+00
   0.1002021355169954E+01
   0.9390086127599031E+00
   0.9238505619802753E+00
   0.9356685592797827E+00
   0.9984099364852634E+00
   0.9983353533075352E+00
   0.1000450245351536E+01
   0.9793722043936808E+00
   0.9713568984973938E+00
   0.9446673792393004E+00
SCALARS u double 1
LOOKUP_TABLE default
   0.0000000000000000E+00
   0.0000000000000000E+00
   0.0000000000000000E+00
   0.0000000000000000E+00
   0.0000000000000000E+00
   0.0000000000000000E+00
   0.0000000000000000E+00
   0.0000000000000000E+00
   0.0000000000000000E+00
   0.0000000000000000E+00
   0.0000000000000000E+00
   0.0000000000000000E+00
   0.0000000000000000E+00
   0.0000000000000000E+00
   0.0000000000000000E+00
   0.0000000000000000E+00
   0.0000000000000000E+00
   0.0000000000000000E+00
   0.0000000000000000E+00
   0.0000000000000000E+00
   0.0000000000000000E+00
   0.0000000000000000E+00
   0.0000000000000000E+00
   0.0000000000000000E+00
   0.0000000000000000E+00
   0.0000000000000000E+00
   0.0000000000000000E+00
   0.0000000000000000E+00
   0.0000000000000000E+00
   0.0000000000000000E+00
   0.0000000000000000E+00
   0.0000000000000000E+00
   0.0000000000000000E+00
   0.5047929054915368E+00
   0.5291701143312201E+00
   0.5145241523386972E+00
   0.4932180764419938E+00
   0.4880834372017644E+00
   0.4911716947845970E+00
   0.4931445386140314E+00
   0.4982220363237182E+00
   0.4935126090246054E+00
   0.4788318708926859E+00
   0.4523419379288169E+00
   0.4740735422576651E+00
   0.5098351790531815E+00
   0.4500828901483930E+00
   0.4980687550482354E+00
   0.5234863738173512E+00
   0.4995022509615984E+00
   0.5242312302229714E+00
   0.5063102215653708E+00
   0.5624076733607346E+00
   0.5248402046026278E+00
   0.5014802471789469E+00
   0.5725843814177578E+00
   0.5709259385520111E+00
   0.3684576624811601E+00
   0.4025764572703060E+00
   0.5559094080555799E+00
   0.5552217833001643E+00
   0.4941844215789414E+00
   0.4946255944013286E+00
   0.4922724897446400E+00
   0.4917288856609557E+00
   0.5126154984253307E+00
   0.5318524890069900E+00
   0.5048408405383136E+00
   0.4703373505829073E+00
   0.5096869370781206E+00
   0.5089820942421005E+00
   0.4952365306091088E+00
   0.5091887724660314E+00
   0.4862648520695412E+00
   0.5291950352648357E+00
   0.5274800496624595E+00
   0.5095339526971482E+00
   0.5264634379724686E+00
   0.5255255551649718E+00
   0.5249345941428903E+00
   0.5039127333270497E+00
   0.5286659727623826E+00
   0.5354669701918066E+00
   0.5369248059421747E+00
   0.5323896832790097E+00
   0.4987529395008976E+00
   0.4995655683131907E+00
   0.4985678082803691E+00
   0.4978572937117454E+00
   0.4945660707443332E+00
   0.4946835217514092E+00
   0.4895517710346103E+00
   0.4881800325397608E+00
   0.4965847191072426E+00
   0.4946166743561947E+00
   0.4861180987746747E+00
   0.4896995894941230E+00
   0.4900485952277785E+00
   0.4911865162492630E+00
   0.4926665602409723E+00
   0.4981839164212810E+00
   0.4946487728937192E+00
   0.4948708358965980E+00
   0.4976279083965130E+00
   0.4907740238694049E+00
   0.4935708938638326E+00
   0.4927548947280725E+00
   0.4920713884727454E+00
   0.4510868389041069E+00
   0.4773580874472882E+00
   0.4929695194381604E+00
   0.4921378782756337E+00
   0.4641002288349328E+00
   0.4734530025087340E+00
   0.4915432294797268E+00
   0.4906761087160693E+00
   0.4939912844711900E+00
   0.4854534347902728E+00
   0.4731583059309882E+00
   0.4016577348990876E+00
   0.4924195392000587E+00
   0.4585268851639811E+00
   0.4598476709811887E+00
   0.4894589888129774E+00
   0.4701566818466984E+00
   0.4743778811662128E+00
   0.4816559613523136E+00
   0.4810457487193570E+00
   0.5082080984475504E+00
   0.4446041979889239E+00
   0.4960951886638101E+00
   0.5313147349394287E+00
   0.4949412886585243E+00
   0.5217270982404958E+00
   0.5081102272687629E+00
   0.5662469586578067E+00
   0.5268454994119285E+00
   0.5035542143138082E+00
   0.5834438350941047E+00
   0.5718246486298396E+00
   0.3411247016028290E+00
   0.3855186823805331E+00
   0.5716303702825275E+00
   0.5643417479422925E+00
   0.5690296687797605E+00
   0.5291016395700802E+00
   0.5451151393810265E+00
   0.5701785196920958E+00
   0.5407582128491250E+00
   0.5488015353935056E+00
   0.5791064449548529E+00
   0.4955345360892239E+00
   0.5065531782164912E+00
   0.4994962386644859E+00
   0.5535725810826896E+00
   0.4600163335018416E+00
   0.4983856950662401E+00
   0.5491948318569354E+00
   0.5896067327236352E+00
   0.5824004037670355E+00
   0.5457918908616201E+00
   0.5786601915365469E+00
   0.5122204611582107E+00
   0.5055660286163242E+00
   0.5049404972799945E+00
   0.5645526245376650E+00
   0.5551709590256785E+00
   0.4977656832596385E+00
   0.5487063243849924E+00
   0.5484601119665361E+00
   0.5642517226363679E+00
   0.4955199310206360E+00
   0.4958333883352751E+00
   0.3908651527870713E+00
   0.3725868123648600E+00
   0.5585540929726455E+00
   0.5741421449621353E+00
   0.4178225229118351E+00
   0.5815128830514676E+00
   0.4184792556535362E+00
   0.5387779568361774E+00
   0.4989424355178620E+00
   0.5114107422245104E+00
   0.5070753475320597E+00
   0.5731982988123299E+00
   0.5855978138873041E+00
   0.5445612511417005E+00
   0.5655111436613097E+00
   0.5319819547200019E+00
   0.5310076926851677E+00
   0.5560282649962683E+00
   0.5553413470077806E+00
   0.4405969307462935E+00
   0.5283756032207039E+00
   0.5806205741338840E+00
   0.3397270719092857E+00
   0.4810706715681717E+00
   0.5509774513955993E+00
   0.4922018353654815E+00
   0.3107819157118530E+00
   0.5051410596820608E+00
   0.5043523769767073E+00
   0.5129575953451261E+00
   0.5386471450877400E+00
   0.3522137232110615E+00
   0.3560014204292322E+00
   0.3307776169317102E+00
   0.5084434505196671E+00
   0.5125446842236746E+00
   0.5315367354758234E+00
   0.5856162403571264E+00
   0.4639610641409111E+00
   0.3629044727321762E+00
SCALARS v double 1
LOOKUP_TABLE default
   0.0000000000000000E+00
   0.0000000000000000E+00
   0.0000000000000000E+00
   0.0000000000000000E+00
   0.0000000000000000E+00
   0.0000000000000000E+00
   0.0000000000000000E+00
   0.0000000000000000E+00
   0.0000000000000000E+00
   0.0000000000000000E+00
   0.0000000000000000E+00
   0.0000000000000000E+00
   0.0000000000000000E+00
   0.0000000000000000E+00
   0.0000000000000000E+00
   0.0000000000000000E+00
   0.0000000000000000E+00
   0.0000000000000000E+00
   0.0000000000000000E+00
   0.0000000000000000E+00
   0.0000000000000000E+00
   0.0000000000000000E+00
   0.0000000000000000E+00
   0.0000000000000000E+00
   0.0000000000000000E+00
   0.0000000000000000E+00
   0.0000000000000000E+00
   0.0000000000000000E+00
   0.0000000000000000E+00
   0.0000000000000000E+00
   0.0000000000000000E+00
   0.0000000000000000E+00
   0.0000000000000000E+00
   0.0000000000000000E+00
   0.0000000000000000E+00
   0.0000000000000000E+00
   0.0000000000000000E+00
   0.0000000000000000E+00
   0.0000000000000000E+00
   0.0000000000000000E+00
   0.0000000000000000E+00
   0.0000000000000000E+00
   0.0000000000000000E+00
   0.0000000000000000E+00
   0.0000000000000000E+00
   0.0000000000000000E+00
   0.0000000000000000E+00
   0.0000000000000000E+00
   0.0000000000000000E+00
   0.0000000000000000E+00
   0.0000000000000000E+00
   0.0000000000000000E+00
   0.0000000000000000E+00
   0.0000000000000000E+00
   0.0000000000000000E+00
   0.0000000000000000E+00
   0.0000000000000000E+00
   0.0000000000000000E+00
   0.0000000000000000E+00
   0.0000000000000000E+00
   0.0000000000000000E+00
   0.5973787434682199E-03
  -0.1453040967742885E-02
  -0.1410754788434359E-02
   0.0000000000000000E+00
   0.0000000000000000E+00
   0.0000000000000000E+00
   0.0000000000000000E+00
  -0.1862687807286745E-01
   0.2590455669034337E-03
   0.2184863476918657E-02
   0.1493479413455536E-01
  -0.5165910763403155E-02
  -0.6348482936542387E-02
  -0.1151148739026083E-01
   0.4678714766472075E-02
   0.5054346461880957E-03
   0.3138064684398972E-02
   0.1498677813141248E-02
   0.3450179415993559E-02
   0.1670617018738413E-02
  -0.6418270776498540E-02
   0.7426979102924455E-03
   0.4730575287419917E-02
   0.5432742065698879E-03
   0.7211866472708043E-04
  -0.1710423369959995E-03
   0.6076416992958362E-03
   0.0000000000000000E+00
   0.0000000000000000E+00
   0.0000000000000000E+00
   0.0000000000000000E+00
   0.8932586114927450E-04
   0.1417875476759291E-02
  -0.1128796520577556E-02
  -0.9280332348981933E-03
  -0.2135246451730818E-02
  -0.1265025500094741E-02
  -0.9477274723958290E-03
  -0.6551003603108120E-03
  -0.3215631593319118E-04
  -0.5534887706419269E-03
   0.7175529651658400E-03
  -0.1583357814704648E-02
   0.7445971011302853E-04
  -0.1440819568293946E-03
  -0.9131632992893629E-03
  -0.9197559508298787E-03
   0.0000000000000000E+00
   0.0000000000000000E+00
   0.0000000000000000E+00
  -0.1114202457215446E-02
  -0.8501209519790495E-02
   0.1598695245480708E-01
   0.2135326243117250E-03
  -0.1060651873747493E-02
  -0.1681468572405793E-02
  -0.5324889519687210E-02
  -0.1198151737928847E-02
  -0.3589099859183566E-02
  -0.2889280501918120E-02
   0.2194673626076086E-02
   0.2886836557712585E-01
  -0.1843347387377117E-03
  -0.4269945786156736E-02
   0.2463630752580588E-02
   0.9342555082569576E-03
   0.0000000000000000E+00
   0.0000000000000000E+00
   0.0000000000000000E+00
   0.0000000000000000E+00
   0.0000000000000000E+00
   0.0000000000000000E+00
   0.0000000000000000E+00
   0.0000000000000000E+00
   0.0000000000000000E+00
   0.0000000000000000E+00
   0.0000000000000000E+00
   0.0000000000000000E+00
   0.0000000000000000E+00
   0.0000000000000000E+00
   0.0000000000000000E+00
   0.0000000000000000E+00
   0.0000000000000000E+00
   0.4720880979926395E-02
   0.2800732200601324E-02
   0.6931772531185008E-02
   0.5693218551259364E-02
   0.8743812937155388E-02
   0.1260041052661530E-01
   0.5564566944353583E-03
   0.4345743814996535E-02
   0.2401796131958455E-02
   0.2335596629998892E-02
   0.3192159852976599E-02
  -0.1060505378276925E-01
  -0.4824285020145398E-03
   0.6062051707052279E-02
   0.2666151758761827E-02
   0.2278078824018000E-02
   0.3852490963978659E-02
  -0.2022236516050069E-02
   0.8975298201679302E-03
   0.2354718011479743E-02
   0.1133534745790546E-02
   0.2687940112775655E-02
   0.1770981332573935E-02
   0.1778502410302618E-02
   0.8115691883519131E-02
  -0.3275629804321114E-02
   0.5538589511523408E-02
   0.5298831868246415E-04
   0.1499974759068688E-04
  -0.1332819385749811E-01
  -0.3243049323782943E-02
  -0.3473213233263978E-02
   0.3723250755244192E-02
  -0.4046181740039542E-02
   0.9481901789581748E-03
  -0.2602190051615516E-01
  -0.2947929516790565E-02
   0.4204246012633457E-02
   0.6903083239766515E-03
   0.1814502563004615E-02
   0.4398457425596221E-02
   0.2321179559869738E-02
   0.3328572118971389E-02
   0.5031518474160873E-02
   0.1842702993085357E-02
   0.5722419386811649E-03
  -0.2970030164255139E-03
  -0.4695990606181435E-02
  -0.5525944688861751E-02
   0.4723562679570162E-03
   0.9679768058081717E-03
  -0.7304175412053936E-03
  -0.3860172484163427E-02
  -0.1246753835501840E-02
  -0.3692908650072354E-02
  -0.6963419279571395E-02
  -0.1674636542052214E-02
   0.5263387598019507E-03
  -0.3688018905206476E-03
   0.1105397137321795E-02
  -0.1829338058017581E-02
   0.7320301644994530E-02
  -0.9620678442657441E-02
  -0.1164892590248042E-04
  -0.4079878822110149E-03
   0.2399172709062847E-02
   0.1168413789561059E-02
   0.1278392619121545E-02
  -0.3842457213525148E-02
SCALARS w double 1
LOOKUP_TABLE default
   0.0000000000000000E+00
   0.0000000000000000E+00
   0.0000000000000000E+00
   0.0000000000000000E+00
   0.0000000000000000E+00
   0.0000000000000000E+00
   0.0000000000000000E+00
   0.0000000000000000E+00
   0.0000000000000000E+00
   0.0000000000000000E+00
   0.0000000000000000E+00
   0.0000000000000000E+00
   0.0000000000000000E+00
   0.0000000000000000E+00
   0.0000000000000000E+00
   0.0000000000000000E+00
   0.0000000000000000E+00
   0.0000000000000000E+00
   0.0000000000000000E+00
   0.0000000000000000E+00
   0.0000000000000000E+00
   0.0000000000000000E+00
   0.0000000000000000E+00
   0.0000000000000000E+00
   0.0000000000000000E+00
   0.0000000000000000E+00
   0.0000000000000000E+00
   0.0000000000000000E+00
   0.0000000000000000E+00
   0.0000000000000000E+00
   0.0000000000000000E+00
   0.0000000000000000E+00
   0.0000000000000000E+00
  -0.1144975452837804E+00
  -0.5030761741415200E-01
  -0.2192909266728995E-02
   0.5089386427108064E-02
  -0.6917867184430020E-03
  -0.6003808559057355E-03
   0.5817874846259821E-03
   0.1149204615537956E-02
   0.2335064853325129E-03
   0.3430510866488747E-02
   0.3874613010276787E-01
   0.5321491022997803E-01
  -0.1473829435814630E-02
  -0.2786380779059322E-01
   0.2114557182370809E-02
   0.1071746821753294E-01
   0.8121938328851946E-02
   0.4420194979208441E-01
  -0.3684171323912326E-03
  -0.1057521800258115E-01
  -0.3659677957581394E-02
  -0.2078616465375529E-02
   0.5026608301028397E-03
  -0.4609594151818950E-01
   0.1604944469901116E-01
   0.1236647014084870E-01
   0.2998352690976836E-01
   0.5092695919100249E-02
   0.4334692879580510E-02
   0.4379604464852663E-02
   0.3993560744968759E-02
   0.5439383760515447E-02
  -0.2606457078532720E-03
  -0.4852190661786005E-01
  -0.1125343596186828E+00
  -0.1281342176900492E+00
   0.2718470815329971E-02
   0.1946434783633801E-02
  -0.1153299900536046E+00
  -0.1133410911755904E+00
  -0.1137208719029942E+00
  -0.1074826965297158E+00
  -0.7766769936318701E-01
   0.2988783787297948E-02
  -0.2459653145476550E-01
  -0.2053690404068673E-01
  -0.9963889861621479E-02
   0.5237955382680043E-02
  -0.9138920463398213E-01
  -0.3410129587250490E-01
  -0.9191487289032164E-01
  -0.6787035062636208E-01
   0.1816194994645458E-02
   0.1561602767128416E-02
   0.1425838678489187E-02
   0.2114538778000041E-02
   0.1365276838400849E-02
  -0.1246142989504744E-02
  -0.1484790599679566E-02
   0.1125069089237737E-02
   0.2221271761484630E-02
   0.1197350269989670E-02
  -0.7717397723498116E-04
   0.1826055318064301E-03
   0.8242364377191530E-03
  -0.1578025957534250E-02
  -0.1947502584344473E-02
   0.1967964387283722E-02
  -0.4240316231658801E-04
  -0.4343079018814811E-03
   0.2232605747888377E-02
  -0.1069028641981972E-02
  -0.1979181585272247E-03
  -0.4900813900076482E-03
  -0.1811372832172869E-02
   0.6874631476840490E-01
   0.2311554012374118E-02
  -0.1097204536358696E-02
  -0.8082496806011544E-03
   0.1154872789764316E+00
   0.1041618803912375E+00
  -0.1760367827024891E-02
  -0.4417406070547582E-02
  -0.7678068221121458E-03
  -0.7114754572985691E-02
  -0.2685190577055787E-02
   0.1267472868873906E+00
   0.6334450955858370E-01
   0.2227099906783040E-01
   0.1349682382280135E+00