title="tecplot geometry and solution file"
variables = x y z rho u v w p mach temperature
zone t="boundary 1 bc-1", solutiontime= 0.4000000E+02, strandid=1001, i=32, j=46, f=feblock
  0.000000000000E+00  0.000000000000E+00  0.000000000000E+00  0.000000000000E+00  0.000000000000E+00  0.000000000000E+00  0.000000000000E+00
  0.000000000000E+00  0.000000000000E+00  0.000000000000E+00  0.000000000000E+00  0.000000000000E+00  0.000000000000E+00  0.000000000000E+00
  0.000000000000E+00  0.000000000000E+00  0.000000000000E+00  0.000000000000E+00  0.000000000000E+00  0.000000000000E+00  0.000000000000E+00
  0.000000000000E+00  0.000000000000E+00  0.000000000000E+00  0.000000000000E+00  0.000000000000E+00  0.000000000000E+00  0.000000000000E+00
  0.000000000000E+00  0.000000000000E+00  0.000000000000E+00  0.000000000000E+00
  0.250000000000E+01  0.250000000000E+01  0.125000000000E+01  0.146289271009E+01  0.157686156160E+01  0.308372018325E+00  0.000000000000E+00
 -0.125000000000E+01 -0.600232012419E+00  0.250000000000E+01  0.477386199275E+00  0.742988685424E+00 -0.739814786992E+00  0.177790177481E+01
  0.155830813274E+01  0.250000000000E+01 -0.250000000000E+01 -0.154800130438E+01 -0.487811078581E+00  0.250000000000E+01  0.627766083140E+00
 -0.345533899378E+00 -0.178862290564E+01 -0.158811787973E+01  0.125000000000E+01 -0.250000000000E+01 -0.144524380962E+01  0.000000000000E+00
 -0.125000000000E+01 -0.250000000000E+01 -0.250000000000E+01 -0.250000000000E+01
  0.000000000000E+00  0.125000000000E+01  0.000000000000E+00  0.103724302461E+01  0.219251206392E+01  0.922061490191E+00  0.000000000000E+00
  0.000000000000E+00  0.715990576545E+00  0.250000000000E+01  0.202479342020E+01  0.324151231464E+01  0.175434191980E+01  0.310152362409E+01
  0.404200324774E+01  0.375000000000E+01  0.000000000000E+00  0.930412228790E+00  0.299062775774E+01  0.500000000000E+01  0.429310310915E+01
  0.409252726285E+01  0.187029682677E+01  0.284428995242E+01  0.500000000000E+01  0.125000000000E+01  0.394624082883E+01  0.500000000000E+01
  0.500000000000E+01  0.250000000000E+01  0.375000000000E+01  0.500000000000E+01
  0.121818458214E+01  0.105826237323E+01  0.128618966483E+01  0.108360317846E+01  0.102353817992E+01  0.116896027250E+01  0.145483167856E+01
  0.134702292778E+01  0.119335315777E+01  0.101663544242E+01  0.101704781906E+01  0.100664228894E+01  0.102798203388E+01  0.100991663848E+01
  0.100347386819E+01  0.100492021531E+01  0.130112135015E+01  0.114218084812E+01  0.100788000091E+01  0.100195491560E+01  0.100379281806E+01
  0.100391014896E+01  0.103489600851E+01  0.101229039960E+01  0.100191064692E+01  0.106029380221E+01  0.100437398199E+01  0.100078102128E+01
  0.100129933773E+01  0.102047307606E+01  0.100592766144E+01  0.100184143277E+01
  0.000000000000E+00  0.452341943427E+00  0.000000000000E+00  0.473453009991E+00  0.470156683562E+00  0.459847665761E+00  0.000000000000E+00
  0.000000000000E+00  0.401657734440E+00  0.478831872817E+00  0.474377887535E+00  0.485453437212E+00  0.492419530552E+00  0.489458992649E+00
  0.492137870681E+00  0.493512619805E+00  0.000000000000E+00  0.464100262784E+00  0.481655967037E+00  0.498222028859E+00  0.493991279683E+00
  0.490676112716E+00  0.458526890788E+00  0.473158318668E+00  0.498752949085E+00  0.451086796323E+00  0.491543227906E+00  0.499565571652E+00
  0.498567806988E+00  0.477358096146E+00  0.492969521610E+00  0.497857301552E+00
  0.000000000000E+00  0.000000000000E+00  0.000000000000E+00  0.159869561783E-01 -0.426994464987E-02  0.288683654147E-01  0.000000000000E+00
  0.000000000000E+00 -0.358910314644E-02  0.000000000000E+00  0.246363134068E-02 -0.532488736736E-02 -0.288928401181E-02 -0.184333338442E-03
 -0.111420826221E-02  0.000000000000E+00  0.000000000000E+00 -0.850120679049E-02  0.934255841612E-03  0.000000000000E+00 -0.168147498933E-02
 -0.106065622373E-02  0.219467485835E-02 -0.119815536483E-02  0.721163438215E-04  0.000000000000E+00  0.213534706487E-03 -0.171041351047E-03
  0.607644798787E-03  0.000000000000E+00  0.000000000000E+00  0.000000000000E+00
  0.000000000000E+00  0.387461308513E-01  0.000000000000E+00  0.104161879322E+00  0.226226985383E-01  0.134968239113E+00  0.000000000000E+00
  0.000000000000E+00  0.126747286744E+00  0.343050953216E-02  0.214216663332E-01 -0.711475532210E-02  0.633445082093E-01  0.293264116906E-02
 -0.808246354988E-03  0.233504362489E-03  0.000000000000E+00  0.115487277777E+00 -0.830702271862E-02  0.114920202088E-02 -0.767808137243E-03
 -0.441741145775E-02  0.222710010374E-01 -0.268518827058E-02  0.181619420292E-02  0.687462985766E-01 -0.176036381830E-02  0.156159932840E-02
  0.142584174200E-02  0.231155325668E-02 -0.109720720956E-02  0.211452782821E-02
  0.907048412047E+00  0.774824690217E+00  0.957684336328E+00  0.800788121065E+00  0.737959850409E+00  0.857553598476E+00  0.108325354235E+01
  0.100298019327E+01  0.887423991823E+00  0.730590463894E+00  0.733249044043E+00  0.720273410787E+00  0.748091269438E+00  0.724261287736E+00
  0.717584112363E+00  0.719253630131E+00  0.968802324246E+00  0.841059003342E+00  0.722231938077E+00  0.716331140605E+00  0.717951591030E+00
  0.717915447534E+00  0.749258871424E+00  0.726447011513E+00  0.716258692580E+00  0.782240673398E+00  0.718599218557E+00  0.715135354384E+00
  0.715577483126E+00  0.734200043609E+00  0.720291037992E+00  0.716211587982E+00
  0.000000000000E+00  0.448420235898E+00  0.000000000000E+00  0.476858086329E+00  0.468526648342E+00  0.473750638941E+00  0.000000000000E+00
  0.000000000000E+00  0.412800192859E+00  0.477392730996E+00  0.472665115578E+00  0.485115569337E+00  0.491878721545E+00  0.488489516456E+00
  0.491859533004E+00  0.493013774716E+00  0.000000000000E+00  0.471104119868E+00  0.480954944806E+00  0.497997586334E+00  0.493665487031E+00
  0.490411092407E+00  0.455984245077E+00  0.472064602195E+00  0.498544449917E+00  0.448977772072E+00  0.491139520584E+00  0.499466121972E+00
  0.498443508474E+00  0.475640622818E+00  0.492364233216E+00  0.497649535184E+00
  0.104242640687E+01  0.102503367194E+01  0.104242640687E+01  0.103460694078E+01  0.100938471163E+01  0.102704520086E+01  0.104242640687E+01
  0.104242640687E+01  0.104109465037E+01  0.100608989887E+01  0.100934158888E+01  0.100172900163E+01  0.101881914537E+01  0.100400940454E+01
  0.100113992916E+01  0.100202490391E+01  0.104242640687E+01  0.103090732665E+01  0.100321934397E+01  0.100090690832E+01  0.100133434844E+01
  0.100116691477E+01  0.101359210140E+01  0.100467792297E+01  0.100084989884E+01  0.103286177895E+01  0.100165767336E+01  0.100040815608E+01
  0.100050847797E+01  0.100725838356E+01  0.100246517900E+01  0.100085321926E+01
        12        19        11        11
        11         5        12        12
        10        14         5         5
        19        13        11        11
        19        24        13        13
        30        23        24        24
        19        12        22        22
        28        22        21        21
        11        13         6         6
         7         6         9         9
        15        12        14        14
        18        13        23        23
        15        25        21        21
        27        19        22        22
        18         8         9         9
        27        31        24        24
         4        11         6         6
         5        14        12        12
         4         2         5         5
        21        12        15        15
        14        16        15        15
        24        19        27        27
        22        29        27        27
        23        26        18        18
        17         8        18        18
         5        11         4         4
         6         3         4         4
        26        23        30        30
         5         2        10        10
        16        14        10        10
         3         6         7         7
        21        25        28        28
        29        22        28        28
         6        13         9         9
         2         4         1         1
        31        27        32        32
        25        15        20        20
        24        23        13        13
         8         7         9         9
        13        18         9         9
        31        30        24        24
        12        21        22        22
        29        32        27        27
         3         1         4         4
        26        17        18        18
        16        20        15        15
zone t="boundary 2 bc-2", solutiontime= 0.4000000E+02, strandid=1002, i=33, j=48, f=feblock
  0.500000000000E+01  0.375000000000E+01  0.250000000000E+01  0.288078410721E+01  0.125000000000E+01  0.190974100652E+01  0.326683758169E+01
  0.201431602454E+01  0.000000000000E+00  0.963108083381E+00  0.500000000000E+01  0.403552511878E+01  0.423153924130E+01  0.500000000000E+01
  0.385533350601E+01  0.500000000000E+01  0.398173246726E+01  0.315249557942E+01  0.267000324704E+01  0.154774304040E+01  0.218329375016E+01
  0.893127759452E+00  0.000000000000E+00  0.698517061619E+00  0.964171764089E+00  0.310324758057E+01  0.000000000000E+00  0.000000000000E+00
  0.125000000000E+01  0.500000000000E+01  0.375000000000E+01  0.250000000000E+01  0.000000000000E+00
 -0.250000000000E+01 -0.250000000000E+01 -0.250000000000E+01 -0.250000000000E+01 -0.250000000000E+01 -0.250000000000E+01 -0.250000000000E+01
 -0.250000000000E+01 -0.250000000000E+01 -0.250000000000E+01 -0.250000000000E+01 -0.250000000000E+01 -0.250000000000E+01 -0.250000000000E+01
 -0.250000000000E+01 -0.250000000000E+01 -0.250000000000E+01 -0.250000000000E+01 -0.250000000000E+01 -0.250000000000E+01 -0.250000000000E+01
 -0.250000000000E+01 -0.250000000000E+01 -0.250000000000E+01 -0.250000000000E+01 -0.250000000000E+01 -0.250000000000E+01 -0.250000000000E+01
 -0.250000000000E+01 -0.250000000000E+01 -0.250000000000E+01 -0.250000000000E+01 -0.250000000000E+01
  0.000000000000E+00  0.000000000000E+00  0.000000000000E+00  0.904659890645E+00  0.000000000000E+00  0.717002441913E+00  0.188609243358E+01
  0.176246431481E+01  0.000000000000E+00  0.961328577125E+00  0.125000000000E+01  0.101201586758E+01  0.191586535653E+01  0.250000000000E+01
  0.293121848150E+01  0.375000000000E+01  0.406975391361E+01  0.363585050272E+01  0.285047954584E+01  0.292817774674E+01  0.395907379566E+01
  0.205246550326E+01  0.125000000000E+01  0.306828197606E+01  0.397245519226E+01  0.433168271247E+01  0.250000000000E+01  0.375000000000E+01
  0.500000000000E+01  0.500000000000E+01  0.500000000000E+01  0.500000000000E+01  0.500000000000E+01
  0.768442117063E+00  0.889467851098E+00  0.898590063542E+00  0.950545296631E+00  0.925002311788E+00  0.947939541958E+00  0.980939673692E+00
  0.987812979870E+00  0.130112135015E+01  0.101416776567E+01  0.944532929813E+00  0.944167589044E+00  0.978036974423E+00  0.100707582863E+01
  0.997752370106E+00  0.100974230695E+01  0.100010877912E+01  0.996155370973E+00  0.989909726357E+00  0.998870818308E+00  0.997947253370E+00
  0.100916160585E+01  0.106029380221E+01  0.100645926813E+01  0.100351163879E+01  0.998468074883E+00  0.102047307606E+01  0.100592766144E+01
  0.100234194711E+01  0.999831925068E+00  0.100018830559E+01  0.100027919436E+01  0.100184143277E+01
  0.000000000000E+00  0.000000000000E+00  0.000000000000E+00  0.385518687870E+00  0.000000000000E+00  0.341124710299E+00  0.583443829192E+00
  0.571630366668E+00  0.000000000000E+00  0.481045750000E+00  0.504840816840E+00  0.444604206962E+00  0.571824630859E+00  0.531852494090E+00
  0.566246957463E+00  0.512615535568E+00  0.508208204670E+00  0.526845534311E+00  0.564341744564E+00  0.531314738488E+00  0.508110255312E+00
  0.521727093778E+00  0.451086796323E+00  0.494941295198E+00  0.496095193193E+00  0.503554240981E+00  0.477358096146E+00  0.492969521610E+00
  0.494566052876E+00  0.491728895460E+00  0.489551681985E+00  0.494683486179E+00  0.497857301552E+00
  0.000000000000E+00  0.000000000000E+00  0.000000000000E+00  0.000000000000E+00  0.000000000000E+00  0.000000000000E+00  0.000000000000E+00
  0.000000000000E+00  0.000000000000E+00  0.000000000000E+00  0.000000000000E+00  0.000000000000E+00  0.000000000000E+00  0.000000000000E+00
  0.000000000000E+00  0.000000000000E+00  0.000000000000E+00  0.000000000000E+00  0.000000000000E+00  0.000000000000E+00  0.000000000000E+00
  0.000000000000E+00  0.000000000000E+00  0.000000000000E+00  0.000000000000E+00  0.000000000000E+00  0.000000000000E+00  0.000000000000E+00
  0.000000000000E+00  0.000000000000E+00  0.000000000000E+00  0.000000000000E+00  0.000000000000E+00
  0.000000000000E+00  0.000000000000E+00  0.000000000000E+00 -0.140743622726E-02  0.000000000000E+00  0.169934554746E-01  0.874805141959E-02
  0.405145495916E-01  0.000000000000E+00  0.733793411108E-01 -0.112534351579E+00 -0.264965658756E-01 -0.370100550624E-01 -0.485219128664E-01
 -0.592668387424E-02 -0.260613339941E-03 -0.197468899444E-02 -0.318101016529E-02  0.106499731996E-01  0.235537368754E-01  0.229398631326E-02
  0.486703106594E-01  0.687462985766E-01  0.868802621873E-02  0.441878009090E-02 -0.352483876668E-02  0.231155325668E-02 -0.109720720956E-02
  0.136527072891E-02  0.543940775272E-02 -0.148482356438E-02 -0.124613674530E-02  0.211452782821E-02
  0.572174539270E+00  0.662289125749E+00  0.669081436563E+00  0.681339713685E+00  0.688747740160E+00  0.681122406120E+00  0.692965972245E+00
  0.700131053134E+00  0.968802324246E+00  0.722361566586E+00  0.666533501104E+00  0.671308993845E+00  0.691197116420E+00  0.719956098996E+00
  0.710687893957E+00  0.723729969837E+00  0.714736576766E+00  0.710879169122E+00  0.704008078008E+00  0.714162013475E+00  0.712427511029E+00
  0.725843816151E+00  0.782240673398E+00  0.720452134687E+00  0.717726524504E+00  0.712823268416E+00  0.734200043609E+00  0.720291037992E+00
  0.716514246822E+00  0.714352737113E+00  0.714318619987E+00  0.714480022818E+00  0.716211587982E+00
  0.000000000000E+00  0.000000000000E+00  0.000000000000E+00  0.384847675941E+00  0.000000000000E+00  0.340537630543E+00  0.586744517997E+00
  0.575290283398E+00  0.000000000000E+00  0.487298221218E+00  0.520377309362E+00  0.446419060505E+00  0.576080606715E+00  0.533832676134E+00
  0.567071180183E+00  0.511734621415E+00  0.508079355301E+00  0.527099795518E+00  0.565671700927E+00  0.531582240238E+00  0.508255189170E+00
  0.522179333117E+00  0.448977772072E+00  0.494483844958E+00  0.495792481980E+00  0.503696621178E+00  0.475640622818E+00  0.492364233216E+00
  0.494376111942E+00  0.491694583659E+00  0.489588747383E+00  0.494686826808E+00  0.497649535184E+00
  0.104242640687E+01  0.104242640687E+01  0.104242640687E+01  0.100350357057E+01  0.104242640687E+01  0.100594112426E+01  0.989003082617E+00
  0.992276366440E+00  0.104242640687E+01  0.997178403270E+00  0.987945334770E+00  0.995408656565E+00  0.989406319284E+00  0.100085664847E+01
  0.997204397956E+00  0.100344607807E+01  0.100052237153E+01  0.999071897589E+00  0.995657768550E+00  0.100095708128E+01  0.999450133334E+00
  0.100695600855E+01  0.103286177895E+01  0.100215976990E+01  0.100130092713E+01  0.999483709982E+00  0.100725838356E+01  0.100246517900E+01
  0.100077618067E+01  0.100026195092E+01  0.999857789172E+00  0.999992839582E+00  0.100085321926E+01
        15         7        19        19
         8        20        19        19
        18        19        21        21
         7         4         8         8
         3         6         4         4
        19         7         8         8
        19        18        15        15
        14        13        15        15
         8        22        20        20
        27        24        22        22
        19        20        21        21
        32        26        21        21
        17        18        26        26
        17        16        15        15
        25        29        21        21
        12         7        13        13
        10         8         6         6
        25        20        24        24
         4         6         8         8
        12         2         4         4
        10        23        22        22
        26        31        17        17
        30        16        17        17
         4         7        12        12
        13        11        12        12
        21        20        25        25
        24        28        25        25
        22         8        10        10
         6         5        10        10
        31        26        32        32
         4         2         3         3
         5         6         3         3
        11        13        14        14
        22        23        27        27
        28        24        27        27
        15        13         7         7
         2        12         1         1
        29        25        33        33
        23        10         9         9
        21        26        18        18
        16        14        15        15
        18        17        15        15
        29        32        21        21
        22        24        20        20
        28        33        25        25
        11         1        12        12
        31        30        17        17
         5         9        10        10
zone t="boundary 3 bc-3", solutiontime= 0.4000000E+02, strandid=1003, i=33, j=48, f=feblock
  0.375000000000E+01  0.250000000000E+01  0.500000000000E+01  0.403552511878E+01  0.288078410721E+01  0.125000000000E+01  0.190974100652E+01
  0.500000000000E+01  0.326683758169E+01  0.423153924130E+01  0.201431602454E+01  0.000000000000E+00  0.963108083381E+00  0.500000000000E+01
  0.267000324704E+01  0.385533350601E+01  0.893127759452E+00  0.154774304040E+01  0.000000000000E+00  0.500000000000E+01  0.315249557942E+01
  0.218329375016E+01  0.398173246726E+01  0.000000000000E+00  0.698517061619E+00  0.964171764089E+00  0.125000000000E+01  0.000000000000E+00
  0.500000000000E+01  0.310324758057E+01  0.250000000000E+01  0.375000000000E+01  0.000000000000E+00
  0.250000000000E+01  0.250000000000E+01  0.250000000000E+01  0.250000000000E+01  0.250000000000E+01  0.250000000000E+01  0.250000000000E+01
  0.250000000000E+01  0.250000000000E+01  0.250000000000E+01  0.250000000000E+01  0.250000000000E+01  0.250000000000E+01  0.250000000000E+01
  0.250000000000E+01  0.250000000000E+01  0.250000000000E+01  0.250000000000E+01  0.250000000000E+01  0.250000000000E+01  0.250000000000E+01
  0.250000000000E+01  0.250000000000E+01  0.250000000000E+01  0.250000000000E+01  0.250000000000E+01  0.250000000000E+01  0.250000000000E+01
  0.250000000000E+01  0.250000000000E+01  0.250000000000E+01  0.250000000000E+01  0.250000000000E+01
  0.000000000000E+00  0.000000000000E+00  0.000000000000E+00  0.101201586758E+01  0.904659890645E+00  0.000000000000E+00  0.717002441913E+00
  0.125000000000E+01  0.188609243358E+01  0.191586535653E+01  0.176246431481E+01  0.000000000000E+00  0.961328577125E+00  0.250000000000E+01
  0.285047954584E+01  0.293121848150E+01  0.205246550326E+01  0.292817774674E+01  0.125000000000E+01  0.375000000000E+01  0.363585050272E+01
  0.395907379566E+01  0.406975391361E+01  0.250000000000E+01  0.306828197606E+01  0.397245519226E+01  0.500000000000E+01  0.375000000000E+01
  0.500000000000E+01  0.433168271247E+01  0.500000000000E+01  0.500000000000E+01  0.500000000000E+01
  0.896390749547E+00  0.910576111164E+00  0.782148819534E+00  0.945489715947E+00  0.959928946102E+00  0.921951478102E+00  0.963789828950E+00
  0.950589088668E+00  0.978010410308E+00  0.979569881788E+00  0.986582345135E+00  0.121818458214E+01  0.100508195529E+01  0.100847443164E+01
  0.992184782612E+00  0.997796726359E+00  0.100539756991E+01  0.998258571712E+00  0.105826237323E+01  0.100700178440E+01  0.998796992246E+00
  0.999304343799E+00  0.100000896413E+01  0.101663544242E+01  0.100452209755E+01  0.100205619247E+01  0.100248347634E+01  0.100492021531E+01
  0.100014693734E+01  0.998717526982E+00  0.100101726444E+01  0.100049052770E+01  0.100195491560E+01
  0.000000000000E+00  0.000000000000E+00  0.000000000000E+00  0.450082865756E+00  0.402576471699E+00  0.000000000000E+00  0.368457666783E+00
  0.504792649848E+00  0.572584378529E+00  0.570925899715E+00  0.555909414872E+00  0.000000000000E+00  0.474073545755E+00  0.529170137790E+00
  0.555221785282E+00  0.562407659542E+00  0.524231233115E+00  0.523486374328E+00  0.452341943427E+00  0.514524146181E+00  0.524840214560E+00
  0.506310226913E+00  0.509835249301E+00  0.478831872817E+00  0.499502256171E+00  0.498068751193E+00  0.493144569324E+00  0.493512619805E+00
  0.493218164768E+00  0.501480280152E+00  0.491171746535E+00  0.488083567762E+00  0.498222028859E+00
  0.000000000000E+00  0.000000000000E+00  0.000000000000E+00  0.000000000000E+00  0.000000000000E+00  0.000000000000E+00  0.000000000000E+00
  0.000000000000E+00  0.000000000000E+00  0.000000000000E+00  0.000000000000E+00  0.000000000000E+00  0.000000000000E+00  0.000000000000E+00
  0.000000000000E+00  0.000000000000E+00  0.000000000000E+00  0.000000000000E+00  0.000000000000E+00  0.000000000000E+00  0.000000000000E+00
  0.000000000000E+00  0.000000000000E+00  0.000000000000E+00  0.000000000000E+00  0.000000000000E+00  0.000000000000E+00  0.000000000000E+00
  0.000000000000E+00  0.000000000000E+00  0.000000000000E+00  0.000000000000E+00  0.000000000000E+00
  0.000000000000E+00  0.000000000000E+00  0.000000000000E+00 -0.278638289824E-01  0.123664604760E-01  0.000000000000E+00  0.160494445821E-01
 -0.114497475457E+00  0.502661478944E-03 -0.460959175192E-01  0.299835262619E-01  0.000000000000E+00  0.532149113573E-01 -0.503075836560E-01
  0.509270096308E-02 -0.105752108054E-01  0.442019502859E-01  0.107174690881E-01  0.387461308513E-01 -0.219289697147E-02 -0.365966144636E-02
 -0.368422290671E-03 -0.147382680627E-02  0.343050953216E-02  0.812193851212E-02  0.211455643059E-02  0.581765347547E-03  0.233504362489E-03
  0.508945024388E-02 -0.207860319271E-02 -0.600377235755E-03 -0.691839239958E-03  0.114920202088E-02
  0.667443848716E+00  0.678006131245E+00  0.582380416847E+00  0.670461781275E+00  0.688046187870E+00  0.686476119019E+00  0.690469823192E+00
  0.670568123453E+00  0.691845095001E+00  0.692559450855E+00  0.700775485301E+00  0.907048412047E+00  0.717427431111E+00  0.721488321681E+00
  0.706656270980E+00  0.711391328980E+00  0.721333707147E+00  0.713300717170E+00  0.774824690217E+00  0.721234186524E+00  0.713528056233E+00
  0.713571123238E+00  0.714557781606E+00  0.730590463894E+00  0.718646070012E+00  0.716255035429E+00  0.716755985847E+00  0.719253630131E+00
  0.714567728302E+00  0.713126950089E+00  0.715142501322E+00  0.714650802877E+00  0.716331140605E+00
  0.000000000000E+00  0.000000000000E+00  0.000000000000E+00  0.452585366131E+00  0.402068384762E+00  0.000000000000E+00  0.368259542576E+00
  0.520856151870E+00  0.575364351671E+00  0.575726005949E+00  0.558274787469E+00  0.000000000000E+00  0.477213194897E+00  0.531132506121E+00
  0.556048816874E+00  0.563028949681E+00  0.524925917353E+00  0.523501049844E+00  0.448420235898E+00  0.513833783899E+00  0.524815592922E+00
  0.506387586756E+00  0.509742594910E+00  0.477392730996E+00  0.499175268504E+00  0.497899150234E+00  0.492905298307E+00  0.493013774716E+00
  0.493183309801E+00  0.501569920599E+00  0.491127410084E+00  0.488079034260E+00  0.497997586334E+00
  0.104242640687E+01  0.104242640687E+01  0.104242640687E+01  0.992762245801E+00  0.100347496232E+01  0.104242640687E+01  0.100297567315E+01
  0.987593255619E+00  0.990360759755E+00  0.989805065696E+00  0.994428578881E+00  0.104242640687E+01  0.999319904477E+00  0.100159569610E+01
  0.997111421893E+00  0.998147051661E+00  0.100444562453E+01  0.100036306458E+01  0.102503367194E+01  0.100270712205E+01  0.100014245786E+01
  0.999695016570E+00  0.100037192678E+01  0.100608989887E+01  0.100157527691E+01  0.100069941899E+01  0.100097248869E+01  0.100202490391E+01
  0.100024784586E+01  0.999659766803E+00  0.100018205222E+01  0.100002058623E+01  0.100090690832E+01
        15         9        16        16
        15        18        11        11
        22        15        21        21
        11         5         9         9
         5         7         2         2
        11         9        15        15
        16        21        15        15
        16        10        14        14
        18        17        11        11
        17        25        24        24
        22        18        15        15
        22        30        31        31
        30        21        23        23
        16        20        23        23
        22        27        26        26
        10         9         4         4
         7        11        13        13
        25        18        26        26
        11         7         5         5
         5         1         4         4
        17        19        13        13
        23        32        30        30
        23        20        29        29
         4         9         5         5
         4         8        10        10
        26        18        22        22
        26        28        25        25
        13        11        17        17
        13         6         7         7
        31        30        32        32
         2         1         5         5
         2         7         6         6
        14        10         8         8
        24        19        17        17
        24        25        28        28
         9        10        16        16
         3         4         1         1
        33        26        27        27
        12        13        19        19
        21        30        22        22
        16        14        20        20
        16        23        21        21
        22        31        27        27
        18        25        17        17
        26        33        28        28
         4         3         8         8
        23        29        32        32
        13        12         6         6
zone t="boundary 4 bc-4", solutiontime= 0.4000000E+02, strandid=1004, i=32, j=46, f=feblock
  0.125000000000E+01  0.219251206392E+01  0.103724302461E+01  0.500000000000E+01  0.250000000000E+01  0.375000000000E+01  0.404200324774E+01
  0.500000000000E+01  0.000000000000E+00  0.310152362409E+01  0.202479342020E+01  0.324151231464E+01  0.922061490191E+00  0.000000000000E+00
  0.299062775774E+01  0.394624082883E+01  0.500000000000E+01  0.409252726285E+01  0.500000000000E+01  0.429310310915E+01  0.175434191980E+01
  0.284428995242E+01  0.000000000000E+00  0.000000000000E+00  0.715990576545E+00  0.930412228790E+00  0.125000000000E+01  0.187029682677E+01
  0.500000000000E+01  0.375000000000E+01  0.250000000000E+01  0.000000000000E+00
  0.250000000000E+01  0.157686156160E+01  0.146289271009E+01  0.250000000000E+01  0.250000000000E+01  0.250000000000E+01  0.155830813274E+01
  0.125000000000E+01  0.250000000000E+01  0.177790177481E+01  0.477386199275E+00  0.742988685424E+00  0.308372018325E+00  0.125000000000E+01
 -0.487811078581E+00 -0.144524380962E+01 -0.125000000000E+01 -0.345533899378E+00  0.000000000000E+00  0.627766083140E+00 -0.739814786992E+00
 -0.158811787973E+01  0.000000000000E+00 -0.125000000000E+01 -0.600232012419E+00 -0.154800130438E+01 -0.250000000000E+01 -0.178862290564E+01
 -0.250000000000E+01 -0.250000000000E+01 -0.250000000000E+01 -0.250000000000E+01
  0.500000000000E+01  0.500000000000E+01  0.500000000000E+01  0.500000000000E+01  0.500000000000E+01  0.500000000000E+01  0.500000000000E+01
  0.500000000000E+01  0.500000000000E+01  0.500000000000E+01  0.500000000000E+01  0.500000000000E+01  0.500000000000E+01  0.500000000000E+01
  0.500000000000E+01  0.500000000000E+01  0.500000000000E+01  0.500000000000E+01  0.500000000000E+01  0.500000000000E+01  0.500000000000E+01
  0.500000000000E+01  0.500000000000E+01  0.500000000000E+01  0.500000000000E+01  0.500000000000E+01  0.500000000000E+01  0.500000000000E+01
  0.500000000000E+01  0.500000000000E+01  0.500000000000E+01  0.500000000000E+01
  0.100248347634E+01  0.100135121652E+01  0.100191993305E+01  0.100014693734E+01  0.100101726444E+01  0.100049052770E+01  0.999769458426E+00
  0.100034166324E+01  0.100195491560E+01  0.100086191241E+01  0.100110961853E+01  0.100019545280E+01  0.100153275714E+01  0.100191064692E+01
  0.100053903230E+01  0.998651253947E+00  0.100067234525E+01  0.999529102024E+00  0.100054036895E+01  0.999917270189E+00  0.100145592130E+01
  0.100043838764E+01  0.100078102128E+01  0.100129933773E+01  0.100105954527E+01  0.100174206820E+01  0.100234194711E+01  0.100132523192E+01
  0.999831925068E+00  0.100018830559E+01  0.100027919436E+01  0.100184143277E+01
  0.493144569324E+00  0.493570911222E+00  0.494616684148E+00  0.493218164768E+00  0.491171746535E+00  0.488083567762E+00  0.488180110997E+00
  0.494184470241E+00  0.498222028859E+00  0.490774099077E+00  0.492754858034E+00  0.491186444789E+00  0.497627908070E+00  0.498752949085E+00
  0.492071301770E+00  0.486117977150E+00  0.492272477008E+00  0.489699495253E+00  0.494625573777E+00  0.490048542742E+00  0.494648747716E+00
  0.492666475627E+00  0.499565571652E+00  0.498567806988E+00  0.498183914828E+00  0.496584717690E+00  0.494566052876E+00  0.494870807713E+00
  0.491728895460E+00  0.489551681985E+00  0.494683486179E+00  0.497857301552E+00
  0.000000000000E+00 -0.144068056195E-03 -0.112879003103E-02  0.000000000000E+00  0.000000000000E+00  0.000000000000E+00  0.893103413508E-04
  0.597370648710E-03  0.000000000000E+00  0.744831164700E-04 -0.913148770932E-03 -0.947674175948E-03 -0.158335681427E-02  0.721163438215E-04
 -0.919716930317E-03 -0.927998775540E-03 -0.141070326608E-02 -0.213514808749E-02 -0.145296836323E-02 -0.126497375566E-02 -0.553473151040E-03
 -0.655086045698E-03 -0.171041351047E-03  0.607644798787E-03 -0.321568231245E-04  0.141788565360E-02  0.000000000000E+00  0.717554975057E-03
  0.000000000000E+00  0.000000000000E+00  0.000000000000E+00  0.000000000000E+00