title="tecplot geometry and solution file"
variables = x y z rho u v w p mach temperature
zone t="boundary 1 bc-1", solutiontime= 0.2000000E+02, strandid=1001, i=32, j=46, f=feblock
  0.000000000000E+00  0.000000000000E+00  0.000000000000E+00  0.000000000000E+00  0.000000000000E+00  0.000000000000E+00  0.000000000000E+00
  0.000000000000E+00  0.000000000000E+00  0.000000000000E+00  0.000000000000E+00  0.000000000000E+00  0.000000000000E+00  0.000000000000E+00
  0.000000000000E+00  0.000000000000E+00  0.000000000000E+00  0.000000000000E+00  0.000000000000E+00  0.000000000000E+00  0.000000000000E+00
  0.000000000000E+00  0.000000000000E+00  0.000000000000E+00  0.000000000000E+00  0.000000000000E+00  0.000000000000E+00  0.000000000000E+00
  0.000000000000E+00  0.000000000000E+00  0.000000000000E+00  0.000000000000E+00
  0.250000000000E+01  0.250000000000E+01  0.125000000000E+01  0.146289271009E+01  0.157686156160E+01  0.308372018325E+00  0.000000000000E+00
 -0.125000000000E+01 -0.600232012419E+00  0.250000000000E+01  0.477386199275E+00  0.742988685424E+00 -0.739814786992E+00  0.177790177481E+01
  0.155830813274E+01  0.250000000000E+01 -0.250000000000E+01 -0.154800130438E+01 -0.487811078581E+00  0.250000000000E+01  0.627766083140E+00
 -0.345533899378E+00 -0.178862290564E+01 -0.158811787973E+01  0.125000000000E+01 -0.250000000000E+01 -0.144524380962E+01  0.000000000000E+00
 -0.125000000000E+01 -0.250000000000E+01 -0.250000000000E+01 -0.250000000000E+01
  0.000000000000E+00  0.125000000000E+01  0.000000000000E+00  0.103724302461E+01  0.219251206392E+01  0.922061490191E+00  0.000000000000E+00
  0.000000000000E+00  0.715990576545E+00  0.250000000000E+01  0.202479342020E+01  0.324151231464E+01  0.175434191980E+01  0.310152362409E+01
  0.404200324774E+01  0.375000000000E+01  0.000000000000E+00  0.930412228790E+00  0.299062775774E+01  0.500000000000E+01  0.429310310915E+01
  0.409252726285E+01  0.187029682677E+01  0.284428995242E+01  0.500000000000E+01  0.125000000000E+01  0.394624082883E+01  0.500000000000E+01
  0.500000000000E+01  0.250000000000E+01  0.375000000000E+01  0.500000000000E+01
  0.121818840892E+01  0.105825690984E+01  0.128619561157E+01  0.108360864659E+01  0.102353297862E+01  0.116895715501E+01  0.145483007956E+01
  0.134702160178E+01  0.119335351915E+01  0.101663677731E+01  0.101704581339E+01  0.100664523091E+01  0.102798942983E+01  0.100991914220E+01
  0.100347702680E+01  0.100491989569E+01  0.130112871686E+01  0.114216590921E+01  0.100788037588E+01  0.100195824381E+01  0.100379678797E+01
  0.100390934561E+01  0.103489338081E+01  0.101228780855E+01  0.100191339269E+01  0.106030483778E+01  0.100437239404E+01  0.100078016706E+01
  0.100130040197E+01  0.102047504123E+01  0.100592471527E+01  0.100184493531E+01
  0.000000000000E+00  0.452349650039E+00  0.000000000000E+00  0.473433314229E+00  0.470174441033E+00  0.459849275022E+00  0.000000000000E+00
  0.000000000000E+00  0.401655792976E+00  0.478832015845E+00  0.474388382711E+00  0.485451756505E+00  0.492408100948E+00  0.489456718609E+00
  0.492120247999E+00  0.493505434595E+00  0.000000000000E+00  0.464122259277E+00  0.481659111860E+00  0.498258235151E+00  0.493993970402E+00
  0.490675446766E+00  0.458531039635E+00  0.473167719751E+00  0.498761799780E+00  0.451071493732E+00  0.491542521500E+00  0.499568674862E+00
  0.498567219994E+00  0.477357106758E+00  0.492971795969E+00  0.497871216546E+00
  0.000000000000E+00  0.000000000000E+00  0.000000000000E+00  0.159878822874E-01 -0.426965500095E-02  0.288696647784E-01  0.000000000000E+00
  0.000000000000E+00 -0.359254509405E-02  0.000000000000E+00  0.246168995643E-02 -0.533124834804E-02 -0.289466320525E-02 -0.186436250316E-03
 -0.111028141795E-02  0.000000000000E+00  0.000000000000E+00 -0.850281342688E-02  0.928918908581E-03  0.000000000000E+00 -0.167986458012E-02
 -0.106154790239E-02  0.219605239483E-02 -0.120458946800E-02  0.785087063947E-04  0.000000000000E+00  0.214564108921E-03 -0.167787760866E-03
  0.617860580223E-03  0.000000000000E+00  0.000000000000E+00  0.000000000000E+00
  0.000000000000E+00  0.387548574519E-01  0.000000000000E+00  0.104151458943E+00  0.226282801700E-01  0.134966233914E+00  0.000000000000E+00
  0.000000000000E+00  0.126749427760E+00  0.342986628989E-02  0.214260196586E-01 -0.711396198104E-02  0.633402358336E-01  0.293034887351E-02
 -0.811069654346E-03  0.230771773579E-03  0.000000000000E+00  0.115483350878E+00 -0.830724808692E-02  0.115209098695E-02 -0.769202001457E-03
 -0.441786028880E-02  0.222685628326E-01 -0.268634241503E-02  0.181998610925E-02  0.687403413819E-01 -0.174678737587E-02  0.156996591556E-02
  0.143552898553E-02  0.230702429420E-02 -0.109886267716E-02  0.211788268857E-02
  0.907051261429E+00  0.774823453501E+00  0.957688764216E+00  0.800786228252E+00  0.737958639227E+00  0.857552092384E+00  0.108325235174E+01
  0.100297920594E+01  0.887422638329E+00  0.730590726725E+00  0.733248955204E+00  0.720275321967E+00  0.748092508528E+00  0.724263168526E+00
  0.717583371845E+00  0.719253786199E+00  0.968807809425E+00  0.841055229072E+00  0.722232707358E+00  0.716335080043E+00  0.717952462015E+00
  0.717914902064E+00  0.749258285937E+00  0.726446128009E+00  0.716261574067E+00  0.782242828121E+00  0.718596776549E+00  0.715135560923E+00
  0.715579248787E+00  0.734200639260E+00  0.720288028165E+00  0.716215435478E+00
  0.000000000000E+00  0.448427756077E+00  0.000000000000E+00  0.476838782004E+00  0.468543760331E+00  0.473751465013E+00  0.000000000000E+00
  0.000000000000E+00  0.412799415870E+00  0.477393096540E+00  0.472675299330E+00  0.485114013773E+00  0.491868343792E+00  0.488487205348E+00
  0.491842944059E+00  0.493006463595E+00  0.000000000000E+00  0.471122210192E+00  0.480957911006E+00  0.498033240498E+00  0.493668849386E+00
  0.490410422926E+00  0.455987849436E+00  0.472073686926E+00  0.498552991897E+00  0.448963721694E+00  0.491139213085E+00  0.499468964359E+00
  0.498442611919E+00  0.475639880220E+00  0.492366816139E+00  0.497662991591E+00
  0.104242640687E+01  0.102503732772E+01  0.104242640687E+01  0.103459927445E+01  0.100938818435E+01  0.102704613612E+01  0.104242640687E+01
  0.104242640687E+01  0.104109274723E+01  0.100608893977E+01  0.100934345707E+01  0.100172873202E+01  0.101881350289E+01  0.100400952271E+01
  0.100113574477E+01  0.100202544004E+01  0.104242640687E+01  0.103091618408E+01  0.100322003930E+01  0.100090908804E+01  0.100133160304E+01
  0.100116695525E+01  0.101359388296E+01  0.100467927266E+01  0.100085118236E+01  0.103285387404E+01  0.100165585308E+01  0.100040929891E+01
  0.100050988328E+01  0.100725726102E+01  0.100246392610E+01  0.100085509676E+01
        12        19        11        11
        11         5        12        12
        10        14         5         5
        19        13        11        11
        19        24        13        13
        30        23        24        24
        19        12        22        22
        28        22        21        21
        11        13         6         6
         7         6         9         9
        15        12        14        14
        18        13        23        23
        15        25        21        21
        27        19        22        22
        18         8         9         9
        27        31        24        24
         4        11         6         6
         5        14        12        12
         4         2         5         5
        21        12        15        15
        14        16        15        15
        24        19        27        27
        22        29        27        27
        23        26        18        18
        17         8        18        18
         5        11         4         4
         6         3         4         4
        26        23        30        30
         5         2        10        10
        16        14        10        10
         3         6         7         7
        21        25        28        28
        29        22        28        28
         6        13         9         9
         2         4         1         1
        31        27        32        32
        25        15        20        20
        24        23        13        13
         8         7         9         9
        13        18         9         9
        31        30        24        24
        12        21        22        22
        29        32        27        27
         3         1         4         4
        26        17        18        18
        16        20        15        15
zone t="boundary 2 bc-2", solutiontime= 0.2000000E+02, strandid=1002, i=33, j=48, f=feblock
  0.500000000000E+01  0.375000000000E+01  0.250000000000E+01  0.288078410721E+01  0.125000000000E+01  0.190974100652E+01  0.326683758169E+01
  0.201431602454E+01  0.000000000000E+00  0.963108083381E+00  0.500000000000E+01  0.403552511878E+01  0.423153924130E+01  0.500000000000E+01
  0.385533350601E+01  0.500000000000E+01  0.398173246726E+01  0.315249557942E+01  0.267000324704E+01  0.154774304040E+01  0.218329375016E+01
  0.893127759452E+00  0.000000000000E+00  0.698517061619E+00  0.964171764089E+00  0.310324758057E+01  0.000000000000E+00  0.000000000000E+00
  0.125000000000E+01  0.500000000000E+01  0.375000000000E+01  0.250000000000E+01  0.000000000000E+00
 -0.250000000000E+01 -0.250000000000E+01 -0.250000000000E+01 -0.250000000000E+01 -0.250000000000E+01 -0.250000000000E+01 -0.250000000000E+01
 -0.250000000000E+01 -0.250000000000E+01 -0.250000000000E+01 -0.250000000000E+01 -0.250000000000E+01 -0.250000000000E+01 -0.250000000000E+01
 -0.250000000000E+01 -0.250000000000E+01 -0.250000000000E+01 -0.250000000000E+01 -0.250000000000E+01 -0.250000000000E+01 -0.250000000000E+01
 -0.250000000000E+01 -0.250000000000E+01 -0.250000000000E+01 -0.250000000000E+01 -0.250000000000E+01 -0.250000000000E+01 -0.250000000000E+01
 -0.250000000000E+01 -0.250000000000E+01 -0.250000000000E+01 -0.250000000000E+01 -0.250000000000E+01
  0.000000000000E+00  0.000000000000E+00  0.000000000000E+00  0.904659890645E+00  0.000000000000E+00  0.717002441913E+00  0.188609243358E+01
  0.176246431481E+01  0.000000000000E+00  0.961328577125E+00  0.125000000000E+01  0.101201586758E+01  0.191586535653E+01  0.250000000000E+01
  0.293121848150E+01  0.375000000000E+01  0.406975391361E+01  0.363585050272E+01  0.285047954584E+01  0.292817774674E+01  0.395907379566E+01
  0.205246550326E+01  0.125000000000E+01  0.306828197606E+01  0.397245519226E+01  0.433168271247E+01  0.250000000000E+01  0.375000000000E+01
  0.500000000000E+01  0.500000000000E+01  0.500000000000E+01  0.500000000000E+01  0.500000000000E+01
  0.768448548359E+00  0.889478592272E+00  0.898590684394E+00  0.950547825782E+00  0.925007079093E+00  0.947951411293E+00  0.980929151044E+00
  0.987820344026E+00  0.130112871686E+01  0.101416956514E+01  0.944527307230E+00  0.944194047331E+00  0.978026418458E+00  0.100706544949E+01
  0.997751042502E+00  0.100974869498E+01  0.100010722501E+01  0.996157422281E+00  0.989915544697E+00  0.998872695353E+00  0.997949968349E+00
  0.100916393557E+01  0.106030483778E+01  0.100645857942E+01  0.100351372107E+01  0.998464987797E+00  0.102047504123E+01  0.100592471527E+01
  0.100234536668E+01  0.999805864781E+00  0.100018255828E+01  0.100028022184E+01  0.100184493531E+01
  0.000000000000E+00  0.000000000000E+00  0.000000000000E+00  0.385511969542E+00  0.000000000000E+00  0.341133103606E+00  0.583417381525E+00
  0.571620763098E+00  0.000000000000E+00  0.481047864913E+00  0.504833197070E+00  0.444603835652E+00  0.571802090665E+00  0.531860102385E+00
  0.566272317158E+00  0.512658638999E+00  0.508258877704E+00  0.526891099259E+00  0.564347456898E+00  0.531321885279E+00  0.508144315482E+00
  0.521722881674E+00  0.451071493732E+00  0.494940668555E+00  0.496095571738E+00  0.503560895807E+00  0.477357106758E+00  0.492971795969E+00
  0.494532652749E+00  0.491687953521E+00  0.489389409888E+00  0.494593933828E+00  0.497871216546E+00
  0.000000000000E+00  0.000000000000E+00  0.000000000000E+00  0.000000000000E+00  0.000000000000E+00  0.000000000000E+00  0.000000000000E+00
  0.000000000000E+00  0.000000000000E+00  0.000000000000E+00  0.000000000000E+00  0.000000000000E+00  0.000000000000E+00  0.000000000000E+00
  0.000000000000E+00  0.000000000000E+00  0.000000000000E+00  0.000000000000E+00  0.000000000000E+00  0.000000000000E+00  0.000000000000E+00
  0.000000000000E+00  0.000000000000E+00  0.000000000000E+00  0.000000000000E+00  0.000000000000E+00  0.000000000000E+00  0.000000000000E+00
  0.000000000000E+00  0.000000000000E+00  0.000000000000E+00  0.000000000000E+00  0.000000000000E+00
  0.000000000000E+00  0.000000000000E+00  0.000000000000E+00 -0.140149986208E-02  0.000000000000E+00  0.169991968530E-01  0.875781264335E-02
  0.405229815471E-01  0.000000000000E+00  0.733776132303E-01 -0.112522452593E+00 -0.265129137198E-01 -0.370131986349E-01 -0.485348535116E-01
 -0.592659996109E-02 -0.257528509446E-03 -0.198210212757E-02 -0.318020684610E-02  0.106651878692E-01  0.235705655176E-01  0.229661333050E-02
  0.486688202174E-01  0.687403413819E-01  0.869490453702E-02  0.442760873820E-02 -0.353519447558E-02  0.230702429420E-02 -0.109886267716E-02
  0.137134976693E-02  0.545462610662E-02 -0.148973682625E-02 -0.125011596563E-02  0.211788268857E-02
  0.572179327951E+00  0.662297123522E+00  0.669081898843E+00  0.681343015087E+00  0.688751289849E+00  0.681123600495E+00  0.692967263767E+00
  0.700132904515E+00  0.968807809425E+00  0.722365220765E+00  0.666529649834E+00  0.671312303389E+00  0.691195282095E+00  0.719951868355E+00
  0.710688139311E+00  0.723735929109E+00  0.714737786837E+00  0.710879442852E+00  0.704011455109E+00  0.714163961489E+00  0.712430995767E+00
  0.725845107546E+00  0.782242828121E+00  0.720452412026E+00  0.717726944992E+00  0.712820510518E+00  0.734200639260E+00  0.720288028165E+00
  0.716522048996E+00  0.714324579104E+00  0.714311656752E+00  0.714488123273E+00  0.716215435478E+00
  0.000000000000E+00  0.000000000000E+00  0.000000000000E+00  0.384840527423E+00  0.000000000000E+00  0.340548106952E+00  0.586714380279E+00
  0.575282648899E+00  0.000000000000E+00  0.487299253758E+00  0.520367176914E+00  0.446424818581E+00  0.576055853295E+00  0.533840242614E+00
  0.567096097951E+00  0.511777161049E+00  0.508129218632E+00  0.527145817207E+00  0.565678018243E+00  0.531589896268E+00  0.508288718538E+00
  0.522175153995E+00  0.448963721694E+00  0.494483075366E+00  0.495793308076E+00  0.503703545900E+00  0.475639880220E+00  0.492366816139E+00
  0.494340893506E+00  0.491657100753E+00  0.489427458740E+00  0.494594734746E+00  0.497662991591E+00
  0.104242640687E+01  0.104242640687E+01  0.104242640687E+01  0.100350576294E+01  0.104242640687E+01  0.100593029277E+01  0.989015535161E+00
  0.992271592956E+00  0.104242640687E+01  0.997181678320E+00  0.987945507371E+00  0.995385670353E+00  0.989414372322E+00  0.100086108228E+01
  0.997206069102E+00  0.100344799235E+01  0.100052562020E+01  0.999070224979E+00  0.995656692566E+00  0.100095793061E+01  0.999452302929E+00
  0.100695547547E+01  0.103285387404E+01  0.100216084145E+01  0.100129943607E+01  0.999482933225E+00  0.100725726102E+01  0.100246392610E+01
  0.100078366393E+01  0.100024859423E+01  0.999853787867E+00  0.100000314986E+01  0.100085509676E+01
        15         7        19        19
         8        20        19        19
        18        19        21        21
         7         4         8         8
         3         6         4         4
        19         7         8         8
        19        18        15        15
        14        13        15        15
         8        22        20        20
        27        24        22        22
        19        20        21        21
        32        26        21        21
        17        18        26        26
        17        16        15        15
        25        29        21        21
        12         7        13        13
        10         8         6         6
        25        20        24        24
         4         6         8         8
        12         2         4         4
        10        23        22        22
        26        31        17        17
        30        16        17        17
         4         7        12        12
        13        11        12        12
        21        20        25        25
        24        28        25        25
        22         8        10        10
         6         5        10        10
        31        26        32        32
         4         2         3         3
         5         6         3         3
        11        13        14        14
        22        23        27        27
        28        24        27        27
        15        13         7         7
         2        12         1         1
        29        25        33        33
        23        10         9         9
        21        26        18        18
        16        14        15        15
        18        17        15        15
        29        32        21        21
        22        24        20        20
        28        33        25        25
        11         1        12        12
        31        30        17        17
         5         9        10        10
zone t="boundary 3 bc-3", solutiontime= 0.2000000E+02, strandid=1003, i=33, j=48, f=feblock
  0.375000000000E+01  0.250000000000E+01  0.500000000000E+01  0.403552511878E+01  0.288078410721E+01  0.125000000000E+01  0.190974100652E+01
  0.500000000000E+01  0.326683758169E+01  0.423153924130E+01  0.201431602454E+01  0.000000000000E+00  0.963108083381E+00  0.500000000000E+01
  0.267000324704E+01  0.385533350601E+01  0.893127759452E+00  0.154774304040E+01  0.000000000000E+00  0.500000000000E+01  0.315249557942E+01
  0.218329375016E+01  0.398173246726E+01  0.000000000000E+00  0.698517061619E+00  0.964171764089E+00  0.125000000000E+01  0.000000000000E+00
  0.500000000000E+01  0.310324758057E+01  0.250000000000E+01  0.375000000000E+01  0.000000000000E+00
  0.250000000000E+01  0.250000000000E+01  0.250000000000E+01  0.250000000000E+01  0.250000000000E+01  0.250000000000E+01  0.250000000000E+01
  0.250000000000E+01  0.250000000000E+01  0.250000000000E+01  0.250000000000E+01  0.250000000000E+01  0.250000000000E+01  0.250000000000E+01
  0.250000000000E+01  0.250000000000E+01  0.250000000000E+01  0.250000000000E+01  0.250000000000E+01  0.250000000000E+01  0.250000000000E+01
  0.250000000000E+01  0.250000000000E+01  0.250000000000E+01  0.250000000000E+01  0.250000000000E+01  0.250000000000E+01  0.250000000000E+01
  0.250000000000E+01  0.250000000000E+01  0.250000000000E+01  0.250000000000E+01  0.250000000000E+01
  0.000000000000E+00  0.000000000000E+00  0.000000000000E+00  0.101201586758E+01  0.904659890645E+00  0.000000000000E+00  0.717002441913E+00
  0.125000000000E+01  0.188609243358E+01  0.191586535653E+01  0.176246431481E+01  0.000000000000E+00  0.961328577125E+00  0.250000000000E+01
  0.285047954584E+01  0.293121848150E+01  0.205246550326E+01  0.292817774674E+01  0.125000000000E+01  0.375000000000E+01  0.363585050272E+01
  0.395907379566E+01  0.406975391361E+01  0.250000000000E+01  0.306828197606E+01  0.397245519226E+01  0.500000000000E+01  0.375000000000E+01
  0.500000000000E+01  0.433168271247E+01  0.500000000000E+01  0.500000000000E+01  0.500000000000E+01
  0.896422533018E+00  0.910585782580E+00  0.782169242711E+00  0.945590626246E+00  0.959987462749E+00  0.921956399962E+00  0.963793060976E+00
  0.950656790628E+00  0.978008678051E+00  0.979578691649E+00  0.986579957744E+00  0.121818840892E+01  0.100508555887E+01  0.100847385703E+01
  0.992186716708E+00  0.997799473243E+00  0.100539542877E+01  0.998257430740E+00  0.105825690984E+01  0.100701259358E+01  0.998802698494E+00
  0.999308555260E+00  0.100000845513E+01  0.101663677731E+01  0.100452312922E+01  0.100205668580E+01  0.100249124385E+01  0.100491989569E+01
  0.100009712116E+01  0.998725364209E+00  0.100101473684E+01  0.100045815360E+01  0.100195824381E+01
  0.000000000000E+00  0.000000000000E+00  0.000000000000E+00  0.450061862357E+00  0.402552002198E+00  0.000000000000E+00  0.368445967698E+00
  0.504713222710E+00  0.572561319795E+00  0.570890625962E+00  0.555904780208E+00  0.000000000000E+00  0.474068507319E+00  0.529172008439E+00
  0.555237138967E+00  0.562444175884E+00  0.524234513189E+00  0.523494047622E+00  0.452349650039E+00  0.514570086324E+00  0.524879579335E+00
  0.506321005345E+00  0.509891279006E+00  0.478832015845E+00  0.499498362459E+00  0.498069570225E+00  0.493136614743E+00  0.493505434595E+00
  0.493158337422E+00  0.501486175485E+00  0.491080740807E+00  0.487896145128E+00  0.498258235151E+00
  0.000000000000E+00  0.000000000000E+00  0.000000000000E+00  0.000000000000E+00  0.000000000000E+00  0.000000000000E+00  0.000000000000E+00
  0.000000000000E+00  0.000000000000E+00  0.000000000000E+00  0.000000000000E+00  0.000000000000E+00  0.000000000000E+00  0.000000000000E+00
  0.000000000000E+00  0.000000000000E+00  0.000000000000E+00  0.000000000000E+00  0.000000000000E+00  0.000000000000E+00  0.000000000000E+00
  0.000000000000E+00  0.000000000000E+00  0.000000000000E+00  0.000000000000E+00  0.000000000000E+00  0.000000000000E+00  0.000000000000E+00
  0.000000000000E+00  0.000000000000E+00  0.000000000000E+00  0.000000000000E+00  0.000000000000E+00
  0.000000000000E+00  0.000000000000E+00  0.000000000000E+00 -0.278856815206E-01  0.123629802581E-01  0.000000000000E+00  0.160475589644E-01
 -0.114479956972E+00  0.497976156483E-03 -0.461023298618E-01  0.299802512750E-01  0.000000000000E+00  0.532100885884E-01 -0.503083900069E-01
  0.510057808401E-02 -0.105749736080E-01  0.442026162170E-01  0.107248190319E-01  0.387548574519E-01 -0.217819392113E-02 -0.365784686230E-02
 -0.366726346873E-03 -0.146860798601E-02  0.342986628989E-02  0.812126697967E-02  0.211259076913E-02  0.579205411809E-03  0.230771773579E-03
  0.511807689511E-02 -0.209060622003E-02 -0.614207185768E-03 -0.720487119895E-03  0.115209098695E-02
  0.667467514380E+00  0.678013332488E+00  0.582395623746E+00  0.670470618855E+00  0.688046416202E+00  0.686479783789E+00  0.690474208868E+00
  0.670595271321E+00  0.691848165699E+00  0.692561113866E+00  0.700777069390E+00  0.907051261429E+00  0.717425363746E+00  0.721489836350E+00
  0.706659410980E+00  0.711393836741E+00  0.721333123942E+00  0.713302364742E+00  0.774823453501E+00  0.721241812470E+00  0.713528266416E+00
  0.713571765234E+00  0.714557904552E+00  0.730590726725E+00  0.718645966675E+00  0.716252818836E+00  0.716765847393E+00  0.719253786199E+00
  0.714523757967E+00  0.713133831054E+00  0.715148791056E+00  0.714632189855E+00  0.716335080043E+00
  0.000000000000E+00  0.000000000000E+00  0.000000000000E+00  0.452586849612E+00  0.402056049789E+00  0.000000000000E+00  0.368247237942E+00
  0.520782310804E+00  0.575339390567E+00  0.575693082344E+00  0.558268663273E+00  0.000000000000E+00  0.477209191110E+00  0.531133734305E+00
  0.556063571098E+00  0.563065271581E+00  0.524928887663E+00  0.523507966835E+00  0.448427756077E+00  0.513879640456E+00  0.524856363263E+00
  0.506399204876E+00  0.509798425308E+00  0.477393096540E+00  0.499171659680E+00  0.497900853624E+00  0.492895863368E+00  0.493006463595E+00
  0.493126680445E+00  0.501575414943E+00  0.491033650532E+00  0.487890115061E+00  0.498033240498E+00
  0.104242640687E+01  0.104242640687E+01  0.104242640687E+01  0.992669386036E+00  0.100341412785E+01  0.104242640687E+01  0.100297868034E+01
  0.987562902937E+00  0.990366909533E+00  0.989798540615E+00  0.994433233156E+00  0.104242640687E+01  0.999313441908E+00  0.100159836951E+01
  0.997113908816E+00  0.998147822429E+00  0.100444695154E+01  0.100036651858E+01  0.102503732772E+01  0.100270696106E+01  0.100013703856E+01
  0.999691702897E+00  0.100037260809E+01  0.100608893977E+01  0.100157410425E+01  0.100069582946E+01  0.100097850480E+01  0.100202544004E+01
  0.100023611706E+01  0.999661567890E+00  0.100019337441E+01  0.100002689987E+01  0.100090908804E+01
        15         9        16        16
        15        18        11        11
        22        15        21        21
        11         5         9         9
         5         7         2         2
        11         9        15        15
        16        21        15        15
        16        10        14        14
        18        17        11        11
        17        25        24        24
        22        18        15        15
        22        30        31        31
        30        21        23        23
        16        20        23        23
        22        27        26        26
        10         9         4         4
         7        11        13        13
        25        18        26        26
        11         7         5         5
         5         1         4         4
        17        19        13        13
        23        32        30        30
        23        20        29        29
         4         9         5         5
         4         8        10        10
        26        18        22        22
        26        28        25        25
        13        11        17        17
        13         6         7         7
        31        30        32        32
         2         1         5         5
         2         7         6         6
        14        10         8         8
        24        19        17        17
        24        25        28        28
         9        10        16        16
         3         4         1         1
        33        26        27        27
        12        13        19        19
        21        30        22        22
        16        14        20        20
        16        23        21        21
        22        31        27        27
        18        25        17        17
        26        33        28        28
         4         3         8         8
        23        29        32        32
        13        12         6         6
zone t="boundary 4 bc-4", solutiontime= 0.2000000E+02, strandid=1004, i=32, j=46, f=feblock
  0.125000000000E+01  0.219251206392E+01  0.103724302461E+01  0.500000000000E+01  0.250000000000E+01  0.375000000000E+01  0.404200324774E+01
  0.500000000000E+01  0.000000000000E+00  0.310152362409E+01  0.202479342020E+01  0.324151231464E+01  0.922061490191E+00  0.000000000000E+00
  0.299062775774E+01  0.394624082883E+01  0.500000000000E+01  0.409252726285E+01  0.500000000000E+01  0.429310310915E+01  0.175434191980E+01
  0.284428995242E+01  0.000000000000E+00  0.000000000000E+00  0.715990576545E+00  0.930412228790E+00  0.125000000000E+01  0.187029682677E+01
  0.500000000000E+01  0.375000000000E+01  0.250000000000E+01  0.000000000000E+00
  0.250000000000E+01  0.157686156160E+01  0.146289271009E+01  0.250000000000E+01  0.250000000000E+01  0.250000000000E+01  0.155830813274E+01
  0.125000000000E+01  0.250000000000E+01  0.177790177481E+01  0.477386199275E+00  0.742988685424E+00  0.308372018325E+00  0.125000000000E+01
 -0.487811078581E+00 -0.144524380962E+01 -0.125000000000E+01 -0.345533899378E+00  0.000000000000E+00  0.627766083140E+00 -0.739814786992E+00
 -0.158811787973E+01  0.000000000000E+00 -0.125000000000E+01 -0.600232012419E+00 -0.154800130438E+01 -0.250000000000E+01 -0.178862290564E+01
 -0.250000000000E+01 -0.250000000000E+01 -0.250000000000E+01 -0.250000000000E+01
  0.500000000000E+01  0.500000000000E+01  0.500000000000E+01  0.500000000000E+01  0.500000000000E+01  0.500000000000E+01  0.500000000000E+01
  0.500000000000E+01  0.500000000000E+01  0.500000000000E+01  0.500000000000E+01  0.500000000000E+01  0.500000000000E+01  0.500000000000E+01
  0.500000000000E+01  0.500000000000E+01  0.500000000000E+01  0.500000000000E+01  0.500000000000E+01  0.500000000000E+01  0.500000000000E+01
  0.500000000000E+01  0.500000000000E+01  0.500000000000E+01  0.500000000000E+01  0.500000000000E+01  0.500000000000E+01  0.500000000000E+01
  0.500000000000E+01  0.500000000000E+01  0.500000000000E+01  0.500000000000E+01
  0.100249124385E+01  0.100135443245E+01  0.100192478209E+01  0.100009712116E+01  0.100101473684E+01  0.100045815360E+01  0.999730654709E+00
  0.100030181984E+01  0.100195824381E+01  0.100084899263E+01  0.100112112707E+01  0.100019027263E+01  0.100154137076E+01  0.100191339269E+01
  0.100054316977E+01  0.998645730230E+00  0.100065435284E+01  0.999506818469E+00  0.100050272258E+01  0.999875555289E+00  0.100146868532E+01
  0.100044659864E+01  0.100078016706E+01  0.100130040197E+01  0.100106425389E+01  0.100174744022E+01  0.100234536668E+01  0.100133058662E+01
  0.999805864781E+00  0.100018255828E+01  0.100028022184E+01  0.100184493531E+01
  0.493136614743E+00  0.493512947318E+00  0.494598379378E+00  0.493158337422E+00  0.491080740807E+00  0.487896145128E+00  0.488033114315E+00
  0.494122260571E+00  0.498258235151E+00  0.490642348433E+00  0.492705795169E+00  0.491102412661E+00  0.497611779013E+00  0.498761799780E+00
  0.491968558517E+00  0.486007035462E+00  0.492229864099E+00  0.489607027529E+00  0.494592405632E+00  0.489954149961E+00  0.494599707856E+00
  0.492543745816E+00  0.499568674862E+00  0.498567219994E+00  0.498171289480E+00  0.496571784271E+00  0.494532652749E+00  0.494817376201E+00
  0.491687953521E+00  0.489389409888E+00  0.494593933828E+00  0.497871216546E+00
  0.000000000000E+00 -0.168209776081E-03 -0.113934767093E-02  0.000000000000E+00  0.000000000000E+00  0.000000000000E+00  0.884671014901E-04
  0.614186640524E-03  0.000000000000E+00  0.434404077865E-04 -0.923902091704E-03 -0.975588918366E-03 -0.158524839881E-02  0.785087063947E-04
 -0.928397690728E-03 -0.936232843130E-03 -0.141948125652E-02 -0.215063170081E-02 -0.144830648189E-02 -0.127771560687E-02 -0.541055154350E-03
 -0.641669166271E-03 -0.167787760866E-03  0.617860580223E-03 -0.244343959805E-04  0.143239095856E-02  0.000000000000E+00  0.723245707141E-03
  0.000000000000E+00  0.000000000000E+00  0.000000000000E+00  0.000000000000E+00