# vtk DataFile Version 2.0
FUN3D:global_image_vtk
ASCII
DATASET UNSTRUCTURED_GRID
POINTS 350 double
    0.5000000000000000E+01    0.0000000000000000E+00   -0.5420889100874617E-18
    0.0000000000000000E+00    0.5000000000000000E+01    0.0000000000000000E+00
    0.4000000000000000E+01    0.0000000000000000E+00   -0.5420889100874617E-18
    0.0000000000000000E+00    0.5000000000000000E+01    0.0000000000000000E+00
    0.3000000000000000E+01    0.0000000000000000E+00   -0.5420889100874617E-18
    0.0000000000000000E+00    0.5000000000000000E+01    0.0000000000000000E+00
    0.2000000000000000E+01    0.0000000000000000E+00   -0.5420889100874617E-18
    0.0000000000000000E+00    0.5000000000000000E+01    0.0000000000000000E+00
    0.9999999999999998E+00    0.0000000000000000E+00   -0.5420889100874617E-18
    0.0000000000000000E+00    0.5000000000000000E+01    0.0000000000000000E+00
   -0.5420889100874617E-18    0.0000000000000000E+00   -0.5420889100874617E-18
    0.0000000000000000E+00    0.5000000000000000E+01    0.0000000000000000E+00
   -0.5420889100874617E-18    0.0000000000000000E+00   -0.5420889100874617E-18
    0.0000000000000000E+00    0.4000000000000000E+01    0.0000000000000000E+00
   -0.5420889100874617E-18    0.0000000000000000E+00   -0.5420889100874617E-18
    0.0000000000000000E+00    0.3000000000000000E+01    0.0000000000000000E+00
   -0.5420889100874617E-18    0.0000000000000000E+00   -0.5420889100874617E-18
    0.0000000000000000E+00    0.2000000000000000E+01    0.0000000000000000E+00
   -0.5420889100874617E-18    0.0000000000000000E+00   -0.5420889100874617E-18
    0.0000000000000000E+00    0.9999999999999998E+00    0.0000000000000000E+00
   -0.5420889100874617E-18    0.0000000000000000E+00   -0.5420889100874617E-18
    0.0000000000000000E+00   -0.5420889100874617E-18    0.0000000000000000E+00
    0.9999999999999999E+00    0.0000000000000000E+00   -0.5420889100874617E-18
    0.0000000000000000E+00   -0.5420889100874617E-18    0.0000000000000000E+00
    0.2000000000000000E+01    0.0000000000000000E+00   -0.5420889100874617E-18
    0.0000000000000000E+00   -0.5420889100874617E-18    0.0000000000000000E+00
    0.3000000000000000E+01    0.0000000000000000E+00   -0.5420889100874617E-18
    0.0000000000000000E+00   -0.5420889100874617E-18    0.0000000000000000E+00
    0.4000000000000000E+01    0.0000000000000000E+00   -0.5420889100874617E-18
    0.0000000000000000E+00   -0.5420889100874617E-18    0.0000000000000000E+00
    0.5000000000000000E+01    0.0000000000000000E+00   -0.5420889100874617E-18
    0.0000000000000000E+00   -0.5420889100874617E-18    0.0000000000000000E+00
    0.5000000000000000E+01    0.0000000000000000E+00   -0.5420889100874617E-18
    0.0000000000000000E+00    0.1000000000000000E+01    0.0000000000000000E+00
    0.5000000000000000E+01    0.0000000000000000E+00   -0.5420889100874617E-18
    0.0000000000000000E+00    0.2000000000000000E+01    0.0000000000000000E+00
    0.5000000000000000E+01    0.0000000000000000E+00   -0.5420889100874617E-18
    0.0000000000000000E+00    0.3000000000000000E+01    0.0000000000000000E+00
    0.5000000000000000E+01    0.0000000000000000E+00   -0.5420889100874617E-18
    0.0000000000000000E+00    0.4000000000000000E+01    0.0000000000000000E+00
    0.4322050724693945E+01    0.0000000000000000E+00   -0.5420889100874617E-18
    0.0000000000000000E+00    0.4272847764579289E+01    0.0000000000000000E+00
    0.4395933514933383E+01    0.0000000000000000E+00   -0.5420889100874617E-18
    0.0000000000000000E+00    0.6968157305690375E+00    0.0000000000000000E+00
    0.4822566552045414E+00    0.0000000000000000E+00   -0.5420889100874617E-18
    0.0000000000000000E+00    0.4869914123714657E+00    0.0000000000000000E+00
    0.6915840874870021E+00    0.0000000000000000E+00   -0.5420889100874617E-18
    0.0000000000000000E+00    0.4412138888481547E+01    0.0000000000000000E+00
    0.3399851674277183E+01    0.0000000000000000E+00   -0.5420889100874617E-18
    0.0000000000000000E+00    0.4097916069546335E+01    0.0000000000000000E+00
    0.2387722604716090E+01    0.0000000000000000E+00   -0.5420889100874617E-18
    0.0000000000000000E+00    0.4289612581570788E+01    0.0000000000000000E+00
    0.2530539425941974E+01    0.0000000000000000E+00   -0.5420889100874617E-18
    0.0000000000000000E+00    0.3425796000045182E+01    0.0000000000000000E+00
    0.4218243643927281E+01    0.0000000000000000E+00   -0.5420889100874617E-18
    0.0000000000000000E+00    0.1577295032585114E+01    0.0000000000000000E+00
    0.4374706835472756E+01    0.0000000000000000E+00   -0.5420889100874617E-18
    0.0000000000000000E+00    0.2456049093849535E+01    0.0000000000000000E+00
    0.3551860412513510E+01    0.0000000000000000E+00   -0.5420889100874617E-18
    0.0000000000000000E+00    0.2339930221808592E+01    0.0000000000000000E+00
    0.2949794352503393E+01    0.0000000000000000E+00   -0.5420889100874617E-18
    0.0000000000000000E+00    0.5481475950050476E+00    0.0000000000000000E+00
    0.7861633687955188E+00    0.0000000000000000E+00   -0.5420889100874617E-18
    0.0000000000000000E+00    0.2248355130517770E+01    0.0000000000000000E+00
    0.5798833877919640E+00    0.0000000000000000E+00   -0.5420889100874617E-18
    0.0000000000000000E+00    0.2968095534677868E+01    0.0000000000000000E+00
    0.9567989459488916E+00    0.0000000000000000E+00   -0.5420889100874617E-18
    0.0000000000000000E+00    0.9597666531489262E+00    0.0000000000000000E+00
    0.1484741644122566E+01    0.0000000000000000E+00   -0.5420889100874617E-18
    0.0000000000000000E+00    0.4363965165706898E+01    0.0000000000000000E+00
    0.1026777559850325E+01    0.0000000000000000E+00   -0.5420889100874617E-18
    0.0000000000000000E+00    0.3706650893855072E+01    0.0000000000000000E+00
    0.2039106473515760E+01    0.0000000000000000E+00   -0.5420889100874617E-18
    0.0000000000000000E+00    0.1998969209862488E+01    0.0000000000000000E+00
    0.1300624340922514E+01    0.0000000000000000E+00   -0.5420889100874617E-18
    0.0000000000000000E+00    0.1814065253577793E+01    0.0000000000000000E+00
    0.1818986365136347E+01    0.0000000000000000E+00   -0.5420889100874617E-18
    0.0000000000000000E+00    0.1286729705298721E+01    0.0000000000000000E+00
    0.3653583824847581E+01    0.0000000000000000E+00   -0.5420889100874617E-18
    0.0000000000000000E+00    0.9901573836014240E+00    0.0000000000000000E+00
    0.4143524820619449E+01    0.0000000000000000E+00   -0.5420889100874617E-18
    0.0000000000000000E+00    0.3349542163936307E+01    0.0000000000000000E+00
    0.1820064053502506E+01    0.0000000000000000E+00   -0.5420889100874617E-18
    0.0000000000000000E+00    0.3699731047579209E+01    0.0000000000000000E+00
    0.1584392186197914E+01    0.0000000000000000E+00   -0.5420889100874617E-18
    0.0000000000000000E+00    0.2795974726684905E+01    0.0000000000000000E+00
    0.1600595232801024E+01    0.0000000000000000E+00   -0.5420889100874617E-18
    0.0000000000000000E+00    0.6068725132371939E+00    0.0000000000000000E+00
    0.2227190852919879E+01    0.0000000000000000E+00   -0.5420889100874617E-18
    0.0000000000000000E+00    0.7878662077383224E+00    0.0000000000000000E+00
    0.6087173311333847E+00    0.0000000000000000E+00   -0.5420889100874617E-18
    0.0000000000000000E+00    0.1604437407448898E+01    0.0000000000000000E+00
    0.2791514824717063E+01    0.0000000000000000E+00   -0.5420889100874617E-18
    0.0000000000000000E+00    0.1521675228311488E+01    0.0000000000000000E+00
    0.2652084981436515E+01    0.0000000000000000E+00   -0.5420889100874617E-18
    0.0000000000000000E+00    0.2569083733163254E+01    0.0000000000000000E+00
    0.3287666143370331E+01    0.0000000000000000E+00   -0.5420889100874617E-18
    0.0000000000000000E+00    0.3173897562080839E+01    0.0000000000000000E+00
    0.3566016613004364E+01    0.0000000000000000E+00   -0.5420889100874617E-18
    0.0000000000000000E+00    0.1597010715137857E+01    0.0000000000000000E+00
    0.5000000000000000E+01    0.0000000000000000E+00   -0.8333333333333334E+00
    0.0000000000000000E+00    0.5000000000000000E+01    0.0000000000000000E+00
    0.4000000000000000E+01    0.0000000000000000E+00   -0.8333333333333334E+00
    0.0000000000000000E+00    0.5000000000000000E+01    0.0000000000000000E+00
    0.3000000000000000E+01    0.0000000000000000E+00   -0.8333333333333334E+00
    0.0000000000000000E+00    0.5000000000000000E+01    0.0000000000000000E+00
    0.2000000000000000E+01    0.0000000000000000E+00   -0.8333333333333334E+00
    0.0000000000000000E+00    0.5000000000000000E+01    0.0000000000000000E+00
    0.9999999999999998E+00    0.0000000000000000E+00   -0.8333333333333334E+00
    0.0000000000000000E+00    0.5000000000000000E+01    0.0000000000000000E+00
   -0.5420889100874617E-18    0.0000000000000000E+00   -0.8333333333333334E+00
    0.0000000000000000E+00    0.5000000000000000E+01    0.0000000000000000E+00
   -0.5420889100874617E-18    0.0000000000000000E+00   -0.8333333333333334E+00
    0.0000000000000000E+00    0.4000000000000000E+01    0.0000000000000000E+00
   -0.5420889100874617E-18    0.0000000000000000E+00   -0.8333333333333334E+00
    0.0000000000000000E+00    0.3000000000000000E+01    0.0000000000000000E+00
   -0.5420889100874617E-18    0.0000000000000000E+00   -0.8333333333333334E+00
    0.0000000000000000E+00    0.2000000000000000E+01    0.0000000000000000E+00
   -0.5420889100874617E-18    0.0000000000000000E+00   -0.8333333333333334E+00
    0.0000000000000000E+00    0.9999999999999998E+00    0.0000000000000000E+00
   -0.5420889100874617E-18    0.0000000000000000E+00   -0.8333333333333334E+00
    0.0000000000000000E+00   -0.5420889100874617E-18    0.0000000000000000E+00
    0.9999999999999999E+00    0.0000000000000000E+00   -0.8333333333333334E+00
    0.0000000000000000E+00   -0.5420889100874617E-18    0.0000000000000000E+00
    0.2000000000000000E+01    0.0000000000000000E+00   -0.8333333333333334E+00
[...]
POINT_DATA 350
SCALARS rho double 1
LOOKUP_TABLE default
   0.1002301455917005E+01
  -0.7163815403685273E-34
   0.1001908462661192E+01
  -0.1157483107992130E-33
   0.1001998092981389E+01
  -0.1357317154193723E-33
   0.1005484939390300E+01
  -0.1905527794325604E-33
   0.1004616665298315E+01
  -0.1416549538200566E-33
   0.1003800477945347E+01
  -0.1103841077114119E-33
   0.1005530099672342E+01
  -0.1518636193651100E-33
   0.1007771011718913E+01
  -0.1804051729084226E-33
   0.1034861366702905E+01
  -0.6300465080980512E-33
   0.1007228258520722E+01
   0.6432943660513945E-33
   0.1503074216771927E+01
  -0.6360667380069716E-32
   0.9223398243595784E+00
  -0.2532338195560634E-32
   0.9841606119477958E+00
  -0.2052528522944100E-32
   0.9862719135202856E+00
  -0.3730330361656682E-32
   0.9800944639850646E+00
  -0.2214383287949301E-32
   0.8203438717043424E+00
  -0.5707787307734592E-32
   0.9831951245343845E+00
  -0.6672750595923392E-33
   0.1019036265788017E+01
  -0.1878520802723733E-33
   0.1005113327588929E+01
  -0.1462254493004119E-34
   0.1002090014772822E+01
  -0.7501599944906605E-34
   0.1003052641351776E+01
  -0.1161252542456506E-33
   0.9961496242270628E+00
  -0.1030268085103609E-32
   0.1098434207255026E+01
  -0.2262652648872499E-32
   0.1004953413193567E+01
  -0.1505854190336985E-33
   0.1003132021319557E+01
  -0.1738815347614512E-33
   0.1003037461976202E+01
  -0.1605575795574509E-33
   0.1004616183412258E+01
  -0.2363553822650402E-33
   0.9992100275684982E+00
  -0.6303396672379471E-33
   0.1004606278384782E+01
  -0.4708078745646106E-34
   0.9964285581278512E+00
  -0.1350219139307302E-33
   0.1002820704945425E+01
  -0.1614669479819140E-32
   0.1012493582273916E+01
  -0.2518138724661313E-33
   0.1007513233664876E+01
  -0.2027349151648169E-33
   0.1068122922797617E+01
  -0.1121447305469015E-32
   0.1004633773294200E+01
  -0.1700705711204953E-33
   0.1007244541338882E+01
  -0.1979576850330015E-33
   0.9975282317792306E+00
  -0.6144503533772994E-34
   0.9934914272781938E+00
   0.2696618831099823E-34
   0.1001878257273319E+01
  -0.4133745813381447E-33
   0.9846841136477990E+00
  -0.1360647499628726E-32
   0.1003697457973088E+01
  -0.1369343509044530E-33
   0.1003860014132042E+01
  -0.1794111149337339E-33
   0.1010028979624276E+01
  -0.3062951534122348E-33
   0.9755376158643345E+00
  -0.1400641082591366E-32
   0.1019512360455259E+01
  -0.1294683088655086E-32
   0.1002650215006744E+01
   0.1931232162337967E-34
   0.1008311933686375E+01
  -0.3943761549131923E-33
   0.9960548035624356E+00
  -0.1331958321784027E-33
   0.1000964605950183E+01
  -0.1982289137363273E-33
   0.1003392275957886E+01
  -0.2810902912994157E-33
   0.1002238959358258E+01
  -0.7079743537585446E-34
   0.1001784181704791E+01
  -0.1152468968744289E-33
   0.1001851661719622E+01
  -0.1352971242088801E-33
   0.1005416936944871E+01
  -0.1905329004956170E-33
   0.1004542692507691E+01
  -0.1415488169144400E-33
   0.1003773103504707E+01
  -0.1101690030980688E-33
   0.1005435017787806E+01
  -0.1518479457177479E-33
   0.1007530252895376E+01
  -0.1802764600549764E-33
   0.1034538226868537E+01
  -0.6319833595766183E-33
   0.1004048757700715E+01
   0.6564955573809378E-33
   0.1504789642263968E+01
  -0.6355361433708803E-32
   0.9195193613311025E+00
  -0.2516516629164907E-32
   0.9838492101198244E+00
  -0.2048087567598000E-32
   0.9871160968900907E+00
  -0.3731165374647409E-32
   0.9803669998440403E+00
  -0.2229125359830676E-32
   0.8215128281251044E+00
  -0.5726375499173529E-32
   0.9886368787185651E+00
  -0.6783385398141373E-33
   0.1020555547025804E+01
  -0.1916936160651891E-33
   0.1005030734274083E+01
  -0.1607106762251814E-34
   0.1002005256303458E+01
  -0.7527889054540997E-34
   0.1002963035631661E+01
  -0.1155466173845156E-33
   0.1000189589863024E+01
  -0.1045187449512194E-32
   0.1098988557807788E+01
  -0.2269888088817170E-32
   0.1004888002937220E+01
  -0.1505106436994980E-33
   0.1003036691654729E+01
  -0.1733378595078707E-33
   0.1002883925013726E+01
  -0.1599655653627767E-33
   0.1004550900790517E+01
  -0.2363945841297253E-33
   0.1000595636618632E+01
  -0.6301682938825218E-33
   0.1004836513261417E+01
  -0.4745352618041499E-34
   0.9964134845547746E+00
  -0.1343021071213618E-33
   0.1005318894163383E+01
  -0.1613281227416138E-32
   0.1012155267973352E+01
  -0.2524870406992183E-33
   0.1007313054722253E+01
  -0.2019463780147033E-33
   0.1068544154066139E+01
  -0.1119826663496545E-32
   0.1004524841186721E+01
  -0.1697525695036438E-33
   0.1007070790045322E+01
  -0.1971657349711403E-33
   0.9969095212190784E+00
  -0.5858372602173194E-34
   0.9928081320856837E+00
   0.2998999450116713E-34
   0.1001879283645426E+01
  -0.4073954332777055E-33
   0.9868899215125477E+00
  -0.1360252943063637E-32
   0.1003701713198787E+01
  -0.1381506855942033E-33
   0.1003655178305457E+01
  -0.1786513223601060E-33
   0.1009946528292636E+01
  -0.3074939207822746E-33
   0.9763461154047904E+00
  -0.1395953645229078E-32
   0.1021419577290562E+01
  -0.1294731053590454E-32
   0.1001420812295306E+01
   0.2475301989635998E-34
   0.1008564346576916E+01
  -0.3905638751281339E-33
   0.9957895762978595E+00
  -0.1335120743367148E-33
   0.1000898039208221E+01
  -0.1991936564332438E-33
   0.1003882697331155E+01
  -0.2771834327996891E-33
   0.1002273645250808E+01
  -0.7103880937120404E-34
   0.1001848890079918E+01
  -0.1154171681778442E-33
   0.1001928347071539E+01
  -0.1354416349962727E-33
   0.1005485906695411E+01
  -0.1906561684829358E-33
   0.1004592757349668E+01
  -0.1416690643091980E-33
   0.1003795028863235E+01
  -0.1102620456177936E-33
   0.1005476809848100E+01
  -0.1519129530568707E-33
   0.1007593196633056E+01
  -0.1804063159965128E-33
   0.1034675966606065E+01
  -0.6321412115855687E-33
   0.1004011698075206E+01
   0.6564952140269413E-33
   0.1505325594460730E+01
  -0.6354855679658634E-32
   0.9191714352720732E+00
  -0.2514750459199664E-32
   0.9840744242145717E+00
  -0.2048625231538844E-32
   0.9873841766093795E+00
  -0.3732422750224611E-32
   0.9804749964767520E+00
  -0.2232762214747896E-32
   0.8218025306391257E+00
  -0.5731288077044798E-32
   0.9885558776111596E+00
  -0.6781660754060776E-33
   0.1020566520527766E+01
  -0.1920546984172136E-33
   0.1005034356611556E+01
  -0.1579297166391874E-34
   0.1002025158906223E+01
  -0.7526903477071253E-34
   0.1003010445025319E+01
  -0.1157416290092583E-33
   0.1000074050039319E+01
  -0.1043870301661817E-32
   0.1099565660406312E+01
  -0.2270376143784372E-32
   0.1004937115307431E+01
  -0.1506198616830736E-33
   0.1003108833917325E+01
  -0.1735675599775093E-33
   0.1002967676330945E+01
  -0.1601598082162279E-33
   0.1004647016721745E+01
  -0.2366025223507947E-33
   0.1000705025728410E+01
  -0.6310630644789034E-33
   0.1004839132552848E+01
  -0.4740525899132908E-34
   0.9964455155423960E+00
  -0.1342827628290011E-33
   0.1005405068466445E+01
  -0.1612605485174953E-32
   0.1012326399366081E+01
  -0.2525929531082395E-33
   0.1007416426399493E+01
  -0.2021903347350927E-33
   0.1068978283599201E+01
  -0.1120846772643335E-32
   0.1004595717067700E+01
  -0.1699037431031945E-33
   0.1007160166865144E+01
  -0.1974103767890210E-33
   0.9970615817977501E+00
  -0.5891092861501166E-34
   0.9929533361281668E+00
   0.2990805852152891E-34
   0.1002099919765683E+01
  -0.4082978630627910E-33
   0.9869804444325044E+00
  -0.1360151018901613E-32
   0.1003734280771030E+01
  -0.1380513632049336E-33
   0.1003760029858535E+01
  -0.1789254202034026E-33
   0.1010076708316961E+01
  -0.3076164481389907E-33
   0.9766669817947867E+00
  -0.1396214117775168E-32
   0.1021655621682119E+01
  -0.1295142514341284E-32
   0.1001631275540199E+01
   0.2469788559501658E-34
   0.1008732426548839E+01
  -0.3913095747112247E-33
   0.9958681739253120E+00
  -0.1334039866536007E-33
   0.1000963306064539E+01
  -0.1991649618573865E-33
   0.1003940820070833E+01
  -0.2779100502903875E-33
   0.1002262858735450E+01
  -0.7099474989292564E-34
   0.1001817762554194E+01
  -0.1153858420512153E-33
   0.1001880658614478E+01
  -0.1353868357214029E-33
   0.1005434431267015E+01
  -0.1905730061679008E-33
   0.1004551950795202E+01
  -0.1415765395824970E-33
   0.1003774952087250E+01
  -0.1101902131920979E-33
   0.1005438957720681E+01
  -0.1518505603020795E-33
   0.1007524826288162E+01
  -0.1802966050650242E-33
   0.1034560452906777E+01
  -0.6320256004927129E-33
   0.1003828190005830E+01
   0.6567089713603023E-33
   0.1505209750704997E+01
  -0.6354794058738785E-32
   0.9191580065458661E+00
  -0.2514825039521395E-32
   0.9841429372082692E+00
  -0.2049126746238114E-32
   0.9874491444804067E+00
  -0.3733092505852445E-32
   0.9806154351654063E+00
  -0.2233137917847979E-32
   0.8217704882082599E+00
  -0.5730015935117971E-32
   0.9887920933160745E+00
  -0.6781103093706553E-33
   0.1020615692118291E+01
  -0.1924517088882011E-33
   0.1005027540724517E+01
  -0.1590608454028250E-34
   0.1002009950999668E+01
  -0.7521487121025384E-34
   0.1002995251202192E+01
  -0.1157300508196419E-33
   0.1000276375893197E+01
  -0.1044625388457174E-32
   0.1099256317746109E+01
  -0.2269992152832323E-32
   0.1004896400249207E+01
  -0.1505289929883474E-33
   0.1003079733510888E+01
  -0.1735379833828596E-33
   0.1002919385791543E+01
  -0.1600937492699122E-33
   0.1004609179750894E+01
  -0.2365532250474406E-33
   0.1000792332628541E+01
  -0.6314699641333843E-33
   0.1004903874541392E+01
  -0.4780878005383781E-34
   0.9965103662613223E+00
  -0.1346480137266412E-33
   0.1005429511091766E+01
  -0.1613014071333812E-32
   0.1012211218679139E+01
  -0.2524012867084268E-33
   0.1007337281370932E+01
  -0.2020095421216161E-33
   0.1068882550648309E+01
  -0.1120860671966995E-32
   0.1004544167879992E+01
  -0.1698127999010456E-33
   0.1007096889106340E+01
  -0.1972745392238779E-33
   0.9970408983715277E+00
  -0.5908195355970183E-34
   0.9928937435690819E+00
   0.2984132729897725E-34
   0.1002073496991962E+01
  -0.4083933158703306E-33
   0.9870464108769351E+00
  -0.1360678053204348E-32
   0.1003738827016643E+01
  -0.1381279062116103E-33
   0.1003697774775331E+01
  -0.1788062383820833E-33
   0.1010011932169084E+01
  -0.3075560103474491E-33
   0.9765721528657104E+00
  -0.1395915430280232E-32
   0.1021706635841994E+01
  -0.1295466804565963E-32
   0.1001510016523840E+01
   0.2464424789406934E-34
   0.1008778391231586E+01
  -0.3916672530071976E-33
   0.9958614680326280E+00
  -0.1335586964565646E-33
   0.1000955549786467E+01
  -0.1992379736835252E-33
   0.1004051781672080E+01
  -0.2784040708458747E-33
   0.1002273636724101E+01
  -0.7103850916007607E-34
   0.1001848895477496E+01
  -0.1154171321060396E-33
   0.1001928363260919E+01
  -0.1354417373998589E-33
   0.1005485873708131E+01
  -0.1906559996391722E-33
   0.1004592747017139E+01
  -0.1416690838028340E-33
   0.1003795013964303E+01
  -0.1102619492182955E-33
   0.1005476801881937E+01
  -0.1519130571154430E-33
   0.1007593200841365E+01
  -0.1804064806379378E-33
   0.1034675523002346E+01
  -0.6321403407463344E-33
   0.1004012557072667E+01
   0.6564897384514674E-33
   0.1505319222927217E+01
  -0.6354862699846224E-32
   0.9191706393447268E+00
  -0.2514737730667189E-32
   0.9840732487077788E+00
  -0.2048618125193794E-32
   0.9873832125661893E+00
  -0.3732414481661072E-32
   0.9804740811621813E+00
  -0.2232754139904241E-32
   0.8218010558573422E+00
  -0.5731260973352243E-32
   0.9885550424373235E+00
  -0.6781567246758263E-33
   0.1020566396627562E+01
  -0.1920509620375654E-33
   0.1005034395971113E+01
  -0.1579377797792627E-34
   0.1002025143618682E+01
  -0.7526911715291573E-34
   0.1003010426985863E+01
  -0.1157413534855892E-33
   0.1000073126582026E+01
  -0.1043861956233000E-32
   0.1099563436438436E+01
  -0.2270366606856999E-32
   0.1004937103568805E+01
  -0.1506198535822443E-33
   0.1003108807253102E+01
  -0.1735672078356662E-33
   0.1002967681303796E+01
  -0.1601598018097415E-33
   0.1004646951454875E+01
  -0.2366019764712798E-33
   0.1000704640773750E+01
  -0.6310559000149843E-33
   0.1004839158617697E+01
  -0.4740481618063244E-34
   0.9964455390705715E+00
  -0.1342820593222495E-33
   0.1005403971874241E+01
  -0.1612596620050771E-32
   0.1012326346018598E+01
  -0.2525931431905615E-33
   0.1007416405406297E+01
  -0.2021902871081449E-33
   0.1068977304553157E+01
  -0.1120840927863660E-32
   0.1004595705061441E+01
  -0.1699037019479663E-33
   0.1007160139555857E+01
  -0.1974103440943178E-33
   0.9970617239634024E+00
  -0.5891105782488870E-34
   0.9929535658547298E+00
   0.2990748552327689E-34
   0.1002099656612203E+01
  -0.4082924238707288E-33
   0.9869796007135021E+00
  -0.1360140822003007E-32
   0.1003734267677822E+01
  -0.1380515022822973E-33
   0.1003760025097653E+01
  -0.1789252985204591E-33
   0.1010076593304784E+01
  -0.3076160060821449E-33
   0.9766662462641916E+00
  -0.1396205012986802E-32
   0.1021654735036758E+01
  -0.1295133856669660E-32
   0.1001631547302875E+01
   0.2469535629496340E-34
   0.1008732198903942E+01
  -0.3913053500541698E-33
   0.9958682339719850E+00
  -0.1334042454188321E-33
   0.1000963279643954E+01
  -0.1991648390089345E-33
   0.1003940633997281E+01
  -0.2779055669639474E-33
   0.1002238951779539E+01
  -0.7079693187714281E-34
   0.1001784196588728E+01
  -0.1152468618493509E-33
   0.1001851690337992E+01
  -0.1352972948774566E-33
   0.1005416883342716E+01
  -0.1905326034801330E-33
   0.1004542675941188E+01
  -0.1415488426073710E-33
   0.1003773078891921E+01
  -0.1101688225672832E-33
   0.1005435007992722E+01
  -0.1518481341230873E-33
   0.1007530268068038E+01
  -0.1802767324635124E-33
   0.1034537434981107E+01
  -0.6319817245400829E-33
   0.1004050357372466E+01
   0.6564854158786322E-33
   0.1504777436311726E+01
  -0.6355375712992351E-32
   0.9195177685560439E+00
  -0.2516491603510777E-32
   0.9838457972356689E+00
  -0.2048069691871573E-32
   0.9871130024374587E+00
  -0.3731141191485138E-32
   0.9803642274485119E+00
  -0.2229104329192756E-32
   0.8215082662158087E+00
  -0.5726290916025875E-32
   0.9886354197731969E+00
  -0.6783214680029576E-33
   0.1020555348985809E+01
  -0.1916866776924334E-33
   0.1005030790357877E+01
  -0.1607257125139638E-34
   0.1002005220735895E+01
  -0.7527899856092983E-34
   0.1002963011389551E+01
  -0.1155461672170342E-33
   0.1000187853531991E+01
  -0.1045172047920055E-32
   0.1098984415707482E+01
  -0.2269870194612572E-32
   0.1004887985886611E+01
  -0.1505106316265435E-33
   0.1003036653472706E+01
  -0.1733372777415997E-33
   0.1002883939154425E+01
  -0.1599655642507622E-33
   0.1004550795172614E+01
  -0.2363936517543851E-33
   0.1000594968936927E+01
  -0.6301547411387014E-33
   0.1004836585897656E+01
  -0.4745303677874068E-34
   0.9964135475089425E+00
  -0.1343010218922761E-33
   0.1005316700666822E+01
  -0.1613263752090791E-32
   0.1012155180045396E+01
  -0.2524873183268256E-33
   0.1007313022502340E+01
  -0.2019462626984440E-33
   0.1068542325772226E+01
  -0.1119815389394337E-32
   0.1004524824998932E+01
  -0.1697524983157802E-33
   0.1007070747459053E+01
  -0.1971656685034741E-33
   0.9969097963285762E+00
  -0.5858402903076439E-34
   0.9928085683701438E+00
   0.2998886921711628E-34
   0.1001878785921522E+01
  -0.4073853350732635E-33
   0.9868883676522704E+00
  -0.1360233046519180E-32
   0.1003701690249158E+01
  -0.1381509844175434E-33
   0.1003655178849711E+01
  -0.1786511096970961E-33
   0.1009946330661551E+01
  -0.3074931340189804E-33
   0.9763448044739138E+00
  -0.1395937096407982E-32
   0.1021417966550916E+01
  -0.1294715104583584E-32
   0.1001421349756586E+01
   0.2474821667256454E-34
   0.1008563966047030E+01
  -0.3905562903106317E-33
   0.9957896904878052E+00
  -0.1335126439983848E-33
   0.1000898000193235E+01
  -0.1991935168704602E-33
   0.1003882390025502E+01
  -0.2771753690293649E-33
   0.1002301446479215E+01
  -0.7163746691331379E-34
   0.1001908482537067E+01
  -0.1157483139536410E-33
   0.1001998125958637E+01
  -0.1357320015810638E-33
   0.1005484864564460E+01
  -0.1905524080737891E-33
   0.1004616644001268E+01
  -0.1416550159950448E-33
   0.1003800445723863E+01
  -0.1103838704663652E-33
   0.1005530092043821E+01
  -0.1518639148468522E-33
   0.1007771037180435E+01
  -0.1804055902592760E-33
   0.1034860281910638E+01
  -0.6300440287367234E-33
   0.1007230420983017E+01
   0.6432797176570283E-33
   0.1503056646245878E+01
  -0.6360684973990953E-32
   0.9223370415363539E+00
  -0.2532300622753285E-32
   0.9841547694699578E+00
  -0.2052499580978082E-32
   0.9862649925569238E+00
  -0.3730278039582410E-32
   0.9800882941980322E+00
  -0.2214344415362911E-32
   0.8203359472061669E+00
  -0.5707642080007225E-32
   0.9831931699318645E+00
  -0.6672491176169064E-33
   0.1019036097621551E+01
  -0.1878423579002785E-33
   0.1005113404750316E+01
  -0.1462470245300745E-34
   0.1002089967225012E+01
  -0.7501616716531980E-34
   0.1003052606202337E+01
  -0.1161246417575248E-33
   0.9961468881082184E+00
  -0.1030243661916956E-32
   0.1098428242514666E+01
  -0.2262626527355712E-32
   0.1004953393017163E+01
  -0.1505854384078436E-33
   0.1003131962974031E+01
  -0.1738807666609603E-33
   0.1003037477292891E+01
  -0.1605576414259513E-33
   0.1004616022560862E+01
  -0.2363541203815144E-33
   0.9992091810879259E+00
  -0.6303202308143984E-33
   0.1004606385846750E+01
  -0.4708016999057918E-34
   0.9964286314501076E+00
  -0.1350203742911782E-33
   0.1002817480244743E+01
  -0.1614642849999539E-32
   0.1012493449535419E+01
  -0.2518142906511959E-33
   0.1007513186868154E+01
  -0.2027348102165520E-33
   0.1068120317689910E+01
  -0.1121430776964934E-32
   0.1004633751226861E+01
  -0.1700705225886741E-33
   0.1007244488132675E+01
  -0.1979576536636008E-33
   0.9975286153454787E+00
  -0.6144567979034931E-34
   0.9934920170442224E+00
   0.2696431553947572E-34
   0.1001877489989877E+01
  -0.4133601917593414E-33
   0.9846820563826932E+00
  -0.1360618569256098E-32
   0.1003697420927612E+01
  -0.1369347965640229E-33
   0.1003860009588820E+01
  -0.1794109000731152E-33
   0.1010028703200075E+01
  -0.3062941519492651E-33
   0.9755356854490522E+00
  -0.1400616964267758E-32
   0.1019510059181874E+01
  -0.1294659535633105E-32
   0.1002650998269693E+01
   0.1930515272901870E-34
   0.1008311398501776E+01
  -0.3943652351324996E-33
   0.9960549545311854E+00
  -0.1331968359016654E-33
   0.1000964551018002E+01
  -0.1982288660599268E-33
   0.1003391802266986E+01
  -0.2810785186865103E-33
SCALARS u double 1
LOOKUP_TABLE default
   0.5000841443329128E+00
  -0.5392483317115030E-35
   0.4992070228696410E+00
   0.1500314254498778E-33
   0.4996998425322293E+00
   0.1961352025134195E-33
   0.4941997506639957E+00
   0.2452924285727534E-33
   0.4931511153755192E+00
   0.2086390435501126E-33
   0.4958214858247290E+00
   0.1141168978010115E-33
   0.4949144744531302E+00
   0.1474884793837648E-33
   0.4919613415769325E+00
   0.1999819327068126E-33
   0.4684502406765891E+00
   0.4713423216478463E-33
   0.4836510244253291E+00
  -0.1413606334964476E-33
   0.0000000000000000E+00
   0.0000000000000000E+00
   0.0000000000000000E+00
   0.0000000000000000E+00
   0.0000000000000000E+00
   0.0000000000000000E+00
   0.0000000000000000E+00
   0.0000000000000000E+00
   0.0000000000000000E+00
   0.0000000000000000E+00
   0.0000000000000000E+00
   0.0000000000000000E+00
   0.4774084666962988E+00
   0.7126597499116353E-33
   0.5239572593450822E+00
  -0.8827683692043315E-34
   0.5120339650363783E+00
  -0.1811034737074123E-33
   0.4994262462052163E+00
  -0.3750374977688862E-34
   0.4978314446379378E+00
   0.8943331060877400E-34
   0.3976735957816193E+00
   0.1345095974479711E-32
   0.4468329568299981E+00
  -0.6644990457687122E-33
   0.4947257008590128E+00
   0.1716571395718571E-33
   0.4979477216772761E+00
   0.1675458154409262E-33
   0.4986051647999388E+00
   0.1996994477214618E-33
   0.4985890313384256E+00
   0.2054390258354189E-33
   0.5704142342895444E+00
   0.3472330354447866E-33
   0.5373405278826757E+00
  -0.6381727823403615E-34
   0.5496928801993486E+00
   0.9421692888230926E-34
   0.3071420947498295E+00
   0.4375605427777662E-33
   0.4888420460971833E+00
   0.2257096742241243E-33
   0.4922475068523067E+00