# vtk DataFile Version 2.0
FUN3D:global_image_vtk
ASCII
DATASET UNSTRUCTURED_GRID
POINTS 350 double
    0.5000000000000000E+01    0.0000000000000000E+00    0.2359021508662148E-17
    0.0000000000000000E+00    0.5000000000000000E+01    0.0000000000000000E+00
    0.4000000000000000E+01    0.0000000000000000E+00    0.2359021508662148E-17
    0.0000000000000000E+00    0.5000000000000000E+01    0.0000000000000000E+00
    0.3000000000000000E+01    0.0000000000000000E+00    0.2359021508662148E-17
    0.0000000000000000E+00    0.5000000000000000E+01    0.0000000000000000E+00
    0.2000000000000000E+01    0.0000000000000000E+00    0.2359021508662148E-17
    0.0000000000000000E+00    0.5000000000000000E+01    0.0000000000000000E+00
    0.9999999999999998E+00    0.0000000000000000E+00    0.2359021508662148E-17
    0.0000000000000000E+00    0.5000000000000000E+01    0.0000000000000000E+00
    0.2359021508662148E-17    0.0000000000000000E+00    0.2359021508662148E-17
    0.0000000000000000E+00    0.5000000000000000E+01    0.0000000000000000E+00
    0.2359021508662148E-17    0.0000000000000000E+00    0.2359021508662148E-17
    0.0000000000000000E+00    0.4000000000000000E+01    0.0000000000000000E+00
    0.2359021508662148E-17    0.0000000000000000E+00    0.2359021508662148E-17
    0.0000000000000000E+00    0.3000000000000000E+01    0.0000000000000000E+00
    0.2359021508662148E-17    0.0000000000000000E+00    0.2359021508662148E-17
    0.0000000000000000E+00    0.2000000000000000E+01    0.0000000000000000E+00
    0.2359021508662148E-17    0.0000000000000000E+00    0.2359021508662148E-17
    0.0000000000000000E+00    0.9999999999999998E+00    0.0000000000000000E+00
    0.2359021508662148E-17    0.0000000000000000E+00    0.2359021508662148E-17
    0.0000000000000000E+00    0.2359021508662148E-17    0.0000000000000000E+00
    0.9999999999999999E+00    0.0000000000000000E+00    0.2359021508662148E-17
    0.0000000000000000E+00    0.2359021508662148E-17    0.0000000000000000E+00
    0.2000000000000000E+01    0.0000000000000000E+00    0.2359021508662148E-17
    0.0000000000000000E+00    0.2359021508662148E-17    0.0000000000000000E+00
    0.3000000000000000E+01    0.0000000000000000E+00    0.2359021508662148E-17
    0.0000000000000000E+00    0.2359021508662148E-17    0.0000000000000000E+00
    0.4000000000000000E+01    0.0000000000000000E+00    0.2359021508662148E-17
    0.0000000000000000E+00    0.2359021508662148E-17    0.0000000000000000E+00
    0.5000000000000000E+01    0.0000000000000000E+00    0.2359021508662148E-17
    0.0000000000000000E+00    0.2359021508662148E-17    0.0000000000000000E+00
    0.5000000000000000E+01    0.0000000000000000E+00    0.2359021508662148E-17
    0.0000000000000000E+00    0.1000000000000000E+01    0.0000000000000000E+00
    0.5000000000000000E+01    0.0000000000000000E+00    0.2359021508662148E-17
    0.0000000000000000E+00    0.2000000000000000E+01    0.0000000000000000E+00
    0.5000000000000000E+01    0.0000000000000000E+00    0.2359021508662148E-17
    0.0000000000000000E+00    0.3000000000000000E+01    0.0000000000000000E+00
    0.5000000000000000E+01    0.0000000000000000E+00    0.2359021508662148E-17
    0.0000000000000000E+00    0.4000000000000000E+01    0.0000000000000000E+00
    0.4322050724693945E+01    0.0000000000000000E+00    0.2359021508662148E-17
    0.0000000000000000E+00    0.4272847764579289E+01    0.0000000000000000E+00
    0.4395933514933383E+01    0.0000000000000000E+00    0.2359021508662148E-17
    0.0000000000000000E+00    0.6968157305690375E+00    0.0000000000000000E+00
    0.4822566552045414E+00    0.0000000000000000E+00    0.2359021508662148E-17
    0.0000000000000000E+00    0.4869914123714657E+00    0.0000000000000000E+00
    0.6915840874870021E+00    0.0000000000000000E+00    0.2359021508662148E-17
    0.0000000000000000E+00    0.4412138888481547E+01    0.0000000000000000E+00
    0.3399851674277183E+01    0.0000000000000000E+00    0.2359021508662148E-17
    0.0000000000000000E+00    0.4097916069546335E+01    0.0000000000000000E+00
    0.2387722604716090E+01    0.0000000000000000E+00    0.2359021508662148E-17
    0.0000000000000000E+00    0.4289612581570788E+01    0.0000000000000000E+00
    0.2530539425941974E+01    0.0000000000000000E+00    0.2359021508662148E-17
    0.0000000000000000E+00    0.3425796000045182E+01    0.0000000000000000E+00
    0.4218243643927281E+01    0.0000000000000000E+00    0.2359021508662148E-17
    0.0000000000000000E+00    0.1577295032585114E+01    0.0000000000000000E+00
    0.4374706835472756E+01    0.0000000000000000E+00    0.2359021508662148E-17
    0.0000000000000000E+00    0.2456049093849535E+01    0.0000000000000000E+00
    0.3551860412513510E+01    0.0000000000000000E+00    0.2359021508662148E-17
    0.0000000000000000E+00    0.2339930221808592E+01    0.0000000000000000E+00
    0.2949794352503393E+01    0.0000000000000000E+00    0.2359021508662148E-17
    0.0000000000000000E+00    0.5481475950050476E+00    0.0000000000000000E+00
    0.7861633687955188E+00    0.0000000000000000E+00    0.2359021508662148E-17
    0.0000000000000000E+00    0.2248355130517770E+01    0.0000000000000000E+00
    0.5798833877919640E+00    0.0000000000000000E+00    0.2359021508662148E-17
    0.0000000000000000E+00    0.2968095534677868E+01    0.0000000000000000E+00
    0.9567989459488916E+00    0.0000000000000000E+00    0.2359021508662148E-17
    0.0000000000000000E+00    0.9597666531489262E+00    0.0000000000000000E+00
    0.1484741644122566E+01    0.0000000000000000E+00    0.2359021508662148E-17
    0.0000000000000000E+00    0.4363965165706898E+01    0.0000000000000000E+00
    0.1026777559850325E+01    0.0000000000000000E+00    0.2359021508662148E-17
    0.0000000000000000E+00    0.3706650893855072E+01    0.0000000000000000E+00
    0.2039106473515760E+01    0.0000000000000000E+00    0.2359021508662148E-17
    0.0000000000000000E+00    0.1998969209862488E+01    0.0000000000000000E+00
    0.1300624340922514E+01    0.0000000000000000E+00    0.2359021508662148E-17
    0.0000000000000000E+00    0.1814065253577793E+01    0.0000000000000000E+00
    0.1818986365136347E+01    0.0000000000000000E+00    0.2359021508662148E-17
    0.0000000000000000E+00    0.1286729705298721E+01    0.0000000000000000E+00
    0.3653583824847581E+01    0.0000000000000000E+00    0.2359021508662148E-17
    0.0000000000000000E+00    0.9901573836014240E+00    0.0000000000000000E+00
    0.4143524820619449E+01    0.0000000000000000E+00    0.2359021508662148E-17
    0.0000000000000000E+00    0.3349542163936307E+01    0.0000000000000000E+00
    0.1820064053502506E+01    0.0000000000000000E+00    0.2359021508662148E-17
    0.0000000000000000E+00    0.3699731047579209E+01    0.0000000000000000E+00
    0.1584392186197914E+01    0.0000000000000000E+00    0.2359021508662148E-17
    0.0000000000000000E+00    0.2795974726684905E+01    0.0000000000000000E+00
    0.1600595232801024E+01    0.0000000000000000E+00    0.2359021508662148E-17
    0.0000000000000000E+00    0.6068725132371939E+00    0.0000000000000000E+00
    0.2227190852919879E+01    0.0000000000000000E+00    0.2359021508662148E-17
    0.0000000000000000E+00    0.7878662077383224E+00    0.0000000000000000E+00
    0.6087173311333847E+00    0.0000000000000000E+00    0.2359021508662148E-17
    0.0000000000000000E+00    0.1604437407448898E+01    0.0000000000000000E+00
    0.2791514824717063E+01    0.0000000000000000E+00    0.2359021508662148E-17
    0.0000000000000000E+00    0.1521675228311488E+01    0.0000000000000000E+00
    0.2652084981436515E+01    0.0000000000000000E+00    0.2359021508662148E-17
    0.0000000000000000E+00    0.2569083733163254E+01    0.0000000000000000E+00
    0.3287666143370331E+01    0.0000000000000000E+00    0.2359021508662148E-17
    0.0000000000000000E+00    0.3173897562080839E+01    0.0000000000000000E+00
    0.3566016613004364E+01    0.0000000000000000E+00    0.2359021508662148E-17
    0.0000000000000000E+00    0.1597010715137857E+01    0.0000000000000000E+00
    0.5000000000000000E+01    0.0000000000000000E+00   -0.8333333333333334E+00
    0.0000000000000000E+00    0.5000000000000000E+01    0.0000000000000000E+00
    0.4000000000000000E+01    0.0000000000000000E+00   -0.8333333333333334E+00
    0.0000000000000000E+00    0.5000000000000000E+01    0.0000000000000000E+00
    0.3000000000000000E+01    0.0000000000000000E+00   -0.8333333333333334E+00
    0.0000000000000000E+00    0.5000000000000000E+01    0.0000000000000000E+00
    0.2000000000000000E+01    0.0000000000000000E+00   -0.8333333333333334E+00
    0.0000000000000000E+00    0.5000000000000000E+01    0.0000000000000000E+00
    0.9999999999999998E+00    0.0000000000000000E+00   -0.8333333333333334E+00
    0.0000000000000000E+00    0.5000000000000000E+01    0.0000000000000000E+00
    0.2359021508662148E-17    0.0000000000000000E+00   -0.8333333333333334E+00
    0.0000000000000000E+00    0.5000000000000000E+01    0.0000000000000000E+00
    0.2359021508662148E-17    0.0000000000000000E+00   -0.8333333333333334E+00
    0.0000000000000000E+00    0.4000000000000000E+01    0.0000000000000000E+00
    0.2359021508662148E-17    0.0000000000000000E+00   -0.8333333333333334E+00
    0.0000000000000000E+00    0.3000000000000000E+01    0.0000000000000000E+00
    0.2359021508662148E-17    0.0000000000000000E+00   -0.8333333333333334E+00
    0.0000000000000000E+00    0.2000000000000000E+01    0.0000000000000000E+00
    0.2359021508662148E-17    0.0000000000000000E+00   -0.8333333333333334E+00
    0.0000000000000000E+00    0.9999999999999998E+00    0.0000000000000000E+00
    0.2359021508662148E-17    0.0000000000000000E+00   -0.8333333333333334E+00
    0.0000000000000000E+00    0.2359021508662148E-17    0.0000000000000000E+00
    0.9999999999999999E+00    0.0000000000000000E+00   -0.8333333333333334E+00
    0.0000000000000000E+00    0.2359021508662148E-17    0.0000000000000000E+00
    0.2000000000000000E+01    0.0000000000000000E+00   -0.8333333333333334E+00
[...]
POINT_DATA 350
SCALARS rho double 1
LOOKUP_TABLE default
   0.1002311249067139E+01
  -0.7168216455406732E-34
   0.1001933988932266E+01
  -0.1159368060508350E-33
   0.1002006563884641E+01
  -0.1358129550646563E-33
   0.1005495079136101E+01
  -0.1906849083674149E-33
   0.1004622595032168E+01
  -0.1417372556210785E-33
   0.1003802768576699E+01
  -0.1104133050175519E-33
   0.1005533508941900E+01
  -0.1519055760467343E-33
   0.1007775735886254E+01
  -0.1804494093202089E-33
   0.1034865394530011E+01
  -0.6301096783835039E-33
   0.1007230742211115E+01
   0.6432863954030459E-33
   0.1503078819979634E+01
  -0.6360723471631831E-32
   0.9223445874859847E+00
  -0.2532395363864536E-32
   0.9841672288597388E+00
  -0.2052595831223621E-32
   0.9862790981245368E+00
  -0.3730431942350622E-32
   0.9801043810054292E+00
  -0.2214500817019680E-32
   0.8203608751608342E+00
  -0.5707988271504736E-32
   0.9832166250115414E+00
  -0.6674297742022336E-33
   0.1019028076170835E+01
  -0.1878092076605698E-33
   0.1005120536991488E+01
  -0.1466011215499071E-34
   0.1002078688872924E+01
  -0.7493357042322647E-34
   0.1003051924762139E+01
  -0.1160976371486213E-33
   0.9961879074145299E+00
  -0.1030516894248723E-32
   0.1098440174007435E+01
  -0.2262722346323101E-32
   0.1004959725518236E+01
  -0.1506599009356069E-33
   0.1003131620844155E+01
  -0.1738559073384532E-33
   0.1003044784601379E+01
  -0.1606014069979624E-33
   0.1004625183979462E+01
  -0.2364456021157174E-33
   0.9992026562797440E+00
  -0.6303108553764096E-33
   0.1004612772270747E+01
  -0.4710366455499933E-34
   0.9964366830720814E+00
  -0.1350865801427655E-33
   0.1002836576650886E+01
  -0.1614750403280547E-32
   0.1012498812106918E+01
  -0.2518580766458358E-33
   0.1007519064361885E+01
  -0.2028022422628251E-33
   0.1068126463100981E+01
  -0.1121504303562500E-32
   0.1004639975490873E+01
  -0.1701261992637271E-33
   0.1007250353860901E+01
  -0.1980270794687370E-33
   0.9975344183807142E+00
  -0.6150260938566483E-34
   0.9934949036245304E+00
   0.2692179134520100E-34
   0.1001884362160514E+01
  -0.4134040066640344E-33
   0.9846969424002628E+00
  -0.1360768813519496E-32
   0.1003699091891880E+01
  -0.1369774270355098E-33
   0.1003866729530563E+01
  -0.1794877548172254E-33
   0.1010033297522727E+01
  -0.3063427807269767E-33
   0.9755431929312601E+00
  -0.1400693016098127E-32
   0.1019515469178892E+01
  -0.1294737048457571E-32
   0.1002654991869199E+01
   0.1928005180045911E-34
   0.1008313276223265E+01
  -0.3944102506994582E-33
   0.9960589980485602E+00
  -0.1332291826639112E-33
   0.1000972542913386E+01
  -0.1983287819963442E-33
   0.1003392006881416E+01
  -0.2810236755611383E-33
   0.1002249399561288E+01
  -0.7084910875121692E-34
   0.1001794454235011E+01
  -0.1153486233239394E-33
   0.1001855445496185E+01
  -0.1353711611483003E-33
   0.1005431244683595E+01
  -0.1906742034821683E-33
   0.1004550407870498E+01
  -0.1416280156134386E-33
   0.1003776558636361E+01
  -0.1102148115517433E-33
   0.1005438801763683E+01
  -0.1518845794448427E-33
   0.1007534576549622E+01
  -0.1803127325668081E-33
   0.1034544510756492E+01
  -0.6320398441548941E-33
   0.1004052476090597E+01
   0.6564846743854394E-33
   0.1504795640078787E+01
  -0.6355432225632356E-32
   0.9195262128259107E+00
  -0.2516603563075682E-32
   0.9838578626011708E+00
  -0.2048186252747830E-32
   0.9871210584158632E+00
  -0.3731245007002973E-32
   0.9803678128346440E+00
  -0.2229139522878595E-32
   0.8215100430524245E+00
  -0.5726327753284834E-32
   0.9886203175139211E+00
  -0.6782150161763651E-33
   0.1020569449381850E+01
  -0.1917724164755312E-33
   0.1005028032948607E+01
  -0.1609842538680385E-34
   0.1001998141425721E+01
  -0.7522840327442131E-34
   0.1002965040228888E+01
  -0.1155495568934686E-33
   0.1000169019759602E+01
  -0.1045095675303042E-32
   0.1098992607135937E+01
  -0.2269961095194317E-32
   0.1004894075407745E+01
  -0.1505813841887868E-33
   0.1003037290543391E+01
  -0.1733222767113009E-33
   0.1002888526339839E+01
  -0.1599904859275606E-33
   0.1004559616098583E+01
  -0.2364779923891449E-33
   0.1000604716002687E+01
  -0.6301995019545656E-33
   0.1004836731918092E+01
  -0.4749522315302701E-34
   0.9964159787903595E+00
  -0.1343408133503723E-33
   0.1005315890798615E+01
  -0.1613260537664659E-32
   0.1012159326989775E+01
  -0.2525359339739852E-33
   0.1007319884663012E+01
  -0.2020220436222690E-33
   0.1068550599185936E+01
  -0.1119892023282086E-32
   0.1004530301592477E+01
  -0.1698009179493963E-33
   0.1007077610335932E+01
  -0.1972452452269861E-33
   0.9969148402693785E+00
  -0.5863572098107347E-34
   0.9928141737834290E+00
   0.2993878110510032E-34
   0.1001882776629003E+01
  -0.4074466823091834E-33
   0.9868912536262431E+00
  -0.1360315454251455E-32
   0.1003702114886027E+01
  -0.1381680019929436E-33
   0.1003662114367583E+01
  -0.1787446623108625E-33
   0.1009951976312274E+01
  -0.3075440817811233E-33
   0.9763494620466279E+00
  -0.1396019873547943E-32
   0.1021427107939225E+01
  -0.1294801913637487E-32
   0.1001425065645319E+01
   0.2470411419018725E-34
   0.1008571892229121E+01
  -0.3906400660172895E-33
   0.9957914106919622E+00
  -0.1335183371232964E-33
   0.1000905750317225E+01
  -0.1992623297528618E-33
   0.1003886952430917E+01
  -0.2771924718596969E-33
   0.1002281909113190E+01
  -0.7109919588815394E-34
   0.1001867369120051E+01
  -0.1155823787212732E-33
   0.1001936375573194E+01
  -0.1355196299724273E-33
   0.1005498563010946E+01
  -0.1907851879550060E-33
   0.1004599443098075E+01
  -0.1417552067928895E-33
   0.1003797869918180E+01
  -0.1103004709648592E-33
   0.1005480349899758E+01
  -0.1519531996543063E-33
   0.1007597496458582E+01
  -0.1804489062551926E-33
   0.1034681013851829E+01
  -0.6321989508555903E-33
   0.1004014748775238E+01
   0.6564876688711037E-33
   0.1505330904811840E+01
  -0.6354916825367441E-32
   0.9191770046950504E+00
  -0.2514819887913063E-32
   0.9840819874037752E+00
  -0.2048715087366162E-32
   0.9873905624223250E+00
  -0.3732517650775168E-32
   0.9804815194062891E+00
  -0.2232830866424257E-32
   0.8218079330819476E+00
  -0.5731316157697038E-32
   0.9885609236215758E+00
  -0.6781823886285808E-33
   0.1020569132750438E+01
  -0.1920680379806319E-33
   0.1005037699417068E+01
  -0.1580893142280260E-34
   0.1002016554538488E+01
  -0.7519525110263140E-34
   0.1003011100943932E+01
  -0.1157369069092883E-33
   0.1000084808486652E+01
  -0.1043955869564584E-32
   0.1099570202149486E+01
  -0.2270447128927112E-32
   0.1004943231199316E+01
  -0.1506925090954434E-33
   0.1003109018792113E+01
  -0.1735532145154399E-33
   0.1002973598214789E+01
  -0.1601927165710720E-33
   0.1004656023265466E+01
  -0.2366982672024560E-33
   0.1000706557358813E+01
  -0.6310659414711768E-33
   0.1004843098197399E+01
  -0.4743158084113799E-34
   0.9964513765318083E+00
  -0.1343339005994875E-33
   0.1005411113780771E+01
  -0.1612639171902654E-32
   0.1012330578798989E+01
  -0.2526355002153922E-33
   0.1007422669419515E+01
  -0.2022590443154703E-33
   0.1068983143358170E+01
  -0.1120907719604402E-32
   0.1004601431568804E+01
  -0.1699520285808144E-33
   0.1007166418807267E+01
  -0.1974818380339988E-33
   0.9970672866926904E+00
  -0.5896967475774924E-34
   0.9929581107996067E+00
   0.2985903206201363E-34
   0.1002104519397885E+01
  -0.4083365545070552E-33
   0.9869882766956666E+00
  -0.1360249728696883E-32
   0.1003736026955624E+01
  -0.1380749237530055E-33
   0.1003767087763481E+01
  -0.1790102657240016E-33
   0.1010081611088094E+01
  -0.3076678548740311E-33
   0.9766709720871708E+00
  -0.1396268141182295E-32
   0.1021660959398635E+01
  -0.1295206395615161E-32
   0.1001635566102834E+01
   0.2466088591669663E-34
   0.1008737314319084E+01
  -0.3913660169620231E-33
   0.9958717693319606E+00
  -0.1334329439424326E-33
   0.1000971370056666E+01
  -0.1992585003489469E-33
   0.1003942629935277E+01
  -0.2778815423998500E-33
   0.1002274610428985E+01
  -0.7102829365790670E-34
   0.1001834907547495E+01
  -0.1154989486574122E-33
   0.1001885222941344E+01
  -0.1354628407608115E-33
   0.1005446863778427E+01
  -0.1907222693160480E-33
   0.1004559216604512E+01
  -0.1416550511558523E-33
   0.1003777888997308E+01
  -0.1102272362565617E-33
   0.1005442661111263E+01
  -0.1518888653364480E-33
   0.1007529415890051E+01
  -0.1803338401923143E-33
   0.1034566056446685E+01
  -0.6320879785630103E-33
   0.1003831474667151E+01
   0.6566989888522743E-33
   0.1505215391271686E+01
  -0.6354861741499407E-32
   0.9191640689801452E+00
  -0.2514900298585120E-32
   0.9841501242155982E+00
  -0.2049203570423718E-32
   0.9874551436511955E+00
  -0.3733175305633262E-32
   0.9806196661590107E+00
  -0.2233193351444105E-32
   0.8217792600335050E+00
  -0.5730123485408596E-32
   0.9887896654904209E+00
  -0.6780981704477625E-33
   0.1020620428360147E+01
  -0.1924843773696208E-33
   0.1005028210407733E+01
  -0.1595316270270387E-34
   0.1002000702145007E+01
  -0.7515797432704108E-34
   0.1002995858010496E+01
  -0.1157136422008757E-33
   0.1000278479856064E+01
  -0.1044660437255301E-32
   0.1099261389273697E+01
  -0.2270064876357259E-32
   0.1004902683095364E+01
  -0.1506007532688130E-33
   0.1003079373946326E+01
  -0.1735116645856174E-33
   0.1002925009669953E+01
  -0.1601260049413778E-33
   0.1004618091764562E+01
  -0.2366307149013243E-33
   0.1000794011755827E+01
  -0.6314677930976507E-33
   0.1004906416494858E+01
  -0.4785210321356579E-34
   0.9965152174347987E+00
  -0.1346994765839224E-33
   0.1005433525666227E+01
  -0.1613022622211246E-32
   0.1012215980554530E+01
  -0.2524507476000044E-33
   0.1007343860380045E+01
  -0.2020850708497586E-33
   0.1068887879032324E+01
  -0.1120923373542452E-32
   0.1004550022685752E+01
  -0.1698659717940363E-33
   0.1007103280448847E+01
  -0.1973530836504682E-33
   0.9970463896909629E+00
  -0.5913278589902124E-34
   0.9928990146750963E+00
   0.2979449446025848E-34
   0.1002077889546167E+01
  -0.4084351186165224E-33
   0.9870517008850856E+00
  -0.1360743834678446E-32
   0.1003739112286345E+01
  -0.1381618521231190E-33
   0.1003704660566497E+01
  -0.1788934769728653E-33
   0.1010016675585698E+01
  -0.3076010344524291E-33
   0.9765766205853735E+00
  -0.1395979412474237E-32
   0.1021712663604200E+01
  -0.1295528964445671E-32
   0.1001514656697831E+01
   0.2459986784383128E-34
   0.1008783097082645E+01
  -0.3917234435783527E-33
   0.9958636489180074E+00
  -0.1335665702972957E-33
   0.1000963156913951E+01
  -0.1993129852950624E-33
   0.1004053548582452E+01
  -0.2783836741308671E-33
   0.1002281900102000E+01
  -0.7109889255694296E-34
   0.1001867375071643E+01
  -0.1155823455175963E-33
   0.1001936392718935E+01
  -0.1355197408576588E-33
   0.1005498529779344E+01
  -0.1907850173172646E-33
   0.1004599432662121E+01
  -0.1417552251854178E-33
   0.1003797855031332E+01
  -0.1103003760687961E-33
   0.1005480341888971E+01
  -0.1519533034203409E-33
   0.1007597500748296E+01
  -0.1804490715996382E-33
   0.1034680570046805E+01
  -0.6321980793396897E-33
   0.1004015607786775E+01
   0.6564821926892870E-33
   0.1505324533277203E+01
  -0.6354923845706358E-32
   0.9191762088085210E+00
  -0.2514807160142995E-32
   0.9840808119391212E+00
  -0.2048707982057425E-32
   0.9873895980482701E+00
  -0.3732509379769517E-32
   0.9804806046064680E+00
  -0.2232822796057075E-32
   0.8218064583878423E+00
  -0.5731289047699849E-32
   0.9885600903857091E+00
  -0.6781730522806923E-33
   0.1020569007346084E+01
  -0.1920642924768243E-33
   0.1005037739087954E+01
  -0.1580973577162745E-34
   0.1002016539356006E+01
  -0.7519533703037625E-34
   0.1003011082983734E+01
  -0.1157366330812500E-33
   0.1000083888585572E+01
  -0.1043947542687577E-32
   0.1099567978419877E+01
  -0.2270437591943027E-32
   0.1004943219512869E+01
  -0.1506925017195421E-33
   0.1003108992191372E+01
  -0.1735528632387201E-33
   0.1002973603307985E+01
  -0.1601927099372608E-33
   0.1004655957874701E+01
  -0.2366977217592878E-33
   0.1000706171362896E+01
  -0.6310587755551412E-33
   0.1004843124333618E+01
  -0.4743113506549577E-34
   0.9964514003315539E+00
  -0.1343331980396009E-33
   0.1005410018836759E+01
  -0.1612630311249052E-32
   0.1012330525613515E+01
  -0.2526356905110786E-33
   0.1007422648337220E+01
  -0.2022589957798210E-33
   0.1068982164166337E+01
  -0.1120901875309856E-32
   0.1004601419614450E+01
  -0.1699519877734805E-33
   0.1007166391570594E+01
  -0.1974818058626073E-33
   0.9970674290230301E+00
  -0.5896980429617530E-34
   0.9929583402708750E+00
   0.2985845940642572E-34
   0.1002104256687468E+01
  -0.4083311168052748E-33
   0.9869874337909225E+00
  -0.1360239534941774E-32
   0.1003736014077962E+01
  -0.1380750645933775E-33
   0.1003767083231077E+01
  -0.1790101458731655E-33
   0.1010081496125994E+01
  -0.3076674147497661E-33
   0.9766702369992136E+00
  -0.1396259037992317E-32
   0.1021660072186007E+01
  -0.1295197737519174E-32
   0.1001635838028924E+01
   0.2465835591661687E-34
   0.1008737086279578E+01
  -0.3913617934534842E-33
   0.9958718298433147E+00
  -0.1334332061105801E-33
   0.1000971343436274E+01
  -0.1992583754192582E-33
   0.1003942443313314E+01
  -0.2778770574649420E-33
   0.1002249391746464E+01
  -0.7084860618490240E-34
   0.1001794466500492E+01
  -0.1153485712207213E-33
   0.1001855472588414E+01
  -0.1353713177360398E-33
   0.1005431191224772E+01
  -0.1906739093712051E-33
   0.1004550391513576E+01
  -0.1416280433618077E-33
   0.1003776534086550E+01
  -0.1102146299280060E-33
   0.1005438792064694E+01
  -0.1518847682979887E-33
   0.1007534591619111E+01
  -0.1803130031824737E-33
   0.1034543719046083E+01
  -0.6320382109480165E-33
   0.1004054075763915E+01
   0.6564745331803561E-33
   0.1504783434190050E+01
  -0.6355446505246396E-32
   0.9195246199663014E+00
  -0.2516578536101234E-32
   0.9838544494611723E+00
  -0.2048168373057228E-32
   0.9871179640062927E+00
  -0.3731220825580750E-32
   0.9803650394890624E+00
  -0.2229118484608075E-32
   0.8215054811019471E+00
  -0.5726243176352264E-32
   0.9886188564168749E+00
  -0.6781979241137474E-33
   0.1020569252902115E+01
  -0.1917654920991037E-33
   0.1005028088534452E+01
  -0.1609992607667290E-34
   0.1001998106657843E+01
  -0.7522851464519799E-34
   0.1002965016214983E+01
  -0.1155491084112750E-33
   0.1000167279630725E+01
  -0.1045080241066634E-32
   0.1098988464742163E+01
  -0.2269943198376312E-32
   0.1004894058125200E+01
  -0.1505813695573376E-33
   0.1003037252568654E+01
  -0.1733216971603448E-33
   0.1002888540111037E+01
  -0.1599904839169844E-33
   0.1004559510077067E+01
  -0.2364770562419516E-33
   0.1000604049529518E+01
  -0.6301859580547822E-33
   0.1004836804137637E+01
  -0.4749473330374898E-34
   0.9964160410841714E+00
  -0.1343397236518363E-33
   0.1005313695902421E+01
  -0.1613243055550432E-32
   0.1012159238890625E+01
  -0.2525362104224173E-33
   0.1007319852433683E+01
  -0.2020219286919417E-33
   0.1068548770991201E+01
  -0.1119880749094409E-32
   0.1004530285049067E+01
  -0.1698008443788996E-33
   0.1007077567759247E+01
  -0.1972451794724400E-33
   0.9969151151905609E+00
  -0.5863602243426476E-34
   0.9928146101295279E+00
   0.2993765620141337E-34
   0.1001882278491171E+01
  -0.4074365803273511E-33
   0.9868896988539921E+00
  -0.1360295553529268E-32
   0.1003702091912946E+01
  -0.1381683004048652E-33
   0.1003662114447230E+01
  -0.1787444457064086E-33
   0.1009951778639022E+01
  -0.3075432938838824E-33
   0.9763481507374712E+00
  -0.1396003322562811E-32
   0.1021425497398444E+01
  -0.1294785965186899E-32
   0.1001425602908764E+01
   0.2469931260381213E-34
   0.1008571511908352E+01
  -0.3906324820498178E-33
   0.9957915245198848E+00
  -0.1335189031583425E-33
   0.1000905711087893E+01
  -0.1992621883244027E-33
   0.1003886645750673E+01
  -0.2771844119591508E-33
   0.1002311239701849E+01
  -0.7168147938174089E-34
   0.1001934011500286E+01
  -0.1159368391749204E-33
   0.1002006597454540E+01
  -0.1358132558557581E-33
   0.1005495003729542E+01
  -0.1906845290280614E-33
   0.1004622573502212E+01
  -0.1417373155854992E-33
   0.1003802736233345E+01
  -0.1104130688358720E-33
   0.1005533501290219E+01
  -0.1519058715149955E-33
   0.1007775761462312E+01
  -0.1804498284384169E-33
   0.1034864310004002E+01
  -0.6301071958920731E-33
   0.1007232904726336E+01
   0.6432717473628445E-33
   0.1503061249727004E+01
  -0.6360741066754960E-32
   0.9223418046998280E+00
  -0.2532357791654568E-32
   0.9841613863173747E+00
  -0.2052566888609403E-32
   0.9862721780041700E+00
  -0.3730379637372253E-32
   0.9800982100842003E+00
  -0.2214461938558524E-32
   0.8203529489274414E+00
  -0.5707843021005213E-32
   0.9832146686618030E+00
  -0.6674038367248562E-33
   0.1019027907728810E+01
  -0.1877994722099957E-33
   0.1005120614608309E+01
  -0.1466227387633031E-34
   0.1002078640724671E+01
  -0.7493373077550256E-34
   0.1003051889599491E+01
  -0.1160970220131867E-33
   0.9961851696656295E+00
  -0.1030492483770987E-32
   0.1098434209037637E+01
  -0.2262696225934256E-32
   0.1004959705382729E+01
  -0.1506599216955941E-33
   0.1003131562651101E+01
  -0.1738551388413145E-33
   0.1003044800540631E+01
  -0.1606014764135193E-33
   0.1004625023508208E+01
  -0.2364443422986431E-33
   0.9992018098892057E+00
  -0.6302914124536935E-33
   0.1004612880115427E+01
  -0.4710305064330096E-34
   0.9964367567367849E+00
  -0.1350850457516335E-33
   0.1002833348955004E+01
  -0.1614723773279756E-32
   0.1012498679202634E+01
  -0.2518584970380003E-33
   0.1007519017453953E+01
  -0.2028021360831568E-33
   0.1068123858065624E+01
  -0.1121487772877141E-32
   0.1004639953736458E+01
  -0.1701261525699387E-33
   0.1007250300433586E+01
  -0.1980270467182222E-33
   0.9975348016051434E+00
  -0.6150325442258156E-34
   0.9934954936904545E+00
   0.2691991804922850E-34
   0.1001883594522603E+01
  -0.4133896201249214E-33
   0.9846948845990144E+00
  -0.1360739881707762E-32
   0.1003699054645592E+01
  -0.1369778723900346E-33
   0.1003866724960778E+01
  -0.1794875423971890E-33
   0.1010033021393166E+01
  -0.3063417816255693E-33
   0.9755412621854439E+00
  -0.1400668902891402E-32
   0.1019513169068365E+01
  -0.1294713494634138E-32
   0.1002655775161067E+01
   0.1927288108441396E-34
   0.1008312741999577E+01
  -0.3943993349283424E-33
   0.9960591490776991E+00
  -0.1332301893505151E-33
   0.1000972487695369E+01
  -0.1983287316185737E-33
   0.1003391534053652E+01
  -0.2810119088644826E-33
SCALARS u double 1
LOOKUP_TABLE default
   0.5000826434542184E+00
  -0.5474983053112999E-35
   0.4992132623969299E+00
   0.1498073132750201E-33
   0.4996808328134577E+00
   0.1962096705709882E-33
   0.4941751191013695E+00
   0.2455161265126077E-33
   0.4931381098143966E+00
   0.2088177706824821E-33
   0.4958217059112718E+00
   0.1141238847807636E-33
   0.4949099800240965E+00
   0.1475385173669777E-33
   0.4919568834484872E+00
   0.2000275619854987E-33
   0.4684467848471507E+00
   0.4713928197681969E-33
   0.4836474186059984E+00
  -0.1413416482400624E-33
   0.0000000000000000E+00
   0.0000000000000000E+00
   0.0000000000000000E+00
   0.0000000000000000E+00
   0.0000000000000000E+00
   0.0000000000000000E+00
   0.0000000000000000E+00
   0.0000000000000000E+00
   0.0000000000000000E+00
   0.0000000000000000E+00
   0.0000000000000000E+00
   0.0000000000000000E+00
   0.4773957785347285E+00
   0.7126563142288868E-33
   0.5239681365906871E+00
  -0.8831772002684990E-34
   0.5120309580803704E+00
  -0.1810859604224845E-33
   0.4994312664883946E+00
  -0.3754250253564736E-34
   0.4978153703320303E+00
   0.8953204348930199E-34
   0.3976807720921611E+00
   0.1344947913370960E-32
   0.4468302300988642E+00
  -0.6644735390669540E-33
   0.4947206550845125E+00
   0.1717413966203219E-33
   0.4979221021122177E+00
   0.1677598331148291E-33
   0.4985899998901857E+00
   0.1998751940615244E-33
   0.4985864112104631E+00
   0.2054479942099736E-33
   0.5704088673025667E+00
   0.3472219653498497E-33
   0.5373420465124665E+00
  -0.6378250479737443E-34
   0.5496913581317951E+00
   0.9426155080911937E-34
   0.3071533537728600E+00
   0.4373947555673345E-33
   0.4888373466398559E+00
   0.2257653824118137E-33
   0.4922412236539478E+00