# vtk DataFile Version 2.0
FUN3D:global_image_vtk
ASCII
DATASET UNSTRUCTURED_GRID
POINTS 350 double
    0.5000000000000000E+01    0.0000000000000000E+00   -0.2602085213965211E-16
    0.0000000000000000E+00    0.5000000000000000E+01    0.0000000000000000E+00
    0.4000000000000000E+01    0.0000000000000000E+00   -0.2602085213965211E-16
    0.0000000000000000E+00    0.5000000000000000E+01    0.0000000000000000E+00
    0.3000000000000000E+01    0.0000000000000000E+00   -0.2602085213965211E-16
    0.0000000000000000E+00    0.5000000000000000E+01    0.0000000000000000E+00
    0.2000000000000000E+01    0.0000000000000000E+00   -0.2602085213965211E-16
    0.0000000000000000E+00    0.5000000000000000E+01    0.0000000000000000E+00
    0.9999999999999998E+00    0.0000000000000000E+00   -0.2602085213965211E-16
    0.0000000000000000E+00    0.5000000000000000E+01    0.0000000000000000E+00
   -0.2602085213965211E-16    0.0000000000000000E+00   -0.2602085213965211E-16
    0.0000000000000000E+00    0.5000000000000000E+01    0.0000000000000000E+00
   -0.2602085213965211E-16    0.0000000000000000E+00   -0.2602085213965211E-16
    0.0000000000000000E+00    0.4000000000000000E+01    0.0000000000000000E+00
   -0.2602085213965211E-16    0.0000000000000000E+00   -0.2602085213965211E-16
    0.0000000000000000E+00    0.3000000000000000E+01    0.0000000000000000E+00
   -0.2602085213965211E-16    0.0000000000000000E+00   -0.2602085213965211E-16
    0.0000000000000000E+00    0.2000000000000000E+01    0.0000000000000000E+00
   -0.2602085213965211E-16    0.0000000000000000E+00   -0.2602085213965211E-16
    0.0000000000000000E+00    0.9999999999999998E+00    0.0000000000000000E+00
   -0.2602085213965211E-16    0.0000000000000000E+00   -0.2602085213965211E-16
    0.0000000000000000E+00   -0.2602085213965211E-16    0.0000000000000000E+00
    0.1000000000000000E+01    0.0000000000000000E+00   -0.2602085213965211E-16
    0.0000000000000000E+00   -0.2602085213965211E-16    0.0000000000000000E+00
    0.2000000000000000E+01    0.0000000000000000E+00   -0.2602085213965211E-16
    0.0000000000000000E+00   -0.2602085213965211E-16    0.0000000000000000E+00
    0.3000000000000000E+01    0.0000000000000000E+00   -0.2602085213965211E-16
    0.0000000000000000E+00   -0.2602085213965211E-16    0.0000000000000000E+00
    0.4000000000000000E+01    0.0000000000000000E+00   -0.2602085213965211E-16
    0.0000000000000000E+00   -0.2602085213965211E-16    0.0000000000000000E+00
    0.5000000000000000E+01    0.0000000000000000E+00   -0.2602085213965211E-16
    0.0000000000000000E+00   -0.2602085213965211E-16    0.0000000000000000E+00
    0.5000000000000000E+01    0.0000000000000000E+00   -0.2602085213965211E-16
    0.0000000000000000E+00    0.1000000000000000E+01    0.0000000000000000E+00
    0.5000000000000000E+01    0.0000000000000000E+00   -0.2602085213965211E-16
    0.0000000000000000E+00    0.2000000000000000E+01    0.0000000000000000E+00
    0.5000000000000000E+01    0.0000000000000000E+00   -0.2602085213965211E-16
    0.0000000000000000E+00    0.3000000000000000E+01    0.0000000000000000E+00
    0.5000000000000000E+01    0.0000000000000000E+00   -0.2602085213965211E-16
    0.0000000000000000E+00    0.4000000000000000E+01    0.0000000000000000E+00
    0.4322050724693945E+01    0.0000000000000000E+00   -0.2602085213965211E-16
    0.0000000000000000E+00    0.4272847764579289E+01    0.0000000000000000E+00
    0.4395933514933383E+01    0.0000000000000000E+00   -0.2602085213965211E-16
    0.0000000000000000E+00    0.6968157305690375E+00    0.0000000000000000E+00
    0.4822566552045415E+00    0.0000000000000000E+00   -0.2602085213965211E-16
    0.0000000000000000E+00    0.4869914123714657E+00    0.0000000000000000E+00
    0.6915840874870022E+00    0.0000000000000000E+00   -0.2602085213965211E-16
    0.0000000000000000E+00    0.4412138888481547E+01    0.0000000000000000E+00
    0.3399851674277183E+01    0.0000000000000000E+00   -0.2602085213965211E-16
    0.0000000000000000E+00    0.4097916069546335E+01    0.0000000000000000E+00
    0.2387722604716090E+01    0.0000000000000000E+00   -0.2602085213965211E-16
    0.0000000000000000E+00    0.4289612581570788E+01    0.0000000000000000E+00
    0.2530539425941975E+01    0.0000000000000000E+00   -0.2602085213965211E-16
    0.0000000000000000E+00    0.3425796000045182E+01    0.0000000000000000E+00
    0.4218243643927281E+01    0.0000000000000000E+00   -0.2602085213965211E-16
    0.0000000000000000E+00    0.1577295032585114E+01    0.0000000000000000E+00
    0.4374706835472756E+01    0.0000000000000000E+00   -0.2602085213965211E-16
    0.0000000000000000E+00    0.2456049093849535E+01    0.0000000000000000E+00
    0.3551860412513510E+01    0.0000000000000000E+00   -0.2602085213965211E-16
    0.0000000000000000E+00    0.2339930221808591E+01    0.0000000000000000E+00
    0.2949794352503393E+01    0.0000000000000000E+00   -0.2602085213965211E-16
    0.0000000000000000E+00    0.5481475950050476E+00    0.0000000000000000E+00
    0.7861633687955192E+00    0.0000000000000000E+00   -0.2602085213965211E-16
    0.0000000000000000E+00    0.2248355130517770E+01    0.0000000000000000E+00
    0.5798833877919644E+00    0.0000000000000000E+00   -0.2602085213965211E-16
    0.0000000000000000E+00    0.2968095534677868E+01    0.0000000000000000E+00
    0.9567989459488918E+00    0.0000000000000000E+00   -0.2602085213965211E-16
    0.0000000000000000E+00    0.9597666531489264E+00    0.0000000000000000E+00
    0.1484741644122567E+01    0.0000000000000000E+00   -0.2602085213965211E-16
    0.0000000000000000E+00    0.4363965165706898E+01    0.0000000000000000E+00
    0.1026777559850326E+01    0.0000000000000000E+00   -0.2602085213965211E-16
    0.0000000000000000E+00    0.3706650893855072E+01    0.0000000000000000E+00
    0.2039106473515760E+01    0.0000000000000000E+00   -0.2602085213965211E-16
    0.0000000000000000E+00    0.1998969209862488E+01    0.0000000000000000E+00
    0.1300624340922514E+01    0.0000000000000000E+00   -0.2602085213965211E-16
    0.0000000000000000E+00    0.1814065253577793E+01    0.0000000000000000E+00
    0.1818986365136347E+01    0.0000000000000000E+00   -0.2602085213965211E-16
    0.0000000000000000E+00    0.1286729705298721E+01    0.0000000000000000E+00
    0.3653583824847581E+01    0.0000000000000000E+00   -0.2602085213965211E-16
    0.0000000000000000E+00    0.9901573836014240E+00    0.0000000000000000E+00
    0.4143524820619449E+01    0.0000000000000000E+00   -0.2602085213965211E-16
    0.0000000000000000E+00    0.3349542163936307E+01    0.0000000000000000E+00
    0.1820064053502507E+01    0.0000000000000000E+00   -0.2602085213965211E-16
    0.0000000000000000E+00    0.3699731047579209E+01    0.0000000000000000E+00
    0.1584392186197914E+01    0.0000000000000000E+00   -0.2602085213965211E-16
    0.0000000000000000E+00    0.2795974726684905E+01    0.0000000000000000E+00
    0.1600595232801024E+01    0.0000000000000000E+00   -0.2602085213965211E-16
    0.0000000000000000E+00    0.6068725132371939E+00    0.0000000000000000E+00
    0.2227190852919879E+01    0.0000000000000000E+00   -0.2602085213965211E-16
    0.0000000000000000E+00    0.7878662077383224E+00    0.0000000000000000E+00
    0.6087173311333848E+00    0.0000000000000000E+00   -0.2602085213965211E-16
    0.0000000000000000E+00    0.1604437407448898E+01    0.0000000000000000E+00
    0.2791514824717063E+01    0.0000000000000000E+00   -0.2602085213965211E-16
    0.0000000000000000E+00    0.1521675228311488E+01    0.0000000000000000E+00
    0.2652084981436515E+01    0.0000000000000000E+00   -0.2602085213965211E-16
    0.0000000000000000E+00    0.2569083733163254E+01    0.0000000000000000E+00
    0.3287666143370332E+01    0.0000000000000000E+00   -0.2602085213965211E-16
    0.0000000000000000E+00    0.3173897562080839E+01    0.0000000000000000E+00
    0.3566016613004364E+01    0.0000000000000000E+00   -0.2602085213965211E-16
    0.0000000000000000E+00    0.1597010715137857E+01    0.0000000000000000E+00
    0.5000000000000000E+01    0.0000000000000000E+00   -0.8333333333333334E+00
    0.0000000000000000E+00    0.5000000000000000E+01    0.0000000000000000E+00
    0.4000000000000000E+01    0.0000000000000000E+00   -0.8333333333333334E+00
    0.0000000000000000E+00    0.5000000000000000E+01    0.0000000000000000E+00
    0.3000000000000000E+01    0.0000000000000000E+00   -0.8333333333333334E+00
    0.0000000000000000E+00    0.5000000000000000E+01    0.0000000000000000E+00
    0.2000000000000000E+01    0.0000000000000000E+00   -0.8333333333333334E+00
    0.0000000000000000E+00    0.5000000000000000E+01    0.0000000000000000E+00
    0.9999999999999998E+00    0.0000000000000000E+00   -0.8333333333333334E+00
    0.0000000000000000E+00    0.5000000000000000E+01    0.0000000000000000E+00
   -0.2602085213965211E-16    0.0000000000000000E+00   -0.8333333333333334E+00
    0.0000000000000000E+00    0.5000000000000000E+01    0.0000000000000000E+00
   -0.2602085213965211E-16    0.0000000000000000E+00   -0.8333333333333334E+00
    0.0000000000000000E+00    0.4000000000000000E+01    0.0000000000000000E+00
   -0.2602085213965211E-16    0.0000000000000000E+00   -0.8333333333333334E+00
    0.0000000000000000E+00    0.3000000000000000E+01    0.0000000000000000E+00
   -0.2602085213965211E-16    0.0000000000000000E+00   -0.8333333333333334E+00
    0.0000000000000000E+00    0.2000000000000000E+01    0.0000000000000000E+00
   -0.2602085213965211E-16    0.0000000000000000E+00   -0.8333333333333334E+00
    0.0000000000000000E+00    0.9999999999999998E+00    0.0000000000000000E+00
   -0.2602085213965211E-16    0.0000000000000000E+00   -0.8333333333333334E+00
    0.0000000000000000E+00   -0.2602085213965211E-16    0.0000000000000000E+00
    0.1000000000000000E+01    0.0000000000000000E+00   -0.8333333333333334E+00
    0.0000000000000000E+00   -0.2602085213965211E-16    0.0000000000000000E+00
    0.2000000000000000E+01    0.0000000000000000E+00   -0.8333333333333334E+00
[...]
POINT_DATA 350
SCALARS rho double 1
LOOKUP_TABLE default
   0.1002368207365944E+01
  -0.1129546247795268E-33
   0.1003807020837777E+01
  -0.1199527096316531E-33
   0.1003681388243732E+01
  -0.9045998664963521E-34
   0.1003338739610397E+01
  -0.1212434071452095E-33
   0.1004004927359424E+01
  -0.1263812317051001E-33
   0.1003461978332764E+01
  -0.1061137867383414E-33
   0.1004123136832549E+01
  -0.1072998070463718E-33
   0.1006483688675331E+01
  -0.1413216119561155E-33
   0.1032152825884508E+01
  -0.5761527115529422E-33
   0.1008692305676302E+01
   0.6099996363324506E-33
   0.1497902808982423E+01
  -0.6329288081105170E-32
   0.9226865353232451E+00
  -0.2522602476881161E-32
   0.9851857246679360E+00
  -0.2023236375508860E-32
   0.9909539179773542E+00
  -0.3731697471637897E-32
   0.9833957511926888E+00
  -0.2208506084884590E-32
   0.8272773532223107E+00
  -0.5789493925976277E-32
   0.9808441607856487E+00
  -0.6726368878602158E-33
   0.1016152356798326E+01
  -0.1597005100017724E-33
   0.1006149197292276E+01
   0.2869109355529619E-34
   0.1001783057793560E+01
  -0.5641448244167217E-34
   0.1003482488511928E+01
  -0.1145081785425251E-33
   0.9965448146347540E+00
  -0.9864848357061067E-33
   0.1094490604182751E+01
  -0.2219646740071867E-32
   0.1004199294703355E+01
  -0.1260537655450070E-33
   0.1003723811052682E+01
  -0.1732580943758744E-33
   0.1004133175182924E+01
  -0.1487429843680555E-33
   0.1003894625663979E+01
  -0.2298064740862295E-33
   0.9984589978387600E+00
  -0.6025573124082136E-33
   0.1004946355692314E+01
  -0.1949616087728642E-34
   0.9977978126911068E+00
  -0.1193629383132869E-33
   0.1003145978999172E+01
  -0.1550636956707680E-32
   0.1011069295361000E+01
  -0.2256271592994961E-33
   0.1008093384495830E+01
  -0.2028858936827923E-33
   0.1065537952878820E+01
  -0.1082039457952762E-32
   0.1003923989303778E+01
  -0.1397520218559488E-33
   0.1007681131831199E+01
  -0.1947636203970983E-33
   0.9990832994502052E+00
  -0.6367720361410468E-34
   0.9942800934263553E+00
   0.2666294140309050E-34
   0.1001054937325451E+01
  -0.3772347436903094E-33
   0.9859287032382545E+00
  -0.1283341127219150E-32
   0.1003233540690916E+01
  -0.1063853089108873E-33
   0.1005181124153490E+01
  -0.1820317163057094E-33
   0.1007802235162549E+01
  -0.2700319014442881E-33
   0.9751335273980171E+00
  -0.1378925061249851E-32
   0.1017932132020297E+01
  -0.1249299412023635E-32
   0.1003406665304791E+01
  -0.2020050096996365E-35
   0.1009021410898736E+01
  -0.3728117166551812E-33
   0.9967737540638220E+00
  -0.1218594749045443E-33
   0.9999716227079350E+00
  -0.1812511892812205E-33
   0.1005256589505386E+01
  -0.2867467058976579E-33
   0.1002335212007360E+01
  -0.1118741839007488E-33
   0.1003766377811645E+01
  -0.1191854460797133E-33
   0.1003622697719001E+01
  -0.9012266414018716E-34
   0.1003277267177197E+01
  -0.1208737383760837E-33
   0.1003947214461834E+01
  -0.1262411466266350E-33
   0.1003434610926728E+01
  -0.1058443820993638E-33
   0.1004019900712268E+01
  -0.1066498180074707E-33
   0.1006250660396113E+01
  -0.1405103979064215E-33
   0.1031717880283727E+01
  -0.5768681644825643E-33
   0.1005825702428238E+01
   0.6221129824799326E-33
   0.1499593623655904E+01
  -0.6323939989176002E-32
   0.9203013890005829E+00
  -0.2509297848126492E-32
   0.9850871844819816E+00
  -0.2019469324685852E-32
   0.9917209656134328E+00
  -0.3733556508559790E-32
   0.9831809741409460E+00
  -0.2219726994338633E-32
   0.8273400941540915E+00
  -0.5802398500587315E-32
   0.9844385049866404E+00
  -0.6802803903921582E-33
   0.1017588739327349E+01
  -0.1654840289401609E-33
   0.1006347089389713E+01
   0.2799088447017889E-34
   0.1001757698122330E+01
  -0.5588164299691523E-34
   0.1003481727205465E+01
  -0.1139884353949046E-33
   0.9987281123774401E+00
  -0.9979820578630810E-33
   0.1094876936258310E+01
  -0.2224489563929898E-32
   0.1004134035569308E+01
  -0.1256950861020798E-33
   0.1003685889674021E+01
  -0.1729678994007785E-33
   0.1004062790211595E+01
  -0.1484333438670076E-33
   0.1003823986710750E+01
  -0.2298347452569086E-33
   0.9994910133896999E+00
  -0.6052820854927670E-33
   0.1005357945897484E+01
  -0.1943937102085700E-34
   0.9979701045951520E+00
  -0.1191188531354928E-33
   0.1004491051546446E+01
  -0.1550487260057903E-32
   0.1010697130962642E+01
  -0.2256202569761515E-33
   0.1007956397617143E+01
  -0.2024351434617557E-33
   0.1066031877185804E+01
  -0.1081886885193287E-32
   0.1003845231490070E+01
  -0.1394713795500561E-33
   0.1007571538846233E+01
  -0.1944231024719712E-33
   0.9987463357672826E+00
  -0.6206740275441868E-34
   0.9937946269669712E+00
   0.2905648621548031E-34
   0.1001288327267628E+01
  -0.3751680312531178E-33
   0.9870640692071924E+00
  -0.1285578107412790E-32
   0.1003271105807856E+01
  -0.1061938756451198E-33
   0.1005061194978621E+01
  -0.1817640677768277E-33
   0.1007623219223230E+01
  -0.2702871988476761E-33
   0.9757748364678902E+00
  -0.1376017512473229E-32
   0.1019442497976152E+01
  -0.1251718166827442E-32
   0.1002430557550388E+01
   0.1850325834148822E-35
   0.1009421626582353E+01
  -0.3728192096363794E-33
   0.9965728112973574E+00
  -0.1214491098070761E-33
   0.9998732565816988E+00
  -0.1811097038073193E-33
   0.1005992578279326E+01
  -0.2867551914877802E-33
   0.1002328166949225E+01
  -0.1128002265179106E-33
   0.1003780783802247E+01
  -0.1196959927797219E-33
   0.1003656096404026E+01
  -0.9012678625747932E-34
   0.1003307522846973E+01
  -0.1210968341683905E-33
   0.1003976183151843E+01
  -0.1263191338043686E-33
   0.1003462288988676E+01
  -0.1061250879224349E-33
   0.1004052966203665E+01
  -0.1070802138643530E-33
   0.1006294532945578E+01
  -0.1409303787486101E-33
   0.1031830592499160E+01
  -0.5773006201084778E-33
   0.1005690389570609E+01
   0.6221686795458584E-33
   0.1500029438536252E+01
  -0.6323756863126264E-32
   0.9198376955313843E+00
  -0.2506926549739424E-32
   0.9852547486396053E+00
  -0.2019590913854560E-32
   0.9919879763141781E+00
  -0.3734501991870086E-32
   0.9833925705155997E+00
  -0.2223147880010154E-32
   0.8278893629936810E+00
  -0.5808381844157509E-32
   0.9848356121088701E+00
  -0.6798594728039549E-33
   0.1017755412872763E+01
  -0.1656774302217114E-33
   0.1006284164434648E+01
   0.2750555906832001E-34
   0.1001702540067371E+01
  -0.5659353311719602E-34
   0.1003470211666674E+01
  -0.1145894617734098E-33
   0.9989998070500967E+00
  -0.9971567880970327E-33
   0.1095384258648085E+01
  -0.2225480553117615E-32
   0.1004176283173598E+01
  -0.1259560874729152E-33
   0.1003708658038267E+01
  -0.1732387782022840E-33
   0.1004104337702259E+01
  -0.1485489587682678E-33
   0.1003880998586714E+01
  -0.2300041094573096E-33
   0.9997497399127192E+00
  -0.6055006500129277E-33
   0.1005375750993213E+01
  -0.1961418668531321E-34
   0.9979832706948687E+00
  -0.1191156489203073E-33
   0.1004790323759775E+01
  -0.1549976612114407E-32
   0.1010823225237105E+01
  -0.2258797322649666E-33
   0.1008035932378326E+01
  -0.2026883594420930E-33
   0.1066392418927375E+01
  -0.1082191148532223E-32
   0.1003887529469395E+01
  -0.1395747379602364E-33
   0.1007627770268763E+01
  -0.1945669819114430E-33
   0.9988090980036820E+00
  -0.6195264054493980E-34
   0.9938793292654650E+00
   0.2915699797779107E-34
   0.1001433235938113E+01
  -0.3743652953230862E-33
   0.9873462707512699E+00
  -0.1285281317522677E-32
   0.1003253527793892E+01
  -0.1067669680300370E-33
   0.1005116619647470E+01
  -0.1818315446824814E-33
   0.1007725178016897E+01
  -0.2705327044534987E-33
   0.9760508148604250E+00
  -0.1375078780087961E-32
   0.1019704645660366E+01
  -0.1251645657740784E-32
   0.1002575687387111E+01
   0.1645643577833276E-35
   0.1009573636613442E+01
  -0.3725399977044876E-33
   0.9966056089984674E+00
  -0.1214835594691943E-33
   0.9998885055607698E+00
  -0.1813919239118963E-33
   0.1006128507974036E+01
  -0.2864290614019755E-33
   0.1002358808026461E+01
  -0.1118966802722285E-33
   0.1003802111336476E+01
  -0.1191694453589556E-33
   0.1003653601802042E+01
  -0.9007848014111886E-34
   0.1003297802870188E+01
  -0.1209392094614560E-33
   0.1003953577458566E+01
  -0.1262914851534464E-33
   0.1003443941764077E+01
  -0.1059156585118241E-33
   0.1004022665758928E+01
  -0.1066719133283130E-33
   0.1006251535046673E+01
  -0.1405695517947337E-33
   0.1031757240774967E+01
  -0.5769242589515172E-33
   0.1005526325616704E+01
   0.6223612053813157E-33
   0.1499965810370435E+01
  -0.6323820679747356E-32
   0.9198283785279292E+00
  -0.2506829620681041E-32
   0.9853031594924280E+00
  -0.2019703414406579E-32
   0.9920455472358299E+00
  -0.3735273379180503E-32
   0.9835191170993419E+00
  -0.2224410495196147E-32
   0.8280223468835466E+00
  -0.5810133439860231E-32
   0.9850499260986981E+00
  -0.6803274823895106E-33
   0.1017841398056577E+01
  -0.1660296815388389E-33
   0.1006304124083917E+01
   0.2765800247196932E-34
   0.1001727137082269E+01
  -0.5605555722207015E-34
   0.1003496899537827E+01
  -0.1141380360264474E-33
   0.9991253432835180E+00
  -0.9979388245541800E-33
   0.1095147860681309E+01
  -0.2225086683409723E-32
   0.1004148025316362E+01
  -0.1257311251915563E-33
   0.1003721321465260E+01
  -0.1731262839864576E-33
   0.1004094437058170E+01
  -0.1484624760286446E-33
   0.1003884937535141E+01
  -0.2301299381084348E-33
   0.9998294817447716E+00
  -0.6054785448850273E-33
   0.1005426232467376E+01
  -0.1956624316207107E-34
   0.9980095805293761E+00
  -0.1191202356034444E-33
   0.1004803306490218E+01
  -0.1549780165967575E-32
   0.1010759376118827E+01
  -0.2257624539515202E-33
   0.1007987824428507E+01
  -0.2024376232244204E-33
   0.1066325332151053E+01
  -0.1082147671958731E-32
   0.1003865440684719E+01
  -0.1394816736285158E-33
   0.1007597736907429E+01
  -0.1944193823894691E-33
   0.9987906768692258E+00
  -0.6210865485762326E-34
   0.9938355393899653E+00
   0.2892148857271414E-34
   0.1001402809900829E+01
  -0.3743392790443930E-33
   0.9874105178327259E+00
  -0.1285018493378464E-32
   0.1003285399770308E+01
  -0.1065834511402120E-33
   0.1005101402767086E+01
  -0.1818219353029787E-33
   0.1007700336988296E+01
  -0.2707264078783109E-33
   0.9760100006879239E+00
  -0.1374847050369233E-32
   0.1019766392391890E+01
  -0.1251295534958251E-32
   0.1002477922678008E+01
   0.1782717215013105E-35
   0.1009577950776748E+01
  -0.3723040773796573E-33
   0.9966011623435824E+00
  -0.1217044055745137E-33
   0.9999063836875889E+00
  -0.1815220257287799E-33
   0.1006168173951625E+01
  -0.2862193272966434E-33
   0.1002328087841463E+01
  -0.1127988873528847E-33
   0.1003780728733089E+01
  -0.1196946778487607E-33
   0.1003656101766055E+01
  -0.9012635628867319E-34
   0.1003307552403670E+01
  -0.1210972737995237E-33
   0.1003976191861241E+01
  -0.1263194255772196E-33
   0.1003462273467146E+01
  -0.1061249630094629E-33
   0.1004052995595700E+01
  -0.1070806396769143E-33
   0.1006294572340106E+01
  -0.1409309017837069E-33
   0.1031830192502178E+01
  -0.5772999587676497E-33
   0.1005691208266881E+01
   0.6221627907412016E-33
   0.1500023088152898E+01
  -0.6323762977320483E-32
   0.9198368793301634E+00
  -0.2506913741014554E-32
   0.9852535832317726E+00
  -0.2019584319546543E-32
   0.9919870017697896E+00
  -0.3734494187085478E-32
   0.9833916814975083E+00
  -0.2223140205357911E-32
   0.8278878963694757E+00
  -0.5808354431798793E-32
   0.9848348701522598E+00
  -0.6798503567662508E-33
   0.1017755259272975E+01
  -0.1656731544152586E-33
   0.1006284234501765E+01
   0.2750405561973661E-34
   0.1001702534028869E+01
  -0.5659397902526451E-34
   0.1003470165577632E+01
  -0.1145888763474580E-33
   0.9989990253966432E+00
  -0.9971489297836168E-33
   0.1095382100074521E+01
  -0.2225470539955215E-32
   0.1004176285468325E+01
  -0.1259561485795647E-33
   0.1003708609493722E+01
  -0.1732380931157904E-33
   0.1004104323198451E+01
  -0.1485486252128957E-33
   0.1003880933040965E+01
  -0.2300034097271911E-33
   0.9997493514394901E+00
  -0.6054932288016939E-33
   0.1005375776634825E+01
  -0.1961370879622812E-34
   0.9979832937102163E+00
  -0.1191151340547528E-33
   0.1004789338416530E+01
  -0.1549967498791830E-32
   0.1010823191389614E+01
  -0.2258798989787444E-33
   0.1008035889430945E+01
  -0.2026880461871096E-33
   0.1066391465620854E+01
  -0.1082185151822298E-32
   0.1003887532430209E+01
  -0.1395747615715087E-33
   0.1007627722600177E+01
  -0.1945667293647298E-33
   0.9988092251328659E+00
  -0.6195283623345729E-34
   0.9938795456991533E+00
   0.2915657595585336E-34
   0.1001432995997968E+01
  -0.3743598163381242E-33
   0.9873455211730717E+00
  -0.1285270942813574E-32
   0.1003253544863143E+01
  -0.1067676249408217E-33
   0.1005116585648849E+01
  -0.1818311072854939E-33
   0.1007725098191004E+01
  -0.2705323503125734E-33
   0.9760501074769363E+00
  -0.1375069520755606E-32
   0.1019703799910819E+01
  -0.1251636517311118E-32
   0.1002575924743769E+01
   0.1643413446372278E-35
   0.1009573399846849E+01
  -0.3725356554641688E-33
   0.9966056828846545E+00
  -0.1214841465931475E-33
   0.9998885089370292E+00
  -0.1813921584408272E-33
   0.1006128280565982E+01
  -0.2864243124564184E-33
   0.1002335075225711E+01
  -0.1118718902380703E-33
   0.1003766282928081E+01
  -0.1191831226680663E-33
   0.1003622706711589E+01
  -0.9012182624746113E-34
   0.1003277319667242E+01
  -0.1208744650964321E-33
   0.1003947232300796E+01
  -0.1262416553798728E-33
   0.1003434587398239E+01
  -0.1058441814564446E-33
   0.1004019958143238E+01
  -0.1066505926728006E-33
   0.1006250741868781E+01
  -0.1405113400402395E-33
   0.1031717149933340E+01
  -0.5768667794082367E-33
   0.1005827240074019E+01
   0.6221018831761192E-33
   0.1499581497983300E+01
  -0.6323952469340392E-32
   0.9202997800113455E+00
  -0.2509272473227932E-32
   0.9850837897234407E+00
  -0.2019452038482988E-32
   0.9917178737323553E+00
  -0.3733533008307448E-32
   0.9831781700992664E+00
  -0.2219706655248513E-32
   0.8273354206773803E+00
  -0.5802311539091610E-32
   0.9844371052104670E+00
  -0.6802633793838967E-33
   0.1017588544786957E+01
  -0.1654758740236003E-33
   0.1006347236751624E+01
   0.2798814150923006E-34
   0.1001757690876695E+01
  -0.5588253665922144E-34
   0.1003481650180402E+01
  -0.1139874775907642E-33
   0.9987264827104290E+00
  -0.9979674580403131E-33
   0.1094872873947500E+01
  -0.2224470427799239E-32
   0.1004134043248166E+01
  -0.1256951850662791E-33
   0.1003685808116890E+01
  -0.1729667460492698E-33
   0.1004062766366435E+01
  -0.1484327210538110E-33
   0.1003823876940281E+01
  -0.2298335846520829E-33
   0.9994903335001211E+00
  -0.6052676461437244E-33
   0.1005358052103995E+01
  -0.1943865040475049E-34
   0.9979701792573300E+00
  -0.1191178887924536E-33
   0.1004488922074557E+01
  -0.1550468935038469E-32
   0.1010697092468979E+01
  -0.2256205482016098E-33
   0.1007956321352356E+01
  -0.2024344817164272E-33
   0.1066030074324409E+01
  -0.1081875200601565E-32
   0.1003845238248263E+01
  -0.1394713839304526E-33
   0.1007571455071884E+01
  -0.1944225934067013E-33
   0.9987465849060785E+00
  -0.6206789574773320E-34
   0.9937950414071706E+00
   0.2905556593170651E-34
   0.1001287873370111E+01
  -0.3751576100885610E-33
   0.9870626084284833E+00
  -0.1285557415406613E-32
   0.1003271145102215E+01
  -0.1061951695848793E-33
   0.1005061137742275E+01
  -0.1817632632376473E-33
   0.1007623086445337E+01
  -0.2702866519876052E-33
   0.9757735368325035E+00
  -0.1376000186285960E-32
   0.1019440919478379E+01
  -0.1251700539992592E-32
   0.1002431036596708E+01
   0.1846107012892603E-35
   0.1009421235426503E+01
  -0.3728109390846116E-33
   0.9965729531635629E+00
  -0.1214503237259284E-33
   0.9998732672726347E+00
  -0.1811102949436014E-33
   0.1005992192173933E+01
  -0.2867461694188381E-33
   0.1002368039591967E+01
  -0.1129520542239771E-33
   0.1003806902267399E+01
  -0.1199500338890073E-33
   0.1003681390453027E+01
  -0.9045890999442040E-34
   0.1003338795543980E+01
  -0.1212441719762558E-33
   0.1004004946250011E+01
  -0.1263818079461359E-33
   0.1003461952760722E+01
  -0.1061135876202533E-33
   0.1004123201458049E+01
  -0.1073007297770052E-33
   0.1006483782028230E+01
  -0.1413227357725421E-33
   0.1032151866147272E+01
  -0.5761510329433560E-33
   0.1008694325883760E+01
   0.6099842834950894E-33
   0.1497885395307300E+01
  -0.6329303318954127E-32
   0.9226837568258953E+00
  -0.2522564683337038E-32
   0.9851799076566898E+00
  -0.2023207708275775E-32
   0.9909469913301813E+00
  -0.3731645377172524E-32
   0.9833894635013600E+00
  -0.2208467906411394E-32
   0.8272690087512631E+00
  -0.5789342351136365E-32
   0.9808421820774699E+00
  -0.6726131541850391E-33
   0.1016152216643864E+01
  -0.1596894110445286E-33
   0.1006149375265132E+01
   0.2868797832189534E-34
   0.1001783039377910E+01
  -0.5641562119039309E-34
   0.1003482389568589E+01
  -0.1145071320251566E-33
   0.9965421206704574E+00
  -0.9864635774143918E-33
   0.1094484782589765E+01
  -0.2219618934830206E-32
   0.1004199302348807E+01
  -0.1260538983343923E-33
   0.1003723707484311E+01
  -0.1732567911406100E-33
   0.1004133139279683E+01
  -0.1487422298471762E-33
   0.1003894490599091E+01
  -0.2298052662854340E-33
   0.9984581764313938E+00
  -0.6025375986675087E-33
   0.1004946507358017E+01
  -0.1949491962342843E-34
   0.9977978871272525E+00
  -0.1193612302107022E-33
   0.1003142905154658E+01
  -0.1550610936387794E-32
   0.1011069263174226E+01
  -0.2256279795204326E-33
   0.1008093284277307E+01
  -0.2028851249813387E-33
   0.1065535412829475E+01
  -0.1082022405541471E-32
   0.1003923991718226E+01
  -0.1397519983130367E-33
   0.1007681022851067E+01
  -0.1947630423309575E-33
   0.9990835878871047E+00
  -0.6367744551788841E-34
   0.9942806176699974E+00
   0.2666157727651868E-34
   0.1001054229794619E+01
  -0.3772196753345014E-33
   0.9859267860109538E+00
  -0.1283312374255430E-32
   0.1003233573373990E+01
  -0.1063868003486688E-33
   0.1005181047320968E+01
  -0.1820308119256756E-33
   0.1007802080357293E+01
  -0.2700316181864083E-33
   0.9751316463408860E+00
  -0.1378899915954629E-32
   0.1017929964378961E+01
  -0.1249274783466196E-32
   0.1003407328735038E+01
  -0.2026072055601602E-35
   0.1009020887749835E+01
  -0.3728002116631714E-33
   0.9967739114134899E+00
  -0.1218608864050098E-33
   0.9999716226674760E+00
  -0.1812519318112021E-33
   0.1005256080863792E+01
  -0.2867345039977203E-33
SCALARS u double 1
LOOKUP_TABLE default
   0.4956011347061542E+00
   0.8674854428752773E-34
   0.4919956856606876E+00
   0.2401512858803420E-33
   0.4950733464104713E+00
   0.2662340623634327E-33
   0.4963700503261389E+00
   0.2183568582594316E-33
   0.4959204171194037E+00
   0.1523678065106322E-33
   0.4962639459196559E+00
   0.9420799699319362E-34
   0.4964946281511825E+00
   0.1111649624010149E-33
   0.4932509238671858E+00
   0.1675074388738369E-33
   0.4709106322566508E+00
   0.4340393580989737E-33
   0.4819424997537296E+00
  -0.1136123136251881E-33
   0.0000000000000000E+00
   0.0000000000000000E+00
   0.0000000000000000E+00
   0.0000000000000000E+00
   0.0000000000000000E+00
   0.0000000000000000E+00
   0.0000000000000000E+00
   0.0000000000000000E+00
   0.0000000000000000E+00
   0.0000000000000000E+00
   0.0000000000000000E+00
   0.0000000000000000E+00
   0.4832398959819783E+00
   0.7554168602141529E-33
   0.5213985968778626E+00
  -0.1240145196233233E-33
   0.5133465449749273E+00
  -0.2267484640344748E-33
   0.5000911591173776E+00
  -0.2579685772815186E-34
   0.4935164286136110E+00
   0.1466317505565519E-33
   0.4131349388625114E+00
   0.1344231887804490E-32
   0.4481656508202166E+00
  -0.6724618256538889E-33
   0.4961480116361359E+00
   0.1374993673635593E-33
   0.4931317770211922E+00
   0.2206823473681788E-33
   0.4960661842907437E+00
   0.2023256221347549E-33
   0.4959017017311054E+00
   0.2084442996292128E-33
   0.5596108897116376E+00
   0.3324018129327573E-33
   0.5362003153260484E+00
  -0.8543583955845814E-34
   0.5483941259112881E+00
   0.5777935679523162E-34
   0.3197673720740986E+00
   0.4511744235604296E-33
   0.4881620588523343E+00
   0.2331250878706358E-33
   0.4917979896676980E+00