title="tecplot geometry and solution file"
variables = x y z rho u v w p mach temperature
zone t="boundary 1 bc-1", solutiontime= 0.9000000E+02, strandid=1001, i=42, j=30, f=feblock
 -0.327148091500E-18 -0.327148091500E-18 -0.327148091500E-18 -0.327148091500E-18 -0.327148091500E-18 -0.327148091500E-18 -0.327148091500E-18
 -0.327148091500E-18 -0.327148091500E-18 -0.327148091500E-18 -0.327148091500E-18 -0.327148091500E-18 -0.327148091500E-18 -0.327148091500E-18
 -0.327148091500E-18 -0.327148091500E-18 -0.327148091500E-18 -0.327148091500E-18 -0.327148091500E-18 -0.327148091500E-18 -0.327148091500E-18
 -0.327148091500E-18 -0.327148091500E-18 -0.327148091500E-18 -0.327148091500E-18 -0.327148091500E-18 -0.327148091500E-18 -0.327148091500E-18
 -0.327148091500E-18 -0.327148091500E-18 -0.327148091500E-18 -0.327148091500E-18 -0.327148091500E-18 -0.327148091500E-18 -0.327148091500E-18
 -0.327148091500E-18 -0.327148091500E-18 -0.327148091500E-18 -0.327148091500E-18 -0.327148091500E-18 -0.327148091500E-18 -0.327148091500E-18
 -0.327148091500E-18 -0.833333333333E+00 -0.327148091500E-18 -0.327148091500E-18 -0.327148091500E-18 -0.166666666667E+01 -0.833333333333E+00
 -0.833333333333E+00 -0.833333333333E+00 -0.327148091500E-18 -0.250000000000E+01 -0.166666666667E+01 -0.166666666667E+01 -0.166666666667E+01
 -0.833333333333E+00 -0.327148091500E-18 -0.333333333333E+01 -0.250000000000E+01 -0.250000000000E+01 -0.250000000000E+01 -0.166666666667E+01
 -0.833333333333E+00 -0.416666666667E+01 -0.333333333333E+01 -0.333333333333E+01 -0.333333333333E+01 -0.250000000000E+01 -0.166666666667E+01
 -0.500000000000E+01 -0.416666666667E+01 -0.416666666667E+01 -0.416666666667E+01 -0.333333333333E+01 -0.250000000000E+01 -0.500000000000E+01
 -0.500000000000E+01 -0.500000000000E+01 -0.416666666667E+01 -0.333333333333E+01 -0.500000000000E+01 -0.416666666667E+01 -0.500000000000E+01
  0.500000000000E+01  0.500000000000E+01  0.400000000000E+01  0.200000000000E+01  0.300000000000E+01  0.500000000000E+01  0.400000000000E+01
  0.200000000000E+01  0.300000000000E+01  0.100000000000E+01  0.500000000000E+01  0.400000000000E+01  0.200000000000E+01  0.300000000000E+01
  0.100000000000E+01 -0.327148091500E-18  0.500000000000E+01  0.400000000000E+01  0.200000000000E+01  0.300000000000E+01  0.100000000000E+01
 -0.327148091500E-18  0.500000000000E+01  0.400000000000E+01  0.200000000000E+01  0.300000000000E+01  0.100000000000E+01 -0.327148091500E-18
  0.500000000000E+01  0.400000000000E+01  0.200000000000E+01  0.300000000000E+01  0.100000000000E+01 -0.327148091500E-18  0.400000000000E+01
  0.200000000000E+01  0.300000000000E+01  0.100000000000E+01 -0.327148091500E-18  0.100000000000E+01 -0.327148091500E-18 -0.327148091500E-18
  0.100380048539E+01  0.100377310155E+01  0.100553009883E+01  0.103486139598E+01  0.100777099233E+01  0.100379503100E+01  0.100543502155E+01
  0.103453820483E+01  0.100753026766E+01  0.100722827997E+01  0.100377495514E+01  0.100547681744E+01  0.103467597825E+01  0.100759319185E+01
  0.100404874113E+01  0.150307423028E+01  0.100379501610E+01  0.100543895397E+01  0.103456044650E+01  0.100752482732E+01  0.100401170679E+01
  0.150478963556E+01  0.100377307694E+01  0.100547680948E+01  0.103467553464E+01  0.100759319605E+01  0.100382818545E+01  0.150532560875E+01
  0.100380045317E+01  0.100543501175E+01  0.103453741294E+01  0.100753028284E+01  0.100401256579E+01  0.150520974142E+01  0.100553009121E+01
  0.103486031118E+01  0.100777101779E+01  0.100405034080E+01  0.150531923721E+01  0.100723044243E+01  0.150477742961E+01  0.150305665975E+01
  0.495821493350E+00  0.495858666554E+00  0.494914475237E+00  0.468450219402E+00  0.491961355265E+00  0.495834284859E+00  0.494980855947E+00
  0.468935187296E+00  0.492165019437E+00  0.483651004891E+00  0.495856320045E+00  0.494946129232E+00  0.468782728114E+00  0.492102035046E+00
  0.485202474757E+00  0.000000000000E+00  0.495834298266E+00  0.494984190866E+00  0.468925303267E+00  0.492168883934E+00  0.485012272525E+00
  0.000000000000E+00  0.495858689161E+00  0.494946132480E+00  0.468783018204E+00  0.492102052104E+00  0.485190944583E+00  0.000000000000E+00
  0.495821521601E+00  0.494980856030E+00  0.468935733451E+00  0.492165039431E+00  0.485011926240E+00  0.000000000000E+00  0.494914464082E+00
  0.468451020364E+00  0.491961370424E+00  0.485201793219E+00  0.000000000000E+00  0.483650065297E+00  0.000000000000E+00  0.000000000000E+00
  0.000000000000E+00  0.739787377024E-05  0.000000000000E+00  0.000000000000E+00  0.000000000000E+00  0.260107812054E-05 -0.185242196433E-04
  0.125830492382E-04 -0.343014600714E-04  0.000000000000E+00 -0.410793507107E-08 -0.434377625980E-05  0.645370401731E-04 -0.828328640819E-05
 -0.108375204481E-02  0.000000000000E+00 -0.260780096789E-05  0.119743239087E-07 -0.183677796934E-06  0.133158827662E-07 -0.138507682129E-03
  0.000000000000E+00 -0.740229604332E-05  0.436598059573E-05 -0.648664187124E-04  0.830702759805E-05  0.371048802570E-06  0.000000000000E+00
  0.000000000000E+00  0.185389214663E-04 -0.128322863458E-04  0.343181387842E-04  0.139192455596E-03  0.000000000000E+00  0.000000000000E+00
  0.000000000000E+00  0.000000000000E+00  0.108424879574E-02  0.000000000000E+00  0.000000000000E+00  0.000000000000E+00  0.000000000000E+00
  0.177073667287E-02  0.174956799583E-02 -0.839634442513E-03 -0.500854938073E-02  0.364053428153E-02  0.176262504520E-02 -0.827791256260E-03
 -0.522973642051E-02  0.368667023904E-02  0.352779132501E-01  0.175036774185E-02 -0.835868334086E-03 -0.525200351244E-02  0.368372051156E-02
  0.339363661511E-01  0.000000000000E+00  0.176262734548E-02 -0.831798887421E-03 -0.527757130121E-02  0.369098634201E-02  0.340598389421E-01
  0.000000000000E+00  0.174957372192E-02 -0.835856137917E-03 -0.525190976150E-02  0.368364489012E-02  0.340240114996E-01  0.000000000000E+00
  0.177074509993E-02 -0.827767214829E-03 -0.522957533057E-02  0.368653719459E-02  0.340595614888E-01  0.000000000000E+00 -0.839606934113E-03
 -0.500829761452E-02  0.364035302335E-02  0.339358251807E-01  0.000000000000E+00  0.352771873099E-01  0.000000000000E+00  0.000000000000E+00
  0.717939520722E+00  0.717912609693E+00  0.720350324049E+00  0.741929665252E+00  0.723056985618E+00  0.717933801512E+00  0.720256502799E+00
  0.741401529874E+00  0.722831383046E+00  0.744870587864E+00  0.717913919439E+00  0.720301109581E+00  0.741524432009E+00  0.722897995924E+00
  0.742485976476E+00  0.107359575313E+01  0.717933789541E+00  0.720262212845E+00  0.741414096334E+00  0.722828083018E+00  0.742504514099E+00
  0.107482251323E+01  0.717912590850E+00  0.720301090293E+00  0.741524152824E+00  0.722897978410E+00  0.742293565504E+00  0.107520668368E+01
  0.717939497110E+00  0.720256470965E+00  0.741401049829E+00  0.722831355593E+00  0.742504869699E+00  0.107512507024E+01  0.720350284376E+00
  0.741929026546E+00  0.723056948810E+00  0.742486622124E+00  0.107520399942E+01  0.744871391453E+00  0.107481731183E+01  0.107358842586E+01
  0.495500242137E+00  0.495539843948E+00  0.494188258749E+00  0.467610199502E+00  0.490877951745E+00  0.495513623744E+00  0.494263343219E+00
  0.468190220694E+00  0.491099465170E+00  0.476588830287E+00  0.495537507254E+00  0.494223648752E+00  0.468030648501E+00  0.491029305839E+00
  0.478027661132E+00  0.000000000000E+00  0.495513637604E+00  0.494265687020E+00  0.468181953413E+00  0.491103147314E+00  0.477833724830E+00
  0.000000000000E+00  0.495539866989E+00  0.494223656633E+00  0.468030924863E+00  0.491029329267E+00  0.478030626107E+00  0.000000000000E+00
  0.495500270595E+00  0.494263351777E+00  0.468190736511E+00  0.491099497151E+00  0.477833456423E+00  0.000000000000E+00  0.494188259299E+00
  0.467610952437E+00  0.490877984225E+00  0.478027129897E+00  0.000000000000E+00  0.476588111936E+00  0.000000000000E+00  0.000000000000E+00
  0.100130986550E+01  0.100129964832E+01  0.100294407382E+01  0.100371077265E+01  0.100447401996E+01  0.100130732976E+01  0.100290827583E+01
  0.100330962837E+01  0.100440053143E+01  0.103533513082E+01  0.100129962604E+01  0.100292869604E+01  0.100334232807E+01  0.100443036186E+01
  0.103528875092E+01  0.999973270848E+00  0.100130732792E+01  0.100291230413E+01  0.100330506388E+01  0.100440136936E+01  0.103535278793E+01
  0.999974669526E+00  0.100129964659E+01  0.100292867713E+01  0.100334238048E+01  0.100443033333E+01  0.103524787087E+01  0.999975917769E+00
  0.100130986471E+01  0.100290824127E+01  0.100330974673E+01  0.100440047815E+01  0.103535239796E+01  0.999976984551E+00  0.100294402619E+01
  0.100371096074E+01  0.100447394345E+01  0.103528800174E+01  0.999977653888E+00  0.103533402497E+01  0.999977941555E+00  0.999978135523E+00
         2         7         3         1
         7         9         5         3
         9         8         4         5
         8        15        10         4
        15        22        16        10
         6        12         7         2
        12        14         9         7
        14        13         8         9
        13        21        15         8
        21        28        22        15
        11        18        12         6
        18        20        14        12
        20        19        13        14
        19        27        21        13
        27        34        28        21
        17        24        18        11
        24        26        20        18
        26        25        19        20
        25        33        27        19
        33        39        34        27
        23        30        24        17
        30        32        26        24
        32        31        25        26
        31        38        33        25
        38        41        39        33
        29        35        30        23
        35        37        32        30
        37        36        31        32
        36        40        38        31
        40        42        41        38
zone t="boundary 2 bc-2", solutiontime= 0.9000000E+02, strandid=1002, i=50, j=78, f=feblock
  0.500000000000E+01  0.400000000000E+01  0.500000000000E+01  0.432205072469E+01  0.300000000000E+01  0.339985167428E+01  0.500000000000E+01
  0.414352482062E+01  0.200000000000E+01  0.238772260472E+01  0.328766614337E+01  0.253053942594E+01  0.500000000000E+01  0.437470683547E+01
  0.355186041251E+01  0.100000000000E+01  0.148474164412E+01  0.182006405350E+01  0.265208498144E+01  0.158439218620E+01  0.500000000000E+01
  0.421824364393E+01  0.356601661300E+01  0.279151482472E+01 -0.327148091500E-18  0.691584087487E+00  0.102677755985E+01  0.203910647352E+01
  0.786163368796E+00  0.130062434092E+01  0.579883387792E+00  0.500000000000E+01  0.439593351493E+01  0.365358382485E+01  0.222719085292E+01
  0.294979435250E+01  0.181898636514E+01 -0.327148091500E-18 -0.327148091500E-18  0.608717331133E+00  0.956798945949E+00 -0.327148091500E-18
  0.400000000000E+01  0.200000000000E+01  0.160059523280E+01  0.300000000000E+01 -0.327148091500E-18  0.482256655205E+00  0.100000000000E+01
 -0.327148091500E-18
 -0.500000000000E+01 -0.500000000000E+01 -0.500000000000E+01 -0.500000000000E+01 -0.500000000000E+01 -0.500000000000E+01 -0.500000000000E+01
 -0.500000000000E+01 -0.500000000000E+01 -0.500000000000E+01 -0.500000000000E+01 -0.500000000000E+01 -0.500000000000E+01 -0.500000000000E+01
 -0.500000000000E+01 -0.500000000000E+01 -0.500000000000E+01 -0.500000000000E+01 -0.500000000000E+01 -0.500000000000E+01 -0.500000000000E+01
 -0.500000000000E+01 -0.500000000000E+01 -0.500000000000E+01 -0.500000000000E+01 -0.500000000000E+01 -0.500000000000E+01 -0.500000000000E+01
 -0.500000000000E+01 -0.500000000000E+01 -0.500000000000E+01 -0.500000000000E+01 -0.500000000000E+01 -0.500000000000E+01 -0.500000000000E+01
 -0.500000000000E+01 -0.500000000000E+01 -0.500000000000E+01 -0.500000000000E+01 -0.500000000000E+01 -0.500000000000E+01 -0.500000000000E+01
 -0.500000000000E+01 -0.500000000000E+01 -0.500000000000E+01 -0.500000000000E+01 -0.500000000000E+01 -0.500000000000E+01 -0.500000000000E+01
 -0.500000000000E+01
  0.500000000000E+01  0.500000000000E+01  0.400000000000E+01  0.427284776458E+01  0.500000000000E+01  0.409791606955E+01  0.300000000000E+01
  0.334954216394E+01  0.500000000000E+01  0.428961258157E+01  0.317389756208E+01  0.342579600005E+01  0.200000000000E+01  0.245604909385E+01
  0.233993022181E+01  0.500000000000E+01  0.436396516571E+01  0.369973104758E+01  0.256908373316E+01  0.279597472668E+01  0.100000000000E+01
  0.157729503259E+01  0.159701071514E+01  0.152167522831E+01  0.500000000000E+01  0.441213888848E+01  0.370665089386E+01  0.199896920986E+01
  0.224835513052E+01  0.181406525358E+01  0.296809553468E+01 -0.327148091500E-18  0.696815730569E+00  0.990157383601E+00  0.787866207738E+00
  0.548147595005E+00  0.128672970530E+01  0.400000000000E+01  0.200000000000E+01  0.160443740745E+01  0.959766653149E+00  0.300000000000E+01
 -0.327148091500E-18 -0.327148091500E-18  0.606872513237E+00 -0.327148091500E-18  0.100000000000E+01  0.486991412371E+00 -0.327148091500E-18
 -0.327148091500E-18
  0.100230147278E+01  0.100190861555E+01  0.100208989668E+01  0.100305257030E+01  0.100199816851E+01  0.100313193718E+01  0.100511335858E+01
  0.100369742010E+01  0.100548491850E+01  0.100303749011E+01  0.100096458501E+01  0.100461608564E+01  0.101903627112E+01  0.100460638937E+01
  0.996428645177E+00  0.100461663090E+01  0.100463378045E+01  0.100386001519E+01  0.996054924108E+00  0.101002871870E+01  0.983192886397E+00
  0.999209286377E+00  0.100339181260E+01  0.100831148604E+01  0.100380045317E+01  0.100495340203E+01  0.100724448728E+01  0.997528612150E+00
  0.101249343198E+01  0.993492061397E+00  0.100751321162E+01  0.820335833703E+00  0.996146475764E+00  0.984681966263E+00  0.101951013944E+01
  0.100281723199E+01  0.100187744483E+01  0.100553009121E+01  0.103486031118E+01  0.100265098553E+01  0.106812034788E+01  0.100777101779E+01
  0.980088234111E+00  0.984154788536E+00  0.975535629463E+00  0.986264991806E+00  0.100723044243E+01  0.109842821077E+01  0.922337056705E+00
  0.150305665975E+01
  0.500084098262E+00  0.499206917349E+00  0.499426305722E+00  0.497831382364E+00  0.499699500015E+00  0.497947634959E+00  0.512033794895E+00
  0.500203144228E+00  0.494199598604E+00  0.498605114986E+00  0.501678857130E+00  0.498589148209E+00  0.523956884322E+00  0.537340203253E+00
  0.549692729947E+00  0.493151175817E+00  0.495426088060E+00  0.497560330848E+00  0.522246898491E+00  0.493535214622E+00  0.477411096981E+00
  0.570414502271E+00  0.584151691092E+00  0.571389070029E+00  0.495821521601E+00  0.494725717652E+00  0.493736356839E+00  0.547549334124E+00
  0.488842203562E+00  0.537946951010E+00  0.492247513144E+00  0.000000000000E+00  0.397676270737E+00  0.465933572270E+00  0.413352283937E+00
  0.307142470325E+00  0.585771837596E+00  0.494914464082E+00  0.468451020364E+00  0.493110408181E+00  0.532070479640E+00  0.491961370424E+00
  0.000000000000E+00  0.000000000000E+00  0.377547217944E+00  0.000000000000E+00  0.483650065297E+00  0.446830683509E+00  0.000000000000E+00
  0.000000000000E+00
  0.000000000000E+00  0.000000000000E+00  0.000000000000E+00  0.000000000000E+00  0.000000000000E+00  0.000000000000E+00  0.000000000000E+00
  0.000000000000E+00  0.000000000000E+00  0.000000000000E+00  0.000000000000E+00  0.000000000000E+00  0.000000000000E+00  0.000000000000E+00
  0.000000000000E+00  0.000000000000E+00  0.000000000000E+00  0.000000000000E+00  0.000000000000E+00  0.000000000000E+00  0.000000000000E+00
  0.000000000000E+00  0.000000000000E+00  0.000000000000E+00  0.000000000000E+00  0.000000000000E+00  0.000000000000E+00  0.000000000000E+00
  0.000000000000E+00  0.000000000000E+00  0.000000000000E+00  0.000000000000E+00  0.000000000000E+00  0.000000000000E+00  0.000000000000E+00
  0.000000000000E+00  0.000000000000E+00  0.000000000000E+00  0.000000000000E+00  0.000000000000E+00  0.000000000000E+00  0.000000000000E+00
  0.000000000000E+00  0.000000000000E+00  0.000000000000E+00  0.000000000000E+00  0.000000000000E+00  0.000000000000E+00  0.000000000000E+00
  0.000000000000E+00
  0.327260120524E-02  0.433620492861E-02  0.733933159193E-02  0.467015677366E-02  0.461403419587E-02  0.429406797485E-02  0.121403429504E-01
  0.421528989793E-02  0.342579102047E-02  0.532209443895E-02  0.321684118087E-02  0.656572900993E-02 -0.228578847631E-01  0.631147689189E-02
  0.934431157697E-02  0.482177986618E-02  0.603970746892E-02  0.734762189852E-02  0.127843591204E-01  0.106224177027E-01 -0.872550136665E-01
 -0.932387447268E-02  0.728143892366E-02  0.219511250658E-01  0.177074509993E-02  0.391570601545E-02  0.536534796242E-02  0.250638390197E-01
  0.861862013214E-02  0.445544938607E-01  0.601886730806E-02  0.000000000000E+00 -0.437674546930E-01  0.127001102110E-01  0.560297885962E-02
  0.453815416772E-02  0.380589348278E-01 -0.839606934113E-03 -0.500829761452E-02  0.258306146454E-01  0.733095341247E-01  0.364035302335E-02
  0.000000000000E+00  0.000000000000E+00 -0.110075783840E-01  0.000000000000E+00  0.352771873099E-01  0.179029004042E+00  0.000000000000E+00
  0.000000000000E+00
  0.716680638992E+00  0.716862990665E+00  0.716428764066E+00  0.717008438967E+00  0.716860055044E+00  0.716848644384E+00  0.720760629820E+00
  0.718675446408E+00  0.719249473634E+00  0.718220403022E+00  0.715864976673E+00  0.716775464579E+00  0.730505091713E+00  0.720081751243E+00
  0.711998310691E+00  0.719028490365E+00  0.719201626467E+00  0.718604962301E+00  0.714413816904E+00  0.721666305934E+00  0.687386246011E+00
  0.705381941277E+00  0.708078616608E+00  0.712752912616E+00  0.717939497110E+00  0.719439424150E+00  0.721994907217E+00  0.718924206994E+00
  0.723522064214E+00  0.717707577207E+00  0.720783655053E+00  0.585942261902E+00  0.694223552750E+00  0.690309199300E+00  0.715892050382E+00
  0.707673709789E+00  0.698078182292E+00  0.720350284376E+00  0.741929026546E+00  0.738951477504E+00  0.749091002035E+00  0.723056948810E+00
  0.700048817252E+00  0.702953044729E+00  0.681416704732E+00  0.704460590891E+00  0.744871391453E+00  0.724806515535E+00  0.658798136081E+00
  0.107358842586E+01
  0.499832710839E+00  0.498802860743E+00  0.499253502447E+00  0.497664973199E+00  0.499320829607E+00  0.497852965488E+00  0.511173864671E+00
  0.499611953191E+00  0.493851990786E+00  0.498020436141E+00  0.501377114882E+00  0.498913154900E+00  0.523513167013E+00  0.536441464190E+00
  0.549670381475E+00  0.492678879975E+00  0.494909376397E+00  0.497073431793E+00  0.521325127772E+00  0.493575215470E+00  0.490549075789E+00
  0.573852943583E+00  0.587746286858E+00  0.574799012898E+00  0.495500270595E+00  0.494185408606E+00  0.492898065623E+00  0.545676033526E+00
  0.488812586941E+00  0.536745414949E+00  0.491897806130E+00  0.000000000000E+00  0.405034521308E+00  0.470486775013E+00  0.416934874254E+00
  0.309042080642E+00  0.594339333772E+00  0.494188259299E+00  0.467610952437E+00  0.486118461877E+00  0.542040309814E+00  0.490877984225E+00
  0.000000000000E+00  0.000000000000E+00  0.381950376616E+00  0.000000000000E+00  0.476588111936E+00  0.500820698562E+00  0.000000000000E+00
  0.000000000000E+00
  0.100104900754E+01  0.100169633373E+01  0.100090847439E+01  0.100075693366E+01  0.100160270607E+01  0.100045474073E+01  0.100393142041E+01
  0.100243918618E+01  0.100145635659E+01  0.100246359099E+01  0.100124518125E+01  0.998874758975E+00  0.100360228324E+01  0.100349197696E+01
  0.100037031231E+01  0.100201395792E+01  0.100223812563E+01  0.100217852290E+01  0.100414075515E+01  0.100030109006E+01  0.978791402714E+00
  0.988316192865E+00  0.987959091153E+00  0.989628791771E+00  0.100130986471E+01  0.100225064344E+01  0.100352286150E+01  0.100898748921E+01
  0.100043206001E+01  0.101137255861E+01  0.100157209398E+01  0.999979682663E+00  0.975672752448E+00  0.981467024006E+00  0.983069056170E+00
  0.987959881521E+00  0.975478048992E+00  0.100294402619E+01  0.100371096074E+01  0.103179679015E+01  0.981843857696E+00  0.100447394345E+01
  0.999979705952E+00  0.999979143611E+00  0.977907272490E+00  0.999979554624E+00  0.103533402497E+01  0.923801038429E+00  0.999978677868E+00
  0.999978135523E+00
        44        35        36        36
        24        34        36        36
        38        27        31        31
        20        29        31        31
        24        23        34        34
        15        22        23        23
        24        35        37        37
        41        30        37        37
        27        18        20        20
        17        18        27        27
        15        19        11        11
        12         6        11        11
         8         7        14        14
        13        14         7         7
        41        40        30        30
        47        39        40        40
        17         9        10        10
         5        10         9         9
        44        45        35        35
        49        41        45        45
        19        15        24        24
        36        35        24        24
        37        45        41        41
        40        39        29        29
        30        29        20        20
        12        18        10        10
        20        12        19        19
        11         8        15        15
        20        18        12        12
        27        20        31        31
        28        20        19        19
        23        24        15        15
        23        22        34        34
        28        24        37        37
        11        19        12        12
        11         6         8         8
        28        19        24        24
        40        41        47        47
        30        40        29        29
        45        44        49        49
        37        35        45        45
        16        26        25        25
        27        38        26        26
        47        48        50        50
        43        33        32        32
        22        21        33        33
         3         4         1         1
         6         2         4         4
        10         5         6         6
        14        13        22        22
         4         3         8         8
         7         8         3         3
        42        38        31        31
         9        17        16        16
        33        43        34        34
        36        34        43        43
        41        48        47        47
        15         8        14        14
        28        30        20        20
        18        17        10        10
        42        31        39        39
        26        16        17        17
         8         6         4         4
        34        22        33        33
        37        30        28        28
        27        26        17        17
        49        48        41        41
        46        36        43        43
        31        29        39        39
        36        46        44        44
        22        13        21        21
        15        14        22        22
         6         5         2         2
        12        10         6         6
        26        38        25        25
        48        49        50        50
        33        21        32        32
         4         2         1         1
zone t="boundary 3 bc-3", solutiontime= 0.9000000E+02, strandid=1003, i=50, j=78, f=feblock
  0.500000000000E+01  0.400000000000E+01  0.500000000000E+01  0.432205072469E+01  0.300000000000E+01  0.339985167428E+01  0.500000000000E+01
  0.414352482062E+01  0.200000000000E+01  0.238772260472E+01  0.328766614337E+01  0.253053942594E+01  0.500000000000E+01  0.437470683547E+01
  0.355186041251E+01  0.100000000000E+01  0.148474164412E+01  0.182006405350E+01  0.265208498144E+01  0.158439218620E+01  0.500000000000E+01
  0.421824364393E+01  0.356601661300E+01  0.279151482472E+01 -0.327148091500E-18  0.691584087487E+00  0.102677755985E+01  0.203910647352E+01
  0.786163368796E+00  0.130062434092E+01  0.579883387792E+00  0.500000000000E+01  0.439593351493E+01  0.365358382485E+01  0.222719085292E+01
  0.294979435250E+01  0.181898636514E+01 -0.327148091500E-18 -0.327148091500E-18  0.608717331133E+00  0.956798945949E+00 -0.327148091500E-18
  0.400000000000E+01  0.200000000000E+01  0.160059523280E+01  0.300000000000E+01 -0.327148091500E-18  0.482256655205E+00  0.100000000000E+01
 -0.327148091500E-18
 -0.327148091500E-18 -0.327148091500E-18 -0.327148091500E-18 -0.327148091500E-18 -0.327148091500E-18 -0.327148091500E-18 -0.327148091500E-18
 -0.327148091500E-18 -0.327148091500E-18 -0.327148091500E-18 -0.327148091500E-18 -0.327148091500E-18 -0.327148091500E-18 -0.327148091500E-18
 -0.327148091500E-18 -0.327148091500E-18 -0.327148091500E-18 -0.327148091500E-18 -0.327148091500E-18 -0.327148091500E-18 -0.327148091500E-18
 -0.327148091500E-18 -0.327148091500E-18 -0.327148091500E-18 -0.327148091500E-18 -0.327148091500E-18 -0.327148091500E-18 -0.327148091500E-18
 -0.327148091500E-18 -0.327148091500E-18 -0.327148091500E-18 -0.327148091500E-18 -0.327148091500E-18 -0.327148091500E-18 -0.327148091500E-18
 -0.327148091500E-18 -0.327148091500E-18 -0.327148091500E-18 -0.327148091500E-18 -0.327148091500E-18 -0.327148091500E-18 -0.327148091500E-18
 -0.327148091500E-18 -0.327148091500E-18 -0.327148091500E-18 -0.327148091500E-18 -0.327148091500E-18 -0.327148091500E-18 -0.327148091500E-18
 -0.327148091500E-18
  0.500000000000E+01  0.500000000000E+01  0.400000000000E+01  0.427284776458E+01  0.500000000000E+01  0.409791606955E+01  0.300000000000E+01
  0.334954216394E+01  0.500000000000E+01  0.428961258157E+01  0.317389756208E+01  0.342579600005E+01  0.200000000000E+01  0.245604909385E+01
  0.233993022181E+01  0.500000000000E+01  0.436396516571E+01  0.369973104758E+01  0.256908373316E+01  0.279597472668E+01  0.100000000000E+01
  0.157729503259E+01  0.159701071514E+01  0.152167522831E+01  0.500000000000E+01  0.441213888848E+01  0.370665089386E+01  0.199896920986E+01
  0.224835513052E+01  0.181406525358E+01  0.296809553468E+01 -0.327148091500E-18  0.696815730569E+00  0.990157383601E+00  0.787866207738E+00
  0.548147595005E+00  0.128672970530E+01  0.400000000000E+01  0.200000000000E+01  0.160443740745E+01  0.959766653149E+00  0.300000000000E+01
 -0.327148091500E-18 -0.327148091500E-18  0.606872513237E+00 -0.327148091500E-18  0.100000000000E+01  0.486991412371E+00 -0.327148091500E-18
 -0.327148091500E-18
  0.100230148220E+01  0.100190859562E+01  0.100208994427E+01  0.100305260546E+01  0.100199813551E+01  0.100313199554E+01  0.100511328142E+01
  0.100369745714E+01  0.100548499331E+01  0.100303747478E+01  0.100096463993E+01  0.100461624649E+01  0.101903643931E+01  0.100460628190E+01
  0.996428571843E+00  0.100461665218E+01  0.100463380250E+01  0.100386001973E+01  0.996054773137E+00  0.101002899513E+01  0.983194840918E+00
  0.999210132885E+00  0.100339228631E+01  0.100831202124E+01  0.100380048539E+01  0.100495342220E+01  0.100724454048E+01  0.997528228574E+00
  0.101249356470E+01  0.993491471634E+00  0.100751325841E+01  0.820343758164E+00  0.996149211764E+00  0.984684023490E+00  0.101951244073E+01
  0.100282045660E+01  0.100187821210E+01  0.100553009883E+01  0.103486139598E+01  0.100265020226E+01  0.106812295300E+01  0.100777099233E+01
  0.980094403866E+00  0.984160631012E+00  0.975537559863E+00  0.986271912773E+00  0.100722827997E+01  0.109843417550E+01  0.922339839527E+00
  0.150307423028E+01
  0.500084105283E+00  0.499206909048E+00  0.499426242478E+00  0.497831333051E+00  0.499699515588E+00  0.497947588851E+00  0.512034002019E+00
  0.500203053793E+00  0.494199527292E+00  0.498605132729E+00  0.501678705208E+00  0.498589038375E+00  0.523957087467E+00  0.537340504683E+00
  0.549692875172E+00  0.493151103252E+00  0.495426066716E+00  0.497560317973E+00  0.522246886084E+00  0.493534954953E+00  0.477408764530E+00
  0.570414276823E+00  0.584151830713E+00  0.571389534517E+00  0.495821493350E+00  0.494725705852E+00  0.493736329617E+00  0.547549551948E+00
  0.488842031920E+00  0.537947072233E+00  0.492247497487E+00  0.000000000000E+00  0.397673623834E+00  0.465932935023E+00  0.413352526219E+00
  0.307142046816E+00  0.585773136497E+00  0.494914475237E+00  0.468450219402E+00  0.493109591581E+00  0.532071572651E+00  0.491961355265E+00
  0.000000000000E+00  0.000000000000E+00  0.377547762681E+00  0.000000000000E+00  0.483651004891E+00  0.446832954366E+00  0.000000000000E+00
  0.000000000000E+00
  0.000000000000E+00  0.000000000000E+00  0.000000000000E+00  0.000000000000E+00  0.000000000000E+00  0.000000000000E+00  0.000000000000E+00
  0.000000000000E+00  0.000000000000E+00  0.000000000000E+00  0.000000000000E+00  0.000000000000E+00  0.000000000000E+00  0.000000000000E+00
  0.000000000000E+00  0.000000000000E+00  0.000000000000E+00  0.000000000000E+00  0.000000000000E+00  0.000000000000E+00  0.000000000000E+00
  0.000000000000E+00  0.000000000000E+00  0.000000000000E+00  0.000000000000E+00  0.000000000000E+00  0.000000000000E+00  0.000000000000E+00
  0.000000000000E+00  0.000000000000E+00  0.000000000000E+00  0.000000000000E+00  0.000000000000E+00  0.000000000000E+00  0.000000000000E+00
  0.000000000000E+00  0.000000000000E+00  0.000000000000E+00  0.000000000000E+00  0.000000000000E+00  0.000000000000E+00  0.000000000000E+00
  0.000000000000E+00  0.000000000000E+00  0.000000000000E+00  0.000000000000E+00  0.000000000000E+00  0.000000000000E+00  0.000000000000E+00
  0.000000000000E+00
  0.327266962218E-02  0.433632122702E-02  0.733953476421E-02  0.467030787278E-02  0.461410000758E-02  0.429422977307E-02  0.121409578537E-01
  0.421555608948E-02  0.342576123124E-02  0.532213524852E-02  0.321710104144E-02  0.656584463439E-02 -0.228566931013E-01  0.631227148711E-02
  0.934493746979E-02  0.482182096066E-02  0.603975785614E-02  0.734771950645E-02  0.127846636986E-01  0.106225156541E-01 -0.872531699496E-01
 -0.932296858812E-02  0.728207727377E-02  0.219518272764E-01  0.177073667287E-02  0.391572729920E-02  0.536538694904E-02  0.250643587417E-01