# vtk DataFile Version 2.0
FUN3D:global_image_vtk
ASCII
DATASET UNSTRUCTURED_GRID
POINTS 350 double
    0.5000000000000000E+01    0.0000000000000000E+00    0.2484468825231571E-18
    0.0000000000000000E+00    0.5000000000000000E+01    0.0000000000000000E+00
    0.4000000000000000E+01    0.0000000000000000E+00    0.2484468825231571E-18
    0.0000000000000000E+00    0.5000000000000000E+01    0.0000000000000000E+00
    0.3000000000000000E+01    0.0000000000000000E+00    0.2484468825231571E-18
    0.0000000000000000E+00    0.5000000000000000E+01    0.0000000000000000E+00
    0.2000000000000000E+01    0.0000000000000000E+00    0.2484468825231571E-18
    0.0000000000000000E+00    0.5000000000000000E+01    0.0000000000000000E+00
    0.9999999999999998E+00    0.0000000000000000E+00    0.2484468825231571E-18
    0.0000000000000000E+00    0.5000000000000000E+01    0.0000000000000000E+00
    0.2484468825231571E-18    0.0000000000000000E+00    0.2484468825231571E-18
    0.0000000000000000E+00    0.5000000000000000E+01    0.0000000000000000E+00
    0.2484468825231571E-18    0.0000000000000000E+00    0.2484468825231571E-18
    0.0000000000000000E+00    0.4000000000000000E+01    0.0000000000000000E+00
    0.2484468825231571E-18    0.0000000000000000E+00    0.2484468825231571E-18
    0.0000000000000000E+00    0.3000000000000000E+01    0.0000000000000000E+00
    0.2484468825231571E-18    0.0000000000000000E+00    0.2484468825231571E-18
    0.0000000000000000E+00    0.2000000000000000E+01    0.0000000000000000E+00
    0.2484468825231571E-18    0.0000000000000000E+00    0.2484468825231571E-18
    0.0000000000000000E+00    0.9999999999999998E+00    0.0000000000000000E+00
    0.2484468825231571E-18    0.0000000000000000E+00    0.2484468825231571E-18
    0.0000000000000000E+00    0.2484468825231571E-18    0.0000000000000000E+00
    0.9999999999999999E+00    0.0000000000000000E+00    0.2484468825231571E-18
    0.0000000000000000E+00    0.2484468825231571E-18    0.0000000000000000E+00
    0.2000000000000000E+01    0.0000000000000000E+00    0.2484468825231571E-18
    0.0000000000000000E+00    0.2484468825231571E-18    0.0000000000000000E+00
    0.3000000000000000E+01    0.0000000000000000E+00    0.2484468825231571E-18
    0.0000000000000000E+00    0.2484468825231571E-18    0.0000000000000000E+00
    0.4000000000000000E+01    0.0000000000000000E+00    0.2484468825231571E-18
    0.0000000000000000E+00    0.2484468825231571E-18    0.0000000000000000E+00
    0.5000000000000000E+01    0.0000000000000000E+00    0.2484468825231571E-18
    0.0000000000000000E+00    0.2484468825231571E-18    0.0000000000000000E+00
    0.5000000000000000E+01    0.0000000000000000E+00    0.2484468825231571E-18
    0.0000000000000000E+00    0.1000000000000000E+01    0.0000000000000000E+00
    0.5000000000000000E+01    0.0000000000000000E+00    0.2484468825231571E-18
    0.0000000000000000E+00    0.2000000000000000E+01    0.0000000000000000E+00
    0.5000000000000000E+01    0.0000000000000000E+00    0.2484468825231571E-18
    0.0000000000000000E+00    0.3000000000000000E+01    0.0000000000000000E+00
    0.5000000000000000E+01    0.0000000000000000E+00    0.2484468825231571E-18
    0.0000000000000000E+00    0.4000000000000000E+01    0.0000000000000000E+00
    0.4322050724693945E+01    0.0000000000000000E+00    0.2484468825231571E-18
    0.0000000000000000E+00    0.4272847764579289E+01    0.0000000000000000E+00
    0.4395933514933383E+01    0.0000000000000000E+00    0.2484468825231571E-18
    0.0000000000000000E+00    0.6968157305690375E+00    0.0000000000000000E+00
    0.4822566552045414E+00    0.0000000000000000E+00    0.2484468825231571E-18
    0.0000000000000000E+00    0.4869914123714657E+00    0.0000000000000000E+00
    0.6915840874870021E+00    0.0000000000000000E+00    0.2484468825231571E-18
    0.0000000000000000E+00    0.4412138888481547E+01    0.0000000000000000E+00
    0.3399851674277183E+01    0.0000000000000000E+00    0.2484468825231571E-18
    0.0000000000000000E+00    0.4097916069546335E+01    0.0000000000000000E+00
    0.2387722604716090E+01    0.0000000000000000E+00    0.2484468825231571E-18
    0.0000000000000000E+00    0.4289612581570788E+01    0.0000000000000000E+00
    0.2530539425941974E+01    0.0000000000000000E+00    0.2484468825231571E-18
    0.0000000000000000E+00    0.3425796000045182E+01    0.0000000000000000E+00
    0.4218243643927281E+01    0.0000000000000000E+00    0.2484468825231571E-18
    0.0000000000000000E+00    0.1577295032585114E+01    0.0000000000000000E+00
    0.4374706835472756E+01    0.0000000000000000E+00    0.2484468825231571E-18
    0.0000000000000000E+00    0.2456049093849535E+01    0.0000000000000000E+00
    0.3551860412513510E+01    0.0000000000000000E+00    0.2484468825231571E-18
    0.0000000000000000E+00    0.2339930221808592E+01    0.0000000000000000E+00
    0.2949794352503393E+01    0.0000000000000000E+00    0.2484468825231571E-18
    0.0000000000000000E+00    0.5481475950050476E+00    0.0000000000000000E+00
    0.7861633687955188E+00    0.0000000000000000E+00    0.2484468825231571E-18
    0.0000000000000000E+00    0.2248355130517770E+01    0.0000000000000000E+00
    0.5798833877919640E+00    0.0000000000000000E+00    0.2484468825231571E-18
    0.0000000000000000E+00    0.2968095534677868E+01    0.0000000000000000E+00
    0.9567989459488916E+00    0.0000000000000000E+00    0.2484468825231571E-18
    0.0000000000000000E+00    0.9597666531489262E+00    0.0000000000000000E+00
    0.1484741644122566E+01    0.0000000000000000E+00    0.2484468825231571E-18
    0.0000000000000000E+00    0.4363965165706898E+01    0.0000000000000000E+00
    0.1026777559850325E+01    0.0000000000000000E+00    0.2484468825231571E-18
    0.0000000000000000E+00    0.3706650893855072E+01    0.0000000000000000E+00
    0.2039106473515760E+01    0.0000000000000000E+00    0.2484468825231571E-18
    0.0000000000000000E+00    0.1998969209862488E+01    0.0000000000000000E+00
    0.1300624340922514E+01    0.0000000000000000E+00    0.2484468825231571E-18
    0.0000000000000000E+00    0.1814065253577793E+01    0.0000000000000000E+00
    0.1818986365136347E+01    0.0000000000000000E+00    0.2484468825231571E-18
    0.0000000000000000E+00    0.1286729705298721E+01    0.0000000000000000E+00
    0.3653583824847581E+01    0.0000000000000000E+00    0.2484468825231571E-18
    0.0000000000000000E+00    0.9901573836014240E+00    0.0000000000000000E+00
    0.4143524820619449E+01    0.0000000000000000E+00    0.2484468825231571E-18
    0.0000000000000000E+00    0.3349542163936307E+01    0.0000000000000000E+00
    0.1820064053502506E+01    0.0000000000000000E+00    0.2484468825231571E-18
    0.0000000000000000E+00    0.3699731047579209E+01    0.0000000000000000E+00
    0.1584392186197914E+01    0.0000000000000000E+00    0.2484468825231571E-18
    0.0000000000000000E+00    0.2795974726684905E+01    0.0000000000000000E+00
    0.1600595232801024E+01    0.0000000000000000E+00    0.2484468825231571E-18
    0.0000000000000000E+00    0.6068725132371939E+00    0.0000000000000000E+00
    0.2227190852919879E+01    0.0000000000000000E+00    0.2484468825231571E-18
    0.0000000000000000E+00    0.7878662077383224E+00    0.0000000000000000E+00
    0.6087173311333847E+00    0.0000000000000000E+00    0.2484468825231571E-18
    0.0000000000000000E+00    0.1604437407448898E+01    0.0000000000000000E+00
    0.2791514824717063E+01    0.0000000000000000E+00    0.2484468825231571E-18
    0.0000000000000000E+00    0.1521675228311488E+01    0.0000000000000000E+00
    0.2652084981436515E+01    0.0000000000000000E+00    0.2484468825231571E-18
    0.0000000000000000E+00    0.2569083733163254E+01    0.0000000000000000E+00
    0.3287666143370331E+01    0.0000000000000000E+00    0.2484468825231571E-18
    0.0000000000000000E+00    0.3173897562080839E+01    0.0000000000000000E+00
    0.3566016613004364E+01    0.0000000000000000E+00    0.2484468825231571E-18
    0.0000000000000000E+00    0.1597010715137857E+01    0.0000000000000000E+00
    0.5000000000000000E+01    0.0000000000000000E+00   -0.8333333333333334E+00
    0.0000000000000000E+00    0.5000000000000000E+01    0.0000000000000000E+00
    0.4000000000000000E+01    0.0000000000000000E+00   -0.8333333333333334E+00
    0.0000000000000000E+00    0.5000000000000000E+01    0.0000000000000000E+00
    0.3000000000000000E+01    0.0000000000000000E+00   -0.8333333333333334E+00
    0.0000000000000000E+00    0.5000000000000000E+01    0.0000000000000000E+00
    0.2000000000000000E+01    0.0000000000000000E+00   -0.8333333333333334E+00
    0.0000000000000000E+00    0.5000000000000000E+01    0.0000000000000000E+00
    0.9999999999999998E+00    0.0000000000000000E+00   -0.8333333333333334E+00
    0.0000000000000000E+00    0.5000000000000000E+01    0.0000000000000000E+00
    0.2484468825231571E-18    0.0000000000000000E+00   -0.8333333333333334E+00
    0.0000000000000000E+00    0.5000000000000000E+01    0.0000000000000000E+00
    0.2484468825231571E-18    0.0000000000000000E+00   -0.8333333333333334E+00
    0.0000000000000000E+00    0.4000000000000000E+01    0.0000000000000000E+00
    0.2484468825231571E-18    0.0000000000000000E+00   -0.8333333333333334E+00
    0.0000000000000000E+00    0.3000000000000000E+01    0.0000000000000000E+00
    0.2484468825231571E-18    0.0000000000000000E+00   -0.8333333333333334E+00
    0.0000000000000000E+00    0.2000000000000000E+01    0.0000000000000000E+00
    0.2484468825231571E-18    0.0000000000000000E+00   -0.8333333333333334E+00
    0.0000000000000000E+00    0.9999999999999998E+00    0.0000000000000000E+00
    0.2484468825231571E-18    0.0000000000000000E+00   -0.8333333333333334E+00
    0.0000000000000000E+00    0.2484468825231571E-18    0.0000000000000000E+00
    0.9999999999999999E+00    0.0000000000000000E+00   -0.8333333333333334E+00
    0.0000000000000000E+00    0.2484468825231571E-18    0.0000000000000000E+00
    0.2000000000000000E+01    0.0000000000000000E+00   -0.8333333333333334E+00
[...]
POINT_DATA 350
SCALARS rho double 1
LOOKUP_TABLE default
   0.1002301478052448E+01
  -0.7163809236522636E-34
   0.1001908600693732E+01
  -0.1157482249201722E-33
   0.1001998133420747E+01
  -0.1357323568501238E-33
   0.1005484994351442E+01
  -0.1905529357151768E-33
   0.1004616650605693E+01
  -0.1416547851874910E-33
   0.1003800486908781E+01
  -0.1103843490740212E-33
   0.1005530097938826E+01
  -0.1518636192230363E-33
   0.1007770991765465E+01
  -0.1804050407514057E-33
   0.1034861398237333E+01
  -0.6300467460022295E-33
   0.1007228280796294E+01
   0.6432943394893327E-33
   0.1503074230777969E+01
  -0.6360667527189971E-32
   0.9223398393164970E+00
  -0.2532338403735433E-32
   0.9841606312903234E+00
  -0.2052528751616440E-32
   0.9862719140520806E+00
  -0.3730330332131900E-32
   0.9800944008530873E+00
  -0.2214382182910452E-32
   0.8203437526192269E+00
  -0.5707784986124350E-32
   0.9831948214538001E+00
  -0.6672709149064878E-33
   0.1019036449340146E+01
  -0.1878537498081077E-33
   0.1005113280456906E+01
  -0.1462226434681182E-34
   0.1002089939733923E+01
  -0.7501628225674500E-34
   0.1003052602026175E+01
  -0.1161252895670013E-33
   0.9961491831633909E+00
  -0.1030262922171011E-32
   0.1098434172247657E+01
  -0.2262652576513501E-32
   0.1004953421898996E+01
  -0.1505855628569635E-33
   0.1003131996580839E+01
  -0.1738812758618319E-33
   0.1003037476016249E+01
  -0.1605572506193643E-33
   0.1004616248532739E+01
  -0.2363556417302478E-33
   0.9992101401130395E+00
  -0.6303405241106700E-33
   0.1004606281538260E+01
  -0.4708072254513785E-34
   0.9964285706146259E+00
  -0.1350217018375830E-33
   0.1002820442116379E+01
  -0.1614666822059291E-32
   0.1012493563390304E+01
  -0.2518137806947320E-33
   0.1007513258713275E+01
  -0.2027351095251832E-33
   0.1068122954901260E+01
  -0.1121447575553680E-32
   0.1004633802917535E+01
  -0.1700707006149461E-33
   0.1007244540864611E+01
  -0.1979576606722003E-33
   0.9975282284844824E+00
  -0.6144481956892595E-34
   0.9934914731775513E+00
   0.2696596572769408E-34
   0.1001878208695455E+01
  -0.4133742021733363E-33
   0.9846840156873694E+00
  -0.1360646901507433E-32
   0.1003697458608519E+01
  -0.1369344487336212E-33
   0.1003860017528962E+01
  -0.1794113586488883E-33
   0.1010028996177829E+01
  -0.3062953723107761E-33
   0.9755375564885300E+00
  -0.1400640633429869E-32
   0.1019512444151912E+01
  -0.1294683934914880E-32
   0.1002650201032626E+01
   0.1931243335772787E-34
   0.1008312025398907E+01
  -0.3943769977779675E-33
   0.9960547716957779E+00
  -0.1331954691069473E-33
   0.1000964641050069E+01
  -0.1982290669228277E-33
   0.1003392290029077E+01
  -0.2810901703214843E-33
   0.1002238971278636E+01
  -0.7079781619010064E-34
   0.1001784092248317E+01
  -0.1152468914128589E-33
   0.1001851621757847E+01
  -0.1352965515230737E-33
   0.1005416898434238E+01
  -0.1905329258298522E-33
   0.1004542701942468E+01
  -0.1415490101332500E-33
   0.1003773100347590E+01
  -0.1101688322456310E-33
   0.1005435022189521E+01
  -0.1518480163094145E-33
   0.1007530268147183E+01
  -0.1802765522611626E-33
   0.1034538202979566E+01
  -0.6319832125695706E-33
   0.1004048740518003E+01
   0.6564956028000845E-33
   0.1504789635140229E+01
  -0.6355361401255843E-32
   0.9195193539231615E+00
  -0.2516516526317186E-32
   0.9838492063013657E+00
  -0.2048087488895717E-32
   0.9871161104669323E+00
  -0.3731165597766246E-32
   0.9803670484753420E+00
  -0.2229126236991090E-32
   0.8215129054701331E+00
  -0.5726377049986160E-32
   0.9886371159542575E+00
  -0.6783419168674836E-33
   0.1020555412761837E+01
  -0.1916924782998816E-33
   0.1005030780688015E+01
  -0.1607123912666914E-34
   0.1002005296463934E+01
  -0.7527843034885986E-34
   0.1002963073015403E+01
  -0.1155466919615798E-33
   0.1000189928386512E+01
  -0.1045191515721054E-32
   0.1098988589169155E+01
  -0.2269888211898753E-32
   0.1004887997980269E+01
  -0.1505105738155969E-33
   0.1003036709480914E+01
  -0.1733379848890599E-33
   0.1002883920431276E+01
  -0.1599658386859964E-33
   0.1004550861338475E+01
  -0.2363945535746788E-33
   0.1000595550548344E+01
  -0.6301676723084801E-33
   0.1004836522159852E+01
  -0.4745372352765169E-34
   0.9964134786002490E+00
  -0.1343023704558354E-33
   0.1005319091861442E+01
  -0.1613283118141884E-32
   0.1012155288500915E+01
  -0.2524871447751963E-33
   0.1007313043358241E+01
  -0.2019463284972469E-33
   0.1068544136756124E+01
  -0.1119826564811929E-32
   0.1004524823772942E+01
  -0.1697525416145686E-33
   0.1007070793086065E+01
  -0.1971657661232654E-33
   0.9969095298397014E+00
  -0.5858391536504490E-34
   0.9928080953332222E+00
   0.2999011475589050E-34
   0.1001879325323979E+01
  -0.4073957403871828E-33
   0.9868899915311508E+00
  -0.1360253226043594E-32
   0.1003701709828539E+01
  -0.1381504333564736E-33
   0.1003655176467678E+01
  -0.1786512348819205E-33
   0.1009946519696513E+01
  -0.3074937938895612E-33
   0.9763461597729634E+00
  -0.1395953991629933E-32
   0.1021419515626409E+01
  -0.1294730498358775E-32
   0.1001420826892049E+01
   0.2475287831518837E-34
   0.1008564285547277E+01
  -0.3905633585539592E-33
   0.9957895951029574E+00
  -0.1335122527320605E-33
   0.1000898019468156E+01
  -0.1991935957255900E-33
   0.1003882707842803E+01
  -0.2771838664456565E-33
   0.1002273657730395E+01
  -0.7103894800631238E-34
   0.1001848931307509E+01
  -0.1154169114019870E-33
   0.1001928371404603E+01
  -0.1354419461467445E-33
   0.1005485942599434E+01
  -0.1906561196622718E-33
   0.1004592765088645E+01
  -0.1416690515572955E-33
   0.1003795031453642E+01
  -0.1102622504094798E-33
   0.1005476817147205E+01
  -0.1519130027312953E-33
   0.1007593191518499E+01
  -0.1804062396635993E-33
   0.1034675979424043E+01
  -0.6321412886475785E-33
   0.1004011706967272E+01
   0.6564952331243115E-33
   0.1505325609083116E+01
  -0.6354855725991967E-32
   0.9191714422341467E+00
  -0.2514750525461922E-32
   0.9840744188149096E+00
  -0.2048625299357512E-32
   0.9873841907216649E+00
  -0.3732422799191422E-32
   0.9804750000983691E+00
  -0.2232761806184630E-32
   0.8218025431459413E+00
  -0.5731288104295427E-32
   0.9885557727838319E+00
  -0.6781641497161997E-33
   0.1020566583182336E+01
  -0.1920551963129877E-33
   0.1005034319473689E+01
  -0.1579289113161428E-34
   0.1002025118736979E+01
  -0.7526944212885454E-34
   0.1003010435816222E+01
  -0.1157418620821432E-33
   0.1000073916160556E+01
  -0.1043868188334029E-32
   0.1099565656492503E+01
  -0.2270376163442030E-32
   0.1004937126550500E+01
  -0.1506200087226491E-33
   0.1003108822660695E+01
  -0.1735674274350869E-33
   0.1002967690794049E+01
  -0.1601595321359446E-33
   0.1004647047717464E+01
  -0.2366024573201869E-33
   0.1000705057905659E+01
  -0.6310630510906942E-33
   0.1004839128876373E+01
  -0.4740516057738878E-34
   0.9964455295453570E+00
  -0.1342826284751734E-33
   0.1005404983228120E+01
  -0.1612604474160255E-32
   0.1012326397340201E+01
  -0.2525929497508874E-33
   0.1007416441687992E+01
  -0.2021905009952672E-33
   0.1068978294388093E+01
  -0.1120846847462462E-32
   0.1004595738707248E+01
  -0.1699037953508907E-33
   0.1007160170391375E+01
  -0.1974104844778860E-33
   0.9970615849277712E+00
  -0.5891094521088577E-34
   0.9929533569691712E+00
   0.2990805743912795E-34
   0.1002099908587386E+01
  -0.4082977934876600E-33
   0.9869804218105229E+00
  -0.1360150688371558E-32
   0.1003734275533967E+01
  -0.1380514667736228E-33
   0.1003760043772721E+01
  -0.1789255580151434E-33
   0.1010076719952829E+01
  -0.3076165702101045E-33
   0.9766669677883906E+00
  -0.1396214026629576E-32
   0.1021655659301397E+01
  -0.1295142796586103E-32
   0.1001631274642903E+01
   0.2469791422615663E-34
   0.1008732461371070E+01
  -0.3913098907787799E-33
   0.9958681732155478E+00
  -0.1334038744488944E-33
   0.1000963325726823E+01
  -0.1991650130193300E-33
   0.1003940809319875E+01
  -0.2779097353676678E-33
   0.1002262881911572E+01
  -0.7099493385161885E-34
   0.1001817764406848E+01
  -0.1153859116846037E-33
   0.1001880634854887E+01
  -0.1353865784358750E-33
   0.1005434411387155E+01
  -0.1905732431678480E-33
   0.1004551938201693E+01
  -0.1415765793744806E-33
   0.1003774954971630E+01
  -0.1101900857518649E-33
   0.1005438954046083E+01
  -0.1518505894298173E-33
   0.1007524827601975E+01
  -0.1802966532289447E-33
   0.1034560445604388E+01
  -0.6320256094339482E-33
   0.1003828185470079E+01
   0.6567089608016417E-33
   0.1505209741098928E+01
  -0.6354794110285498E-32
   0.9191580067821351E+00
  -0.2514825084968610E-32
   0.9841429618582734E+00
  -0.2049126857962439E-32
   0.9874491445169652E+00
  -0.3733092652720334E-32
   0.9806154213332329E+00
  -0.2233138185053466E-32
   0.8217704199379892E+00
  -0.5730014777683623E-32
   0.9887921416843163E+00
  -0.6781115966237685E-33
   0.1020615669393285E+01
  -0.1924516813659552E-33
   0.1005027576253832E+01
  -0.1590602769506541E-34
   0.1002009958609257E+01
  -0.7521432902934701E-34
   0.1002995262241130E+01
  -0.1157299760046306E-33
   0.1000276434310708E+01
  -0.1044626676038694E-32
   0.1099256321549473E+01
  -0.2269992183132287E-32
   0.1004896393031633E+01
  -0.1505289177227239E-33
   0.1003079738655605E+01
  -0.1735380073622988E-33
   0.1002919379896943E+01
  -0.1600939553910580E-33
   0.1004609173047138E+01
  -0.2365534976589210E-33
   0.1000792318933656E+01
  -0.6314701826510083E-33
   0.1004903889761354E+01
  -0.4780898647724185E-34
   0.9965103586422952E+00
  -0.1346481813398301E-33
   0.1005429555266043E+01
  -0.1613014607547533E-32
   0.1012211223947095E+01
  -0.2524013054228109E-33
   0.1007337279397939E+01
  -0.2020095142976611E-33
   0.1068882552534550E+01
  -0.1120860752532329E-32
   0.1004544158288101E+01
  -0.1698128403273033E-33
   0.1007096887779238E+01
  -0.1972744451149146E-33
   0.9970409016946898E+00
  -0.5908192589407279E-34
   0.9928937297717801E+00
   0.2984123760665634E-34
   0.1002073506622241E+01
  -0.4083933475348919E-33
   0.9870464117014200E+00
  -0.1360678078938866E-32
   0.1003738827490004E+01
  -0.1381276314333550E-33
   0.1003697763519029E+01
  -0.1788062536539216E-33
   0.1010011928259759E+01
  -0.3075559852993958E-33
   0.9765721572845252E+00
  -0.1395915456907236E-32
   0.1021706612286026E+01
  -0.1295466716459694E-32
   0.1001510019357613E+01
   0.2464417518852580E-34
   0.1008778381407444E+01
  -0.3916672097727493E-33
   0.9958614577692738E+00
  -0.1335586517374743E-33
   0.1000955545919574E+01
  -0.1992380105956159E-33
   0.1004051816223050E+01
  -0.2784047599412236E-33
   0.1002273649205321E+01
  -0.7103864776382071E-34
   0.1001848936718334E+01
  -0.1154168753325009E-33
   0.1001928387602695E+01
  -0.1354420486490436E-33
   0.1005485909618678E+01
  -0.1906559508629682E-33
   0.1004592754755767E+01
  -0.1416690710654510E-33
   0.1003795016553869E+01
  -0.1102621540068180E-33
   0.1005476809181214E+01
  -0.1519131068086226E-33
   0.1007593195722929E+01
  -0.1804064042807692E-33
   0.1034675535822346E+01
  -0.6321404178233013E-33
   0.1004012565967740E+01
   0.6564897575498817E-33
   0.1505319237549816E+01
  -0.6354862746182887E-32
   0.9191706463065109E+00
  -0.2514737796927402E-32
   0.9840732433105623E+00
  -0.2048618192998278E-32
   0.9873832266825074E+00
  -0.3732414530667058E-32
   0.9804740847803322E+00
  -0.2232753731262627E-32
   0.8218010683715850E+00
  -0.5731261000872834E-32
   0.9885549375767112E+00
  -0.6781547986072941E-33
   0.1020566459300850E+01
  -0.1920514600394305E-33
   0.1005034358826588E+01
  -0.1579369746151689E-34
   0.1002025103439428E+01
  -0.7526952449294018E-34
   0.1003010417772118E+01
  -0.1157415865480599E-33
   0.1000072992648228E+01
  -0.1043859842418734E-32
   0.1099563432518534E+01
  -0.2270366626512292E-32
   0.1004937114814137E+01
  -0.1506200006484725E-33
   0.1003108795992491E+01
  -0.1735670752458016E-33
   0.1002967695767368E+01
  -0.1601595256874895E-33
   0.1004646982459654E+01
  -0.2366019114698118E-33
   0.1000704672965570E+01
  -0.6310558866314955E-33
   0.1004839154943915E+01
  -0.4740471782895395E-34
   0.9964455530783035E+00
  -0.1342819250164460E-33
   0.1005403886598180E+01
  -0.1612595608716726E-32
   0.1012326343989879E+01
  -0.2525931398127846E-33
   0.1007416420698610E+01
  -0.2021904533962650E-33
   0.1068977315342936E+01
  -0.1120841002669250E-32
   0.1004595726705090E+01
  -0.1699037541976832E-33
   0.1007160143080857E+01
  -0.1974104517722352E-33
   0.9970617270907715E+00
  -0.5891107437331373E-34
   0.9929535867046626E+00
   0.2990748437602696E-34
   0.1002099645425996E+01
  -0.4082923542184056E-33
   0.9869795780812374E+00
  -0.1360140491427522E-32
   0.1003734262438397E+01
  -0.1380516058411839E-33
   0.1003760039014001E+01
  -0.1789254363647886E-33
   0.1010076604941797E+01
  -0.3076161281613298E-33
   0.9766662322444315E+00
  -0.1396204921736504E-32
   0.1021654772671623E+01
  -0.1295134139072908E-32
   0.1001631546404221E+01
   0.2469538493392586E-34
   0.1008732233739810E+01
  -0.3913056661948260E-33
   0.9958682332567727E+00
  -0.1334041331777689E-33
   0.1000963299309933E+01
  -0.1991648901839709E-33
   0.1003940623249234E+01
  -0.2779052519891815E-33
   0.1002238963694820E+01
  -0.7079731274433605E-34
   0.1001784107104321E+01
  -0.1152468563061638E-33
   0.1001851650358555E+01
  -0.1352967220093098E-33
   0.1005416844819330E+01
  -0.1905326287323834E-33
   0.1004542685376608E+01
  -0.1415490358121297E-33
   0.1003773075737302E+01
  -0.1101686517176123E-33
   0.1005435012393363E+01
  -0.1518482046871572E-33
   0.1007530283326324E+01
  -0.1802768247354210E-33
   0.1034537411093925E+01
  -0.6319815775494876E-33
   0.1004050340186598E+01
   0.6564854613066043E-33
   0.1504777429188169E+01
  -0.6355375680538299E-32
   0.9195177611480934E+00
  -0.2516491500667828E-32
   0.9838457934176957E+00
  -0.2048069613200451E-32
   0.9871130160139144E+00
  -0.3731141414634407E-32
   0.9803642760839772E+00
  -0.2229105206479325E-32
   0.8215083435416293E+00
  -0.5726292466460750E-32
   0.9886356570232107E+00
  -0.6783248453808523E-33
   0.1020555214711174E+01
  -0.1916855398917330E-33
   0.1005030836777965E+01
  -0.1607274265363259E-34
   0.1002005260917620E+01
  -0.7527853843897826E-34
   0.1002963048783724E+01
  -0.1155462418725987E-33
   0.1000188192072044E+01
  -0.1045176114393993E-32
   0.1098984447072025E+01
  -0.2269870317710398E-32
   0.1004887980927660E+01
  -0.1505105617063873E-33
   0.1003036671305797E+01
  -0.1733374032280637E-33
   0.1002883934567260E+01
  -0.1599658376019559E-33
   0.1004550755707558E+01
  -0.2363936211477447E-33
   0.1000594882865008E+01
  -0.6301541197048842E-33
   0.1004836594789822E+01
  -0.4745323401606633E-34
   0.9964135415451493E+00
  -0.1343012851203098E-33
   0.1005316898387020E+01
  -0.1613265643152761E-32
   0.1012155200572876E+01
  -0.2524874224034994E-33
   0.1007313011132721E+01
  -0.2019462131187435E-33
   0.1068542308465120E+01
  -0.1119815290760233E-32
   0.1004524807578299E+01
  -0.1697524703983338E-33
   0.1007070750500923E+01
  -0.1971656996676102E-33
   0.9969098049500165E+00
  -0.5858421841983038E-34
   0.9928085316104250E+00
   0.2998898953981713E-34
   0.1001878827604868E+01
  -0.4073856422574145E-33
   0.9868884376736309E+00
  -0.1360233329605500E-32
   0.1003701686881827E+01
  -0.1381507321664146E-33
   0.1003655177007269E+01
  -0.1786510221722053E-33
   0.1009946322065678E+01
  -0.3074930071418439E-33
   0.9763448488515856E+00
  -0.1395937442933258E-32
   0.1021417904874334E+01
  -0.1294714549189895E-32
   0.1001421364354521E+01
   0.2474807508828593E-34
   0.1008563905007587E+01
  -0.3905557736436605E-33
   0.9957897092995761E+00
  -0.1335128224735290E-33
   0.1000897980443919E+01
  -0.1991934561419621E-33
   0.1003882400539817E+01
  -0.2771758027606272E-33
   0.1002301468636330E+01
  -0.7163740522307302E-34
   0.1001908620622651E+01
  -0.1157482282967658E-33
   0.1001998166419329E+01
  -0.1357326432610283E-33
   0.1005484919543255E+01
  -0.1905525644065535E-33
   0.1004616629319407E+01
  -0.1416548473993922E-33
   0.1003800454686499E+01
  -0.1103841118577549E-33
   0.1005530090315181E+01
  -0.1518639147566994E-33
   0.1007771017222936E+01
  -0.1804054580305917E-33
   0.1034860313431618E+01
  -0.6300442665607420E-33
   0.1007230443258685E+01
   0.6432796910471900E-33
   0.1503056660249098E+01
  -0.6360685121107341E-32
   0.9223370564941350E+00
  -0.2532300830956848E-32
   0.9841547888141062E+00
  -0.2052499809641942E-32
   0.9862649930857447E+00
  -0.3730278009834980E-32
   0.9800882310999257E+00
  -0.2214343310671113E-32
   0.8203358281599563E+00
  -0.5707639758843382E-32
   0.9831928669386764E+00
  -0.6672449734456358E-33
   0.1019036281143746E+01
  -0.1878440272230483E-33
   0.1005113357622612E+01
  -0.1462442203217595E-34
   0.1002089892149178E+01
  -0.7501644989320484E-34
   0.1003052566864472E+01
  -0.1161246769666393E-33
   0.9961464471734043E+00
  -0.1030238499729484E-32
   0.1098428207518305E+01
  -0.2262626454987752E-32
   0.1004953401727247E+01
  -0.1505855822569137E-33
   0.1003131938224321E+01
  -0.1738805076219879E-33
   0.1003037491350414E+01
  -0.1605573125081114E-33
   0.1004616087689078E+01
  -0.2363543798679589E-33
   0.9992092936026431E+00
  -0.6303210873747403E-33
   0.1004606389010379E+01
  -0.4708010514218623E-34
   0.9964286439497684E+00
  -0.1350201623358136E-33
   0.1002817217509054E+01
  -0.1614640192582356E-32
   0.1012493430664168E+01
  -0.2518141989400114E-33
   0.1007513211923554E+01
  -0.2027350046540022E-33
   0.1068120349785561E+01
  -0.1121431046973567E-32
   0.1004633780859563E+01
  -0.1700706521513659E-33
   0.1007244487659674E+01
  -0.1979576292900126E-33
   0.9975286120617213E+00
  -0.6144546406835080E-34
   0.9934920629392341E+00
   0.2696409293973832E-34
   0.1001877441424417E+01
  -0.4133598126075847E-33
   0.9846819584621032E+00
  -0.1360617971096390E-32
   0.1003697421563600E+01
  -0.1369348944673551E-33
   0.1003860012990263E+01
  -0.1794111438205492E-33
   0.1010028719749854E+01
  -0.3062943707947650E-33
   0.9755356260898973E+00
  -0.1400616515097517E-32
   0.1019510142862968E+01
  -0.1294660381889190E-32
   0.1002650984298866E+01
   0.1930526443262070E-34
   0.1008311490197308E+01
  -0.3943660779885125E-33
   0.9960549226670525E+00
  -0.1331964727810999E-33
   0.1000964586133583E+01
  -0.1982290192838095E-33
   0.1003391816318425E+01
  -0.2810783975940927E-33
SCALARS u double 1
LOOKUP_TABLE default
   0.5000840903881675E+00
  -0.5394172772776950E-35
   0.4992068684392056E+00
   0.1500283453326277E-33
   0.4996994936997542E+00
   0.1961354140364574E-33
   0.4941995233987803E+00
   0.2452944394424063E-33
   0.4931511059448211E+00
   0.2086396473118203E-33
   0.4958214922937271E+00
   0.1141167622839251E-33
   0.4949144759422545E+00
   0.1474884759897731E-33
   0.4919613555659386E+00
   0.1999818537965776E-33
   0.4684502172282099E+00
   0.4713425591289768E-33
   0.4836510044921887E+00
  -0.1413606081048635E-33
   0.0000000000000000E+00
   0.0000000000000000E+00
   0.0000000000000000E+00
   0.0000000000000000E+00
   0.0000000000000000E+00
   0.0000000000000000E+00
   0.0000000000000000E+00
   0.0000000000000000E+00
   0.0000000000000000E+00
   0.0000000000000000E+00
   0.0000000000000000E+00
   0.0000000000000000E+00
   0.4774087852294229E+00
   0.7126559859303663E-33
   0.5239570747071585E+00
  -0.8827539141257190E-34
   0.5120340039230904E+00
  -0.1811038400742110E-33
   0.4994262467007653E+00
  -0.3750358939941929E-34
   0.4978313270359879E+00
   0.8943257890907676E-34
   0.3976736314970617E+00
   0.1345096495508579E-32
   0.4468329548635799E+00
  -0.6644989673723368E-33
   0.4947257073327914E+00
   0.1716569889395126E-33
   0.4979475887741087E+00
   0.1675457104645001E-33
   0.4986051363489073E+00
   0.1997001366998166E-33
   0.4985890387610502E+00
   0.2054392875917470E-33
   0.5704142769782186E+00
   0.3472322829125831E-33
   0.5373405006498229E+00
  -0.6381732545072823E-34
   0.5496928715615005E+00
   0.9421702634600135E-34
   0.3071420488263100E+00
   0.4375611635576061E-33
   0.4888420317706749E+00
   0.2257097695662828E-33
   0.4922474977008458E+00