title="tecplot geometry and solution file"
variables = x y z rho u v w p mach temperature
zone t="boundary 1 bc-1", solutiontime= 0.1000000E+03, strandid=1001, i=42, j=30, f=feblock
  0.248446882523E-18  0.248446882523E-18  0.248446882523E-18  0.248446882523E-18  0.248446882523E-18  0.248446882523E-18  0.248446882523E-18
  0.248446882523E-18  0.248446882523E-18  0.248446882523E-18  0.248446882523E-18  0.248446882523E-18  0.248446882523E-18  0.248446882523E-18
  0.248446882523E-18  0.248446882523E-18  0.248446882523E-18  0.248446882523E-18  0.248446882523E-18  0.248446882523E-18  0.248446882523E-18
  0.248446882523E-18  0.248446882523E-18  0.248446882523E-18  0.248446882523E-18  0.248446882523E-18  0.248446882523E-18  0.248446882523E-18
  0.248446882523E-18  0.248446882523E-18  0.248446882523E-18  0.248446882523E-18  0.248446882523E-18  0.248446882523E-18  0.248446882523E-18
  0.248446882523E-18  0.248446882523E-18  0.248446882523E-18  0.248446882523E-18  0.248446882523E-18  0.248446882523E-18  0.248446882523E-18
  0.248446882523E-18 -0.833333333333E+00  0.248446882523E-18  0.248446882523E-18  0.248446882523E-18 -0.166666666667E+01 -0.833333333333E+00
 -0.833333333333E+00 -0.833333333333E+00  0.248446882523E-18 -0.250000000000E+01 -0.166666666667E+01 -0.166666666667E+01 -0.166666666667E+01
 -0.833333333333E+00  0.248446882523E-18 -0.333333333333E+01 -0.250000000000E+01 -0.250000000000E+01 -0.250000000000E+01 -0.166666666667E+01
 -0.833333333333E+00 -0.416666666667E+01 -0.333333333333E+01 -0.333333333333E+01 -0.333333333333E+01 -0.250000000000E+01 -0.166666666667E+01
 -0.500000000000E+01 -0.416666666667E+01 -0.416666666667E+01 -0.416666666667E+01 -0.333333333333E+01 -0.250000000000E+01 -0.500000000000E+01
 -0.500000000000E+01 -0.500000000000E+01 -0.416666666667E+01 -0.333333333333E+01 -0.500000000000E+01 -0.416666666667E+01 -0.500000000000E+01
  0.500000000000E+01  0.500000000000E+01  0.400000000000E+01  0.200000000000E+01  0.300000000000E+01  0.500000000000E+01  0.400000000000E+01
  0.200000000000E+01  0.300000000000E+01  0.100000000000E+01  0.500000000000E+01  0.400000000000E+01  0.200000000000E+01  0.300000000000E+01
  0.100000000000E+01  0.248446882523E-18  0.500000000000E+01  0.400000000000E+01  0.200000000000E+01  0.300000000000E+01  0.100000000000E+01
  0.248446882523E-18  0.500000000000E+01  0.400000000000E+01  0.200000000000E+01  0.300000000000E+01  0.100000000000E+01  0.248446882523E-18
  0.500000000000E+01  0.400000000000E+01  0.200000000000E+01  0.300000000000E+01  0.100000000000E+01  0.248446882523E-18  0.400000000000E+01
  0.200000000000E+01  0.300000000000E+01  0.100000000000E+01  0.248446882523E-18  0.100000000000E+01  0.248446882523E-18  0.248446882523E-18
  0.100380048691E+01  0.100377310035E+01  0.100553009794E+01  0.103486139824E+01  0.100777099177E+01  0.100379503145E+01  0.100543502219E+01
  0.103453820298E+01  0.100753026815E+01  0.100722828080E+01  0.100377495497E+01  0.100547681715E+01  0.103467597942E+01  0.100759319152E+01
  0.100404874052E+01  0.150307423078E+01  0.100379501655E+01  0.100543895405E+01  0.103456044560E+01  0.100752482760E+01  0.100401170697E+01
  0.150478963514E+01  0.100377307574E+01  0.100547680918E+01  0.103467553582E+01  0.100759319572E+01  0.100382818547E+01  0.150532560908E+01
  0.100380045469E+01  0.100543501239E+01  0.103453741109E+01  0.100753028333E+01  0.100401256597E+01  0.150520974110E+01  0.100553009032E+01
  0.103486031343E+01  0.100777101722E+01  0.100405034019E+01  0.150531923755E+01  0.100723044326E+01  0.150477742919E+01  0.150305666025E+01
  0.495821492294E+00  0.495858667415E+00  0.494914475942E+00  0.468450217228E+00  0.491961355566E+00  0.495834284456E+00  0.494980855514E+00
  0.468935189110E+00  0.492165019213E+00  0.483651004492E+00  0.495856320282E+00  0.494946129269E+00  0.468782726920E+00  0.492102035186E+00
  0.485202474975E+00  0.000000000000E+00  0.495834297862E+00  0.494984191070E+00  0.468925304175E+00  0.492168883845E+00  0.485012272697E+00
  0.000000000000E+00  0.495858690022E+00  0.494946132517E+00  0.468783017010E+00  0.492102052244E+00  0.485190944239E+00  0.000000000000E+00
  0.495821520544E+00  0.494980855597E+00  0.468935735265E+00  0.492165039207E+00  0.485011926412E+00  0.000000000000E+00  0.494914464788E+00
  0.468451018190E+00  0.491961370725E+00  0.485201793436E+00  0.000000000000E+00  0.483650064898E+00  0.000000000000E+00  0.000000000000E+00
  0.000000000000E+00  0.739717717333E-05  0.000000000000E+00  0.000000000000E+00  0.000000000000E+00  0.260172595007E-05 -0.185240664105E-04
  0.125826585439E-04 -0.343013813866E-04  0.000000000000E+00 -0.410782614499E-08 -0.434391606668E-05  0.645373904155E-04 -0.828333871687E-05
 -0.108375218868E-02  0.000000000000E+00 -0.260844897847E-05  0.119742940968E-07 -0.183677742135E-06  0.133158486453E-07 -0.138507541674E-03
  0.000000000000E+00 -0.740159982627E-05  0.436612046905E-05 -0.648667688912E-04  0.830707998952E-05  0.371048791301E-06  0.000000000000E+00
  0.000000000000E+00  0.185387682228E-04 -0.128318959516E-04  0.343180601405E-04  0.139192315171E-03  0.000000000000E+00  0.000000000000E+00
  0.000000000000E+00  0.000000000000E+00  0.108424893945E-02  0.000000000000E+00  0.000000000000E+00  0.000000000000E+00  0.000000000000E+00
  0.177073336506E-02  0.174957059615E-02 -0.839634415419E-03 -0.500854841851E-02  0.364053454205E-02  0.176262359064E-02 -0.827791183759E-03
 -0.522973699385E-02  0.368667026095E-02  0.352779126773E-01  0.175036855845E-02 -0.835868651266E-03 -0.525200360541E-02  0.368372004994E-02
  0.339363667562E-01  0.000000000000E+00  0.176262589059E-02 -0.831798444806E-03 -0.527757082129E-02  0.369098705736E-02  0.340598382068E-01
  0.000000000000E+00  0.174957632250E-02 -0.835856455047E-03 -0.525190985451E-02  0.368364442850E-02  0.340240122874E-01  0.000000000000E+00
  0.177074179253E-02 -0.827767142362E-03 -0.522957590388E-02  0.368653721646E-02  0.340595607533E-01  0.000000000000E+00 -0.839606906995E-03
 -0.500829665256E-02  0.364035328382E-02  0.339358257861E-01  0.000000000000E+00  0.352771867367E-01  0.000000000000E+00  0.000000000000E+00
  0.717939521153E+00  0.717912609320E+00  0.720350323861E+00  0.741929666217E+00  0.723056985420E+00  0.717933801633E+00  0.720256502919E+00
  0.741401529052E+00  0.722831383212E+00  0.744870588173E+00  0.717913919368E+00  0.720301109485E+00  0.741524432563E+00  0.722897995822E+00
  0.742485976239E+00  0.107359575348E+01  0.717933789661E+00  0.720262212876E+00  0.741414095875E+00  0.722828083099E+00  0.742504514148E+00
  0.107482251293E+01  0.717912590478E+00  0.720301090197E+00  0.741524153377E+00  0.722897978307E+00  0.742293565525E+00  0.107520668392E+01
  0.717939497540E+00  0.720256471085E+00  0.741401049007E+00  0.722831355759E+00  0.742504869749E+00  0.107512507002E+01  0.720350284188E+00
  0.741929027511E+00  0.723056948612E+00  0.742486621887E+00  0.107520399966E+01  0.744871391762E+00  0.107481731153E+01  0.107358842621E+01
  0.495500241296E+00  0.495539844651E+00  0.494188259299E+00  0.467610197527E+00  0.490877951976E+00  0.495513623406E+00  0.494263342903E+00
  0.468190222352E+00  0.491099465009E+00  0.476588829952E+00  0.495537507477E+00  0.494223648749E+00  0.468030647402E+00  0.491029305930E+00
  0.478027661318E+00  0.000000000000E+00  0.495513637265E+00  0.494265687231E+00  0.468181954256E+00  0.491103147272E+00  0.477833724974E+00
  0.000000000000E+00  0.495539867692E+00  0.494223656630E+00  0.468030923764E+00  0.491029329358E+00  0.478030625822E+00  0.000000000000E+00
  0.495500269753E+00  0.494263351460E+00  0.468190738170E+00  0.491099496991E+00  0.477833456566E+00  0.000000000000E+00  0.494188259849E+00
  0.467610950462E+00  0.490877984457E+00  0.478027130082E+00  0.000000000000E+00  0.476588111601E+00  0.000000000000E+00  0.000000000000E+00
  0.100130986458E+01  0.100129964899E+01  0.100294407445E+01  0.100371077177E+01  0.100447402025E+01  0.100130732948E+01  0.100290827536E+01
  0.100330962905E+01  0.100440053117E+01  0.103533513040E+01  0.100129962611E+01  0.100292869620E+01  0.100334232768E+01  0.100443036204E+01
  0.103528875122E+01  0.999973270848E+00  0.100130732764E+01  0.100291230409E+01  0.100330506413E+01  0.100440136919E+01  0.103535278782E+01
  0.999974669526E+00  0.100129964726E+01  0.100292867729E+01  0.100334238009E+01  0.100443033352E+01  0.103524787088E+01  0.999975917769E+00
  0.100130986379E+01  0.100290824080E+01  0.100330974741E+01  0.100440047789E+01  0.103535239785E+01  0.999976984551E+00  0.100294402681E+01
  0.100371095986E+01  0.100447394374E+01  0.103528800204E+01  0.999977653888E+00  0.103533402455E+01  0.999977941555E+00  0.999978135523E+00
         2         7         3         1
         7         9         5         3
         9         8         4         5
         8        15        10         4
        15        22        16        10
         6        12         7         2
        12        14         9         7
        14        13         8         9
        13        21        15         8
        21        28        22        15
        11        18        12         6
        18        20        14        12
        20        19        13        14
        19        27        21        13
        27        34        28        21
        17        24        18        11
        24        26        20        18
        26        25        19        20
        25        33        27        19
        33        39        34        27
        23        30        24        17
        30        32        26        24
        32        31        25        26
        31        38        33        25
        38        41        39        33
        29        35        30        23
        35        37        32        30
        37        36        31        32
        36        40        38        31
        40        42        41        38
zone t="boundary 2 bc-2", solutiontime= 0.1000000E+03, strandid=1002, i=50, j=78, f=feblock
  0.500000000000E+01  0.400000000000E+01  0.500000000000E+01  0.432205072469E+01  0.300000000000E+01  0.339985167428E+01  0.500000000000E+01
  0.414352482062E+01  0.200000000000E+01  0.238772260472E+01  0.328766614337E+01  0.253053942594E+01  0.500000000000E+01  0.437470683547E+01
  0.355186041251E+01  0.100000000000E+01  0.148474164412E+01  0.182006405350E+01  0.265208498144E+01  0.158439218620E+01  0.500000000000E+01
  0.421824364393E+01  0.356601661300E+01  0.279151482472E+01  0.248446882523E-18  0.691584087487E+00  0.102677755985E+01  0.203910647352E+01
  0.786163368796E+00  0.130062434092E+01  0.579883387792E+00  0.500000000000E+01  0.439593351493E+01  0.365358382485E+01  0.222719085292E+01
  0.294979435250E+01  0.181898636514E+01  0.248446882523E-18  0.248446882523E-18  0.608717331133E+00  0.956798945949E+00  0.248446882523E-18
  0.400000000000E+01  0.200000000000E+01  0.160059523280E+01  0.300000000000E+01  0.248446882523E-18  0.482256655205E+00  0.100000000000E+01
  0.248446882523E-18
 -0.500000000000E+01 -0.500000000000E+01 -0.500000000000E+01 -0.500000000000E+01 -0.500000000000E+01 -0.500000000000E+01 -0.500000000000E+01
 -0.500000000000E+01 -0.500000000000E+01 -0.500000000000E+01 -0.500000000000E+01 -0.500000000000E+01 -0.500000000000E+01 -0.500000000000E+01
 -0.500000000000E+01 -0.500000000000E+01 -0.500000000000E+01 -0.500000000000E+01 -0.500000000000E+01 -0.500000000000E+01 -0.500000000000E+01
 -0.500000000000E+01 -0.500000000000E+01 -0.500000000000E+01 -0.500000000000E+01 -0.500000000000E+01 -0.500000000000E+01 -0.500000000000E+01
 -0.500000000000E+01 -0.500000000000E+01 -0.500000000000E+01 -0.500000000000E+01 -0.500000000000E+01 -0.500000000000E+01 -0.500000000000E+01
 -0.500000000000E+01 -0.500000000000E+01 -0.500000000000E+01 -0.500000000000E+01 -0.500000000000E+01 -0.500000000000E+01 -0.500000000000E+01
 -0.500000000000E+01 -0.500000000000E+01 -0.500000000000E+01 -0.500000000000E+01 -0.500000000000E+01 -0.500000000000E+01 -0.500000000000E+01
 -0.500000000000E+01
  0.500000000000E+01  0.500000000000E+01  0.400000000000E+01  0.427284776458E+01  0.500000000000E+01  0.409791606955E+01  0.300000000000E+01
  0.334954216394E+01  0.500000000000E+01  0.428961258157E+01  0.317389756208E+01  0.342579600005E+01  0.200000000000E+01  0.245604909385E+01
  0.233993022181E+01  0.500000000000E+01  0.436396516571E+01  0.369973104758E+01  0.256908373316E+01  0.279597472668E+01  0.100000000000E+01
  0.157729503259E+01  0.159701071514E+01  0.152167522831E+01  0.500000000000E+01  0.441213888848E+01  0.370665089386E+01  0.199896920986E+01
  0.224835513052E+01  0.181406525358E+01  0.296809553468E+01  0.248446882523E-18  0.696815730569E+00  0.990157383601E+00  0.787866207738E+00
  0.548147595005E+00  0.128672970530E+01  0.400000000000E+01  0.200000000000E+01  0.160443740745E+01  0.959766653149E+00  0.300000000000E+01
  0.248446882523E-18  0.248446882523E-18  0.606872513237E+00  0.248446882523E-18  0.100000000000E+01  0.486991412371E+00  0.248446882523E-18
  0.248446882523E-18
  0.100230146864E+01  0.100190862062E+01  0.100208989215E+01  0.100305256686E+01  0.100199816642E+01  0.100313193822E+01  0.100511335762E+01
  0.100369742156E+01  0.100548491954E+01  0.100303749135E+01  0.100096458613E+01  0.100461608769E+01  0.101903628114E+01  0.100460638901E+01
  0.996428643950E+00  0.100461662932E+01  0.100463378086E+01  0.100386001299E+01  0.996054922667E+00  0.101002871975E+01  0.983192866939E+00
  0.999209293603E+00  0.100339181632E+01  0.100831149020E+01  0.100380045469E+01  0.100495340173E+01  0.100724448766E+01  0.997528612062E+00
  0.101249343066E+01  0.993492062939E+00  0.100751321192E+01  0.820335828160E+00  0.996146447173E+00  0.984681958462E+00  0.101951014286E+01
  0.100281721751E+01  0.100187744142E+01  0.100553009032E+01  0.103486031343E+01  0.100265098430E+01  0.106812034979E+01  0.100777101722E+01
  0.980088231100E+00  0.984154788814E+00  0.975535626090E+00  0.986264993086E+00  0.100723044326E+01  0.109842820752E+01  0.922337056494E+00
  0.150305666025E+01
  0.500084083361E+00  0.499206876728E+00  0.499426309946E+00  0.497831376344E+00  0.499699478114E+00  0.497947634880E+00  0.512033796798E+00
  0.500203146683E+00  0.494199594707E+00  0.498605118609E+00  0.501678854908E+00  0.498589148598E+00  0.523956871566E+00  0.537340199220E+00
  0.549692726336E+00  0.493151178510E+00  0.495426089659E+00  0.497560330725E+00  0.522246894874E+00  0.493535214279E+00  0.477411117674E+00
  0.570414502425E+00  0.584151691519E+00  0.571389070901E+00  0.495821520544E+00  0.494725719133E+00  0.493736357895E+00  0.547549333200E+00
  0.488842203413E+00  0.537946950302E+00  0.492247513358E+00  0.000000000000E+00  0.397676278399E+00  0.465933576625E+00  0.413352283700E+00
  0.307142472336E+00  0.585771836511E+00  0.494914464788E+00  0.468451018190E+00  0.493110407495E+00  0.532070478665E+00  0.491961370725E+00
  0.000000000000E+00  0.000000000000E+00  0.377547216284E+00  0.000000000000E+00  0.483650064898E+00  0.446830684007E+00  0.000000000000E+00
  0.000000000000E+00
  0.000000000000E+00  0.000000000000E+00  0.000000000000E+00  0.000000000000E+00  0.000000000000E+00  0.000000000000E+00  0.000000000000E+00
  0.000000000000E+00  0.000000000000E+00  0.000000000000E+00  0.000000000000E+00  0.000000000000E+00  0.000000000000E+00  0.000000000000E+00
  0.000000000000E+00  0.000000000000E+00  0.000000000000E+00  0.000000000000E+00  0.000000000000E+00  0.000000000000E+00  0.000000000000E+00
  0.000000000000E+00  0.000000000000E+00  0.000000000000E+00  0.000000000000E+00  0.000000000000E+00  0.000000000000E+00  0.000000000000E+00
  0.000000000000E+00  0.000000000000E+00  0.000000000000E+00  0.000000000000E+00  0.000000000000E+00  0.000000000000E+00  0.000000000000E+00
  0.000000000000E+00  0.000000000000E+00  0.000000000000E+00  0.000000000000E+00  0.000000000000E+00  0.000000000000E+00  0.000000000000E+00
  0.000000000000E+00  0.000000000000E+00  0.000000000000E+00  0.000000000000E+00  0.000000000000E+00  0.000000000000E+00  0.000000000000E+00
  0.000000000000E+00
  0.327259466285E-02  0.433619941304E-02  0.733933139263E-02  0.467015470831E-02  0.461404387575E-02  0.429406774022E-02  0.121403477939E-01
  0.421529038078E-02  0.342579228714E-02  0.532209224903E-02  0.321683893995E-02  0.656572723560E-02 -0.228578887492E-01  0.631148032225E-02
  0.934431120648E-02  0.482178193572E-02  0.603970822740E-02  0.734762295006E-02  0.127843562244E-01  0.106224177152E-01 -0.872550187679E-01
 -0.932387475665E-02  0.728143806717E-02  0.219511215444E-01  0.177074179253E-02  0.391570546841E-02  0.536534870169E-02  0.250638363174E-01
  0.861862132874E-02  0.445544947544E-01  0.601886873157E-02  0.000000000000E+00 -0.437674511520E-01  0.127001090376E-01  0.560297763676E-02
  0.453815376487E-02  0.380589337987E-01 -0.839606906995E-03 -0.500829665256E-02  0.258306160716E-01  0.733095355635E-01  0.364035328382E-02
  0.000000000000E+00  0.000000000000E+00 -0.110075779297E-01  0.000000000000E+00  0.352771867367E-01  0.179029004059E+00  0.000000000000E+00
  0.000000000000E+00
  0.716680633557E+00  0.716862992882E+00  0.716428761772E+00  0.717008438569E+00  0.716860056494E+00  0.716848646440E+00  0.720760629246E+00
  0.718675446780E+00  0.719249475343E+00  0.718220403324E+00  0.715864976597E+00  0.716775464973E+00  0.730505095630E+00  0.720081751994E+00
  0.711998310904E+00  0.719028489613E+00  0.719201626418E+00  0.718604962243E+00  0.714413817658E+00  0.721666306152E+00  0.687386237928E+00
  0.705381940440E+00  0.708078616393E+00  0.712752912409E+00  0.717939497540E+00  0.719439423543E+00  0.721994907413E+00  0.718924207338E+00
  0.723522064229E+00  0.717707577320E+00  0.720783655111E+00  0.585942257943E+00  0.694223550592E+00  0.690309199396E+00  0.715892049752E+00
  0.707673711036E+00  0.698078182542E+00  0.720350284188E+00  0.741929027511E+00  0.738951477251E+00  0.749091001834E+00  0.723056948612E+00
  0.700048815102E+00  0.702953044928E+00  0.681416704632E+00  0.704460591805E+00  0.744871391762E+00  0.724806515555E+00  0.658798135930E+00
  0.107358842621E+01
  0.499832696765E+00  0.498802820602E+00  0.499253506335E+00  0.497664966448E+00  0.499320806788E+00  0.497852964951E+00  0.511173866644E+00
  0.499611955882E+00  0.493851986570E+00  0.498020439939E+00  0.501377112955E+00  0.498913155636E+00  0.523513155637E+00  0.536441459828E+00
  0.549670377438E+00  0.492678882557E+00  0.494909378122E+00  0.497073431160E+00  0.521325123441E+00  0.493575215308E+00  0.490549095321E+00
  0.573852946158E+00  0.587746288455E+00  0.574799014906E+00  0.495500269753E+00  0.494185410215E+00  0.492898066712E+00  0.545676032330E+00
  0.488812586491E+00  0.536745414695E+00  0.491897806414E+00  0.000000000000E+00  0.405034523443E+00  0.470486777480E+00  0.416934874882E+00
  0.309042080155E+00  0.594339331492E+00  0.494188259849E+00  0.467610950462E+00  0.486118461062E+00  0.542040309593E+00  0.490877984457E+00
  0.000000000000E+00  0.000000000000E+00  0.381950374293E+00  0.000000000000E+00  0.476588111601E+00  0.500820698301E+00  0.000000000000E+00
  0.000000000000E+00
  0.100104900409E+01  0.100169633176E+01  0.100090847572E+01  0.100075693653E+01  0.100160271019E+01  0.100045474257E+01  0.100393142056E+01
  0.100243918523E+01  0.100145635793E+01  0.100246359017E+01  0.100124518002E+01  0.998874757491E+00  0.100360227875E+01  0.100349197837E+01
  0.100037031384E+01  0.100201395844E+01  0.100223812514E+01  0.100217852502E+01  0.100414075766E+01  0.100030108932E+01  0.978791410577E+00
  0.988316184545E+00  0.987959087196E+00  0.989628787407E+00  0.100130986379E+01  0.100225064289E+01  0.100352286139E+01  0.100898748979E+01
  0.100043206133E+01  0.101137255720E+01  0.100157209376E+01  0.999979682663E+00  0.975672777418E+00  0.981467031917E+00  0.983069052004E+00
  0.987959897529E+00  0.975478052654E+00  0.100294402681E+01  0.100371095986E+01  0.103179679106E+01  0.981843855684E+00  0.100447394374E+01
  0.999979705952E+00  0.999979143611E+00  0.977907275727E+00  0.999979554624E+00  0.103533402455E+01  0.923801041189E+00  0.999978677868E+00
  0.999978135523E+00
        44        35        36        36
        24        34        36        36
        38        27        31        31
        20        29        31        31
        24        23        34        34
        15        22        23        23
        24        35        37        37
        41        30        37        37
        27        18        20        20
        17        18        27        27
        15        19        11        11
        12         6        11        11
         8         7        14        14
        13        14         7         7
        41        40        30        30
        47        39        40        40
        17         9        10        10
         5        10         9         9
        44        45        35        35
        49        41        45        45
        19        15        24        24
        36        35        24        24
        37        45        41        41
        40        39        29        29
        30        29        20        20
        12        18        10        10
        20        12        19        19
        11         8        15        15
        20        18        12        12
        27        20        31        31
        28        20        19        19
        23        24        15        15
        23        22        34        34
        28        24        37        37
        11        19        12        12
        11         6         8         8
        28        19        24        24
        40        41        47        47
        30        40        29        29
        45        44        49        49
        37        35        45        45
        16        26        25        25
        27        38        26        26
        47        48        50        50
        43        33        32        32
        22        21        33        33
         3         4         1         1
         6         2         4         4
        10         5         6         6
        14        13        22        22
         4         3         8         8
         7         8         3         3
        42        38        31        31
         9        17        16        16
        33        43        34        34
        36        34        43        43
        41        48        47        47
        15         8        14        14
        28        30        20        20
        18        17        10        10
        42        31        39        39
        26        16        17        17
         8         6         4         4
        34        22        33        33
        37        30        28        28
        27        26        17        17
        49        48        41        41
        46        36        43        43
        31        29        39        39
        36        46        44        44
        22        13        21        21
        15        14        22        22
         6         5         2         2
        12        10         6         6
        26        38        25        25
        48        49        50        50
        33        21        32        32
         4         2         1         1
zone t="boundary 3 bc-3", solutiontime= 0.1000000E+03, strandid=1003, i=50, j=78, f=feblock
  0.500000000000E+01  0.400000000000E+01  0.500000000000E+01  0.432205072469E+01  0.300000000000E+01  0.339985167428E+01  0.500000000000E+01
  0.414352482062E+01  0.200000000000E+01  0.238772260472E+01  0.328766614337E+01  0.253053942594E+01  0.500000000000E+01  0.437470683547E+01
  0.355186041251E+01  0.100000000000E+01  0.148474164412E+01  0.182006405350E+01  0.265208498144E+01  0.158439218620E+01  0.500000000000E+01
  0.421824364393E+01  0.356601661300E+01  0.279151482472E+01  0.248446882523E-18  0.691584087487E+00  0.102677755985E+01  0.203910647352E+01
  0.786163368796E+00  0.130062434092E+01  0.579883387792E+00  0.500000000000E+01  0.439593351493E+01  0.365358382485E+01  0.222719085292E+01
  0.294979435250E+01  0.181898636514E+01  0.248446882523E-18  0.248446882523E-18  0.608717331133E+00  0.956798945949E+00  0.248446882523E-18
  0.400000000000E+01  0.200000000000E+01  0.160059523280E+01  0.300000000000E+01  0.248446882523E-18  0.482256655205E+00  0.100000000000E+01
  0.248446882523E-18
  0.248446882523E-18  0.248446882523E-18  0.248446882523E-18  0.248446882523E-18  0.248446882523E-18  0.248446882523E-18  0.248446882523E-18
  0.248446882523E-18  0.248446882523E-18  0.248446882523E-18  0.248446882523E-18  0.248446882523E-18  0.248446882523E-18  0.248446882523E-18
  0.248446882523E-18  0.248446882523E-18  0.248446882523E-18  0.248446882523E-18  0.248446882523E-18  0.248446882523E-18  0.248446882523E-18
  0.248446882523E-18  0.248446882523E-18  0.248446882523E-18  0.248446882523E-18  0.248446882523E-18  0.248446882523E-18  0.248446882523E-18
  0.248446882523E-18  0.248446882523E-18  0.248446882523E-18  0.248446882523E-18  0.248446882523E-18  0.248446882523E-18  0.248446882523E-18
  0.248446882523E-18  0.248446882523E-18  0.248446882523E-18  0.248446882523E-18  0.248446882523E-18  0.248446882523E-18  0.248446882523E-18
  0.248446882523E-18  0.248446882523E-18  0.248446882523E-18  0.248446882523E-18  0.248446882523E-18  0.248446882523E-18  0.248446882523E-18
  0.248446882523E-18
  0.500000000000E+01  0.500000000000E+01  0.400000000000E+01  0.427284776458E+01  0.500000000000E+01  0.409791606955E+01  0.300000000000E+01
  0.334954216394E+01  0.500000000000E+01  0.428961258157E+01  0.317389756208E+01  0.342579600005E+01  0.200000000000E+01  0.245604909385E+01
  0.233993022181E+01  0.500000000000E+01  0.436396516571E+01  0.369973104758E+01  0.256908373316E+01  0.279597472668E+01  0.100000000000E+01
  0.157729503259E+01  0.159701071514E+01  0.152167522831E+01  0.500000000000E+01  0.441213888848E+01  0.370665089386E+01  0.199896920986E+01
  0.224835513052E+01  0.181406525358E+01  0.296809553468E+01  0.248446882523E-18  0.696815730569E+00  0.990157383601E+00  0.787866207738E+00
  0.548147595005E+00  0.128672970530E+01  0.400000000000E+01  0.200000000000E+01  0.160443740745E+01  0.959766653149E+00  0.300000000000E+01
  0.248446882523E-18  0.248446882523E-18  0.606872513237E+00  0.248446882523E-18  0.100000000000E+01  0.486991412371E+00  0.248446882523E-18
  0.248446882523E-18
  0.100230147805E+01  0.100190860069E+01  0.100208993973E+01  0.100305260203E+01  0.100199813342E+01  0.100313199658E+01  0.100511328046E+01
  0.100369745861E+01  0.100548499435E+01  0.100303747602E+01  0.100096464105E+01  0.100461624853E+01  0.101903644934E+01  0.100460628154E+01
  0.996428570615E+00  0.100461665061E+01  0.100463380292E+01  0.100386001753E+01  0.996054771696E+00  0.101002899618E+01  0.983194821454E+00
  0.999210140113E+00  0.100339229003E+01  0.100831202540E+01  0.100380048691E+01  0.100495342190E+01  0.100724454086E+01  0.997528228484E+00
  0.101249356339E+01  0.993491473178E+00  0.100751325871E+01  0.820343752619E+00  0.996149183163E+00  0.984684015687E+00  0.101951244415E+01
  0.100282044212E+01  0.100187820870E+01  0.100553009794E+01  0.103486139824E+01  0.100265020103E+01  0.106812295490E+01  0.100777099177E+01
  0.980094400853E+00  0.984160631290E+00  0.975537556489E+00  0.986271914052E+00  0.100722828080E+01  0.109843417225E+01  0.922339839316E+00
  0.150307423078E+01
  0.500084090388E+00  0.499206868439E+00  0.499426246701E+00  0.497831327036E+00  0.499699493700E+00  0.497947588774E+00  0.512034003923E+00
  0.500203056248E+00  0.494199523399E+00  0.498605136349E+00  0.501678702986E+00  0.498589038761E+00  0.523957074707E+00  0.537340500650E+00
  0.549692871562E+00  0.493151105945E+00  0.495426068314E+00  0.497560317851E+00  0.522246882467E+00  0.493534954610E+00  0.477408785229E+00
  0.570414276978E+00  0.584151831140E+00  0.571389535389E+00  0.495821492294E+00  0.494725707333E+00  0.493736330674E+00  0.547549551024E+00
  0.488842031771E+00  0.537947071524E+00  0.492247497701E+00  0.000000000000E+00  0.397673631497E+00  0.465932939378E+00  0.413352525982E+00
  0.307142048826E+00  0.585773135412E+00  0.494914475942E+00  0.468450217228E+00  0.493109590895E+00  0.532071571676E+00  0.491961355566E+00
  0.000000000000E+00  0.000000000000E+00  0.377547761022E+00  0.000000000000E+00  0.483651004492E+00  0.446832954864E+00  0.000000000000E+00
  0.000000000000E+00
  0.000000000000E+00  0.000000000000E+00  0.000000000000E+00  0.000000000000E+00  0.000000000000E+00  0.000000000000E+00  0.000000000000E+00
  0.000000000000E+00  0.000000000000E+00  0.000000000000E+00  0.000000000000E+00  0.000000000000E+00  0.000000000000E+00  0.000000000000E+00
  0.000000000000E+00  0.000000000000E+00  0.000000000000E+00  0.000000000000E+00  0.000000000000E+00  0.000000000000E+00  0.000000000000E+00
  0.000000000000E+00  0.000000000000E+00  0.000000000000E+00  0.000000000000E+00  0.000000000000E+00  0.000000000000E+00  0.000000000000E+00
  0.000000000000E+00  0.000000000000E+00  0.000000000000E+00  0.000000000000E+00  0.000000000000E+00  0.000000000000E+00  0.000000000000E+00
  0.000000000000E+00  0.000000000000E+00  0.000000000000E+00  0.000000000000E+00  0.000000000000E+00  0.000000000000E+00  0.000000000000E+00
  0.000000000000E+00  0.000000000000E+00  0.000000000000E+00  0.000000000000E+00  0.000000000000E+00  0.000000000000E+00  0.000000000000E+00
  0.000000000000E+00
  0.327266308295E-02  0.433631571529E-02  0.733953456640E-02  0.467030580934E-02  0.461410968362E-02  0.429422953788E-02  0.121409626983E-01
  0.421555657343E-02  0.342576249913E-02  0.532213305991E-02  0.321709880261E-02  0.656584286159E-02 -0.228566970880E-01  0.631227491857E-02
  0.934493710091E-02  0.482182303068E-02  0.603975861561E-02  0.734772055827E-02  0.127846608032E-01  0.106225156658E-01 -0.872531750548E-01
 -0.932296887254E-02  0.728207641905E-02  0.219518237562E-01  0.177073336506E-02  0.391572675154E-02  0.536538768776E-02  0.250643560392E-01