# vtk DataFile Version 2.0
FUN3D:global_image_vtk
ASCII
DATASET UNSTRUCTURED_GRID
POINTS 350 double
    0.5000000000000000E+01    0.0000000000000000E+00    0.4256679175372536E-18
    0.0000000000000000E+00    0.5000000000000000E+01    0.0000000000000000E+00
    0.4000000000000000E+01    0.0000000000000000E+00    0.4256679175372536E-18
    0.0000000000000000E+00    0.5000000000000000E+01    0.0000000000000000E+00
    0.3000000000000000E+01    0.0000000000000000E+00    0.4256679175372536E-18
    0.0000000000000000E+00    0.5000000000000000E+01    0.0000000000000000E+00
    0.2000000000000000E+01    0.0000000000000000E+00    0.4256679175372536E-18
    0.0000000000000000E+00    0.5000000000000000E+01    0.0000000000000000E+00
    0.9999999999999998E+00    0.0000000000000000E+00    0.4256679175372536E-18
    0.0000000000000000E+00    0.5000000000000000E+01    0.0000000000000000E+00
    0.4256679175372536E-18    0.0000000000000000E+00    0.4256679175372536E-18
    0.0000000000000000E+00    0.5000000000000000E+01    0.0000000000000000E+00
    0.4256679175372536E-18    0.0000000000000000E+00    0.4256679175372536E-18
    0.0000000000000000E+00    0.4000000000000000E+01    0.0000000000000000E+00
    0.4256679175372536E-18    0.0000000000000000E+00    0.4256679175372536E-18
    0.0000000000000000E+00    0.3000000000000000E+01    0.0000000000000000E+00
    0.4256679175372536E-18    0.0000000000000000E+00    0.4256679175372536E-18
    0.0000000000000000E+00    0.2000000000000000E+01    0.0000000000000000E+00
    0.4256679175372536E-18    0.0000000000000000E+00    0.4256679175372536E-18
    0.0000000000000000E+00    0.9999999999999998E+00    0.0000000000000000E+00
    0.4256679175372536E-18    0.0000000000000000E+00    0.4256679175372536E-18
    0.0000000000000000E+00    0.4256679175372536E-18    0.0000000000000000E+00
    0.9999999999999999E+00    0.0000000000000000E+00    0.4256679175372536E-18
    0.0000000000000000E+00    0.4256679175372536E-18    0.0000000000000000E+00
    0.2000000000000000E+01    0.0000000000000000E+00    0.4256679175372536E-18
    0.0000000000000000E+00    0.4256679175372536E-18    0.0000000000000000E+00
    0.3000000000000000E+01    0.0000000000000000E+00    0.4256679175372536E-18
    0.0000000000000000E+00    0.4256679175372536E-18    0.0000000000000000E+00
    0.4000000000000000E+01    0.0000000000000000E+00    0.4256679175372536E-18
    0.0000000000000000E+00    0.4256679175372536E-18    0.0000000000000000E+00
    0.5000000000000000E+01    0.0000000000000000E+00    0.4256679175372536E-18
    0.0000000000000000E+00    0.4256679175372536E-18    0.0000000000000000E+00
    0.5000000000000000E+01    0.0000000000000000E+00    0.4256679175372536E-18
    0.0000000000000000E+00    0.1000000000000000E+01    0.0000000000000000E+00
    0.5000000000000000E+01    0.0000000000000000E+00    0.4256679175372536E-18
    0.0000000000000000E+00    0.2000000000000000E+01    0.0000000000000000E+00
    0.5000000000000000E+01    0.0000000000000000E+00    0.4256679175372536E-18
    0.0000000000000000E+00    0.3000000000000000E+01    0.0000000000000000E+00
    0.5000000000000000E+01    0.0000000000000000E+00    0.4256679175372536E-18
    0.0000000000000000E+00    0.4000000000000000E+01    0.0000000000000000E+00
    0.4322050724693945E+01    0.0000000000000000E+00    0.4256679175372536E-18
    0.0000000000000000E+00    0.4272847764579289E+01    0.0000000000000000E+00
    0.4395933514933383E+01    0.0000000000000000E+00    0.4256679175372536E-18
    0.0000000000000000E+00    0.6968157305690375E+00    0.0000000000000000E+00
    0.4822566552045414E+00    0.0000000000000000E+00    0.4256679175372536E-18
    0.0000000000000000E+00    0.4869914123714657E+00    0.0000000000000000E+00
    0.6915840874870021E+00    0.0000000000000000E+00    0.4256679175372536E-18
    0.0000000000000000E+00    0.4412138888481547E+01    0.0000000000000000E+00
    0.3399851674277183E+01    0.0000000000000000E+00    0.4256679175372536E-18
    0.0000000000000000E+00    0.4097916069546335E+01    0.0000000000000000E+00
    0.2387722604716090E+01    0.0000000000000000E+00    0.4256679175372536E-18
    0.0000000000000000E+00    0.4289612581570788E+01    0.0000000000000000E+00
    0.2530539425941974E+01    0.0000000000000000E+00    0.4256679175372536E-18
    0.0000000000000000E+00    0.3425796000045182E+01    0.0000000000000000E+00
    0.4218243643927281E+01    0.0000000000000000E+00    0.4256679175372536E-18
    0.0000000000000000E+00    0.1577295032585114E+01    0.0000000000000000E+00
    0.4374706835472756E+01    0.0000000000000000E+00    0.4256679175372536E-18
    0.0000000000000000E+00    0.2456049093849535E+01    0.0000000000000000E+00
    0.3551860412513510E+01    0.0000000000000000E+00    0.4256679175372536E-18
    0.0000000000000000E+00    0.2339930221808592E+01    0.0000000000000000E+00
    0.2949794352503393E+01    0.0000000000000000E+00    0.4256679175372536E-18
    0.0000000000000000E+00    0.5481475950050476E+00    0.0000000000000000E+00
    0.7861633687955188E+00    0.0000000000000000E+00    0.4256679175372536E-18
    0.0000000000000000E+00    0.2248355130517770E+01    0.0000000000000000E+00
    0.5798833877919640E+00    0.0000000000000000E+00    0.4256679175372536E-18
    0.0000000000000000E+00    0.2968095534677868E+01    0.0000000000000000E+00
    0.9567989459488916E+00    0.0000000000000000E+00    0.4256679175372536E-18
    0.0000000000000000E+00    0.9597666531489262E+00    0.0000000000000000E+00
    0.1484741644122566E+01    0.0000000000000000E+00    0.4256679175372536E-18
    0.0000000000000000E+00    0.4363965165706898E+01    0.0000000000000000E+00
    0.1026777559850325E+01    0.0000000000000000E+00    0.4256679175372536E-18
    0.0000000000000000E+00    0.3706650893855072E+01    0.0000000000000000E+00
    0.2039106473515760E+01    0.0000000000000000E+00    0.4256679175372536E-18
    0.0000000000000000E+00    0.1998969209862488E+01    0.0000000000000000E+00
    0.1300624340922514E+01    0.0000000000000000E+00    0.4256679175372536E-18
    0.0000000000000000E+00    0.1814065253577793E+01    0.0000000000000000E+00
    0.1818986365136347E+01    0.0000000000000000E+00    0.4256679175372536E-18
    0.0000000000000000E+00    0.1286729705298721E+01    0.0000000000000000E+00
    0.3653583824847581E+01    0.0000000000000000E+00    0.4256679175372536E-18
    0.0000000000000000E+00    0.9901573836014240E+00    0.0000000000000000E+00
    0.4143524820619449E+01    0.0000000000000000E+00    0.4256679175372536E-18
    0.0000000000000000E+00    0.3349542163936307E+01    0.0000000000000000E+00
    0.1820064053502506E+01    0.0000000000000000E+00    0.4256679175372536E-18
    0.0000000000000000E+00    0.3699731047579209E+01    0.0000000000000000E+00
    0.1584392186197914E+01    0.0000000000000000E+00    0.4256679175372536E-18
    0.0000000000000000E+00    0.2795974726684905E+01    0.0000000000000000E+00
    0.1600595232801024E+01    0.0000000000000000E+00    0.4256679175372536E-18
    0.0000000000000000E+00    0.6068725132371939E+00    0.0000000000000000E+00
    0.2227190852919879E+01    0.0000000000000000E+00    0.4256679175372536E-18
    0.0000000000000000E+00    0.7878662077383224E+00    0.0000000000000000E+00
    0.6087173311333847E+00    0.0000000000000000E+00    0.4256679175372536E-18
    0.0000000000000000E+00    0.1604437407448898E+01    0.0000000000000000E+00
    0.2791514824717063E+01    0.0000000000000000E+00    0.4256679175372536E-18
    0.0000000000000000E+00    0.1521675228311488E+01    0.0000000000000000E+00
    0.2652084981436515E+01    0.0000000000000000E+00    0.4256679175372536E-18
    0.0000000000000000E+00    0.2569083733163254E+01    0.0000000000000000E+00
    0.3287666143370331E+01    0.0000000000000000E+00    0.4256679175372536E-18
    0.0000000000000000E+00    0.3173897562080839E+01    0.0000000000000000E+00
    0.3566016613004364E+01    0.0000000000000000E+00    0.4256679175372536E-18
    0.0000000000000000E+00    0.1597010715137857E+01    0.0000000000000000E+00
    0.5000000000000000E+01    0.0000000000000000E+00   -0.8333333333333334E+00
    0.0000000000000000E+00    0.5000000000000000E+01    0.0000000000000000E+00
    0.4000000000000000E+01    0.0000000000000000E+00   -0.8333333333333334E+00
    0.0000000000000000E+00    0.5000000000000000E+01    0.0000000000000000E+00
    0.3000000000000000E+01    0.0000000000000000E+00   -0.8333333333333334E+00
    0.0000000000000000E+00    0.5000000000000000E+01    0.0000000000000000E+00
    0.2000000000000000E+01    0.0000000000000000E+00   -0.8333333333333334E+00
    0.0000000000000000E+00    0.5000000000000000E+01    0.0000000000000000E+00
    0.9999999999999998E+00    0.0000000000000000E+00   -0.8333333333333334E+00
    0.0000000000000000E+00    0.5000000000000000E+01    0.0000000000000000E+00
    0.4256679175372536E-18    0.0000000000000000E+00   -0.8333333333333334E+00
    0.0000000000000000E+00    0.5000000000000000E+01    0.0000000000000000E+00
    0.4256679175372536E-18    0.0000000000000000E+00   -0.8333333333333334E+00
    0.0000000000000000E+00    0.4000000000000000E+01    0.0000000000000000E+00
    0.4256679175372536E-18    0.0000000000000000E+00   -0.8333333333333334E+00
    0.0000000000000000E+00    0.3000000000000000E+01    0.0000000000000000E+00
    0.4256679175372536E-18    0.0000000000000000E+00   -0.8333333333333334E+00
    0.0000000000000000E+00    0.2000000000000000E+01    0.0000000000000000E+00
    0.4256679175372536E-18    0.0000000000000000E+00   -0.8333333333333334E+00
    0.0000000000000000E+00    0.9999999999999998E+00    0.0000000000000000E+00
    0.4256679175372536E-18    0.0000000000000000E+00   -0.8333333333333334E+00
    0.0000000000000000E+00    0.4256679175372536E-18    0.0000000000000000E+00
    0.9999999999999999E+00    0.0000000000000000E+00   -0.8333333333333334E+00
    0.0000000000000000E+00    0.4256679175372536E-18    0.0000000000000000E+00
    0.2000000000000000E+01    0.0000000000000000E+00   -0.8333333333333334E+00
[...]
POINT_DATA 350
SCALARS rho double 1
LOOKUP_TABLE default
   0.1002301483422487E+01
  -0.7163809063245285E-34
   0.1001908563414867E+01
  -0.1157481024024918E-33
   0.1001998134721172E+01
  -0.1357323542204858E-33
   0.1005484982216263E+01
  -0.1905528027485381E-33
   0.1004616659473117E+01
  -0.1416547846813289E-33
   0.1003800483716712E+01
  -0.1103843718083683E-33
   0.1005530101903235E+01
  -0.1518636341985444E-33
   0.1007770995958867E+01
  -0.1804050473281574E-33
   0.1034861388672600E+01
  -0.6300466400031140E-33
   0.1007228275961087E+01
   0.6432943516684540E-33
   0.1503074228026487E+01
  -0.6360667493483877E-32
   0.9223398378225335E+00
  -0.2532338382536473E-32
   0.9841606274529427E+00
  -0.2052528722383539E-32
   0.9862719148677146E+00
  -0.3730330325045508E-32
   0.9800944163182475E+00
  -0.2214382443422327E-32
   0.8203437779774205E+00
  -0.5707785426853884E-32
   0.9831949079753173E+00
  -0.6672720122778533E-33
   0.1019036404604779E+01
  -0.1878533253953483E-33
   0.1005113286300402E+01
  -0.1462235209161028E-34
   0.1002089964504318E+01
  -0.7501635604979267E-34
   0.1003052618951656E+01
  -0.1161253669651123E-33
   0.9961493052831039E+00
  -0.1030264335562774E-32
   0.1098434183957153E+01
  -0.2262652625809834E-32
   0.1004953422803075E+01
  -0.1505855422803962E-33
   0.1003131997855546E+01
  -0.1738813632835321E-33
   0.1003037468533254E+01
  -0.1605572471155962E-33
   0.1004616233481926E+01
  -0.2363554862094717E-33
   0.9992101113332059E+00
  -0.6303402797635974E-33
   0.1004606280059595E+01
  -0.4708073032333330E-34
   0.9964285706113490E+00
  -0.1350217292509553E-33
   0.1002820512838151E+01
  -0.1614667627209480E-32
   0.1012493569549376E+01
  -0.2518138385104077E-33
   0.1007513254379132E+01
  -0.2027350891425740E-33
   0.1068122944877848E+01
  -0.1121447473839580E-32
   0.1004633797013756E+01
  -0.1700705972748103E-33
   0.1007244538825690E+01
  -0.1979577016235540E-33
   0.9975282284839708E+00
  -0.6144487679007258E-34
   0.9934914652791550E+00
   0.2696605722945013E-34
   0.1001878223073289E+01
  -0.4133743460094682E-33
   0.9846840489976845E+00
  -0.1360647188571796E-32
   0.1003697454524518E+01
  -0.1369344533955620E-33
   0.1003860022704711E+01
  -0.1794113271805176E-33
   0.1010028992019296E+01
  -0.3062953264252150E-33
   0.9755375725453505E+00
  -0.1400640781563447E-32
   0.1019512425864358E+01
  -0.1294683721289721E-32
   0.1002650205979416E+01
   0.1931237603562927E-34
   0.1008312002787539E+01
  -0.3943768154247723E-33
   0.9960547803212241E+00
  -0.1331955379668536E-33
   0.1000964632137217E+01
  -0.1982290042299059E-33
   0.1003392274789312E+01
  -0.2810901499529356E-33
   0.1002238965888016E+01
  -0.7079778150137612E-34
   0.1001784121611512E+01
  -0.1152469383132935E-33
   0.1001851624036490E+01
  -0.1352965649336079E-33
   0.1005416908168664E+01
  -0.1905329936944917E-33
   0.1004542695273804E+01
  -0.1415490170074214E-33
   0.1003773102372118E+01
  -0.1101687968682556E-33
   0.1005435019053529E+01
  -0.1518479946129582E-33
   0.1007530264302077E+01
  -0.1802765421839236E-33
   0.1034538209892927E+01
  -0.6319832799784613E-33
   0.1004048744659192E+01
   0.6564955951332479E-33
   0.1504789635781508E+01
  -0.6355361412410392E-32
   0.9195193552853369E+00
  -0.2516516528715721E-32
   0.9838492102209887E+00
  -0.2048087484797157E-32
   0.9871161087240925E+00
  -0.3731165581773382E-32
   0.9803670353812195E+00
  -0.2229126032425114E-32
   0.8215128849351718E+00
  -0.5726376688453816E-32
   0.9886370470031901E+00
  -0.6783410623996097E-33
   0.1020555446754930E+01
  -0.1916927795689776E-33
   0.1005030773966217E+01
  -0.1607115988494989E-34
   0.1002005276922823E+01
  -0.7527840155414437E-34
   0.1002963059528099E+01
  -0.1155466204814775E-33
   0.1000189835322401E+01
  -0.1045190455176464E-32
   0.1098988580083120E+01
  -0.2269888169644681E-32
   0.1004887997171613E+01
  -0.1505105756837870E-33
   0.1003036708325033E+01
  -0.1733379091174521E-33
   0.1002883926206387E+01
  -0.1599658360845260E-33
   0.1004550873640020E+01
  -0.2363946619990306E-33
   0.1000595571390683E+01
  -0.6301678354841393E-33
   0.1004836523603373E+01
  -0.4745371156021961E-34
   0.9964134795873244E+00
  -0.1343023470834264E-33
   0.1005319037859178E+01
  -0.1613282478239174E-32
   0.1012155283577110E+01
  -0.2524870914608121E-33
   0.1007313047045113E+01
  -0.2019463258030761E-33
   0.1068544143697446E+01
  -0.1119826624183035E-32
   0.1004524828381741E+01
  -0.1697526056125330E-33
   0.1007070794449378E+01
  -0.1971657142095709E-33
   0.9969095295909052E+00
  -0.5858384725801302E-34
   0.9928081019600877E+00
   0.2999004503440519E-34
   0.1001879314228905E+01
  -0.4073956098743360E-33
   0.9868899670758273E+00
  -0.1360253016588838E-32
   0.1003701711876549E+01
  -0.1381504155962855E-33
   0.1003655173666966E+01
  -0.1786512680259769E-33
   0.1009946522681880E+01
  -0.3074938149875878E-33
   0.9763461472841783E+00
  -0.1395953863203619E-32
   0.1021419529283797E+01
  -0.1294730634911045E-32
   0.1001420823136274E+01
   0.2475292284155729E-34
   0.1008564303139272E+01
  -0.3905634778833655E-33
   0.9957895883205624E+00
  -0.1335121965607207E-33
   0.1000898026134485E+01
  -0.1991936118024550E-33
   0.1003882717897919E+01
  -0.2771838294363090E-33
   0.1002273658929806E+01
  -0.7103894104192002E-34
   0.1001848906330050E+01
  -0.1154168617405783E-33
   0.1001928366369904E+01
  -0.1354419171046120E-33
   0.1005485934000030E+01
  -0.1906560624280550E-33
   0.1004592768498752E+01
  -0.1416690316845276E-33
   0.1003795030768529E+01
  -0.1102622620863874E-33
   0.1005476818420424E+01
  -0.1519130103593548E-33
   0.1007593193355059E+01
  -0.1804062195483937E-33
   0.1034675975948050E+01
  -0.6321412428610681E-33
   0.1004011704281838E+01
   0.6564952428611927E-33
   0.1505325610016730E+01
  -0.6354855705671200E-32
   0.9191714401952028E+00
  -0.2514750522945956E-32
   0.9840744145157085E+00
  -0.2048625323721757E-32
   0.9873841928583730E+00
  -0.3732422786298438E-32
   0.9804750084727165E+00
  -0.2232761883800156E-32
   0.8218025414710568E+00
  -0.5731288037283540E-32
   0.9885558098681591E+00
  -0.6781646165031585E-33
   0.1020566565884899E+01
  -0.1920550354342826E-33
   0.1005034325129603E+01
  -0.1579294894674688E-34
   0.1002025136916865E+01
  -0.7526950074628871E-34
   0.1003010443543855E+01
  -0.1157419101438480E-33
   0.1000073960784382E+01
  -0.1043868736221148E-32
   0.1099565659719907E+01
  -0.2270376163914426E-32
   0.1004937126521925E+01
  -0.1506199968163686E-33
   0.1003108822440212E+01
  -0.1735674923261664E-33
   0.1002967684258403E+01
  -0.1601594990917758E-33
   0.1004647036894714E+01
  -0.2366023510996002E-33
   0.1000705048023670E+01
  -0.6310629630999044E-33
   0.1004839126673158E+01
  -0.4740516577019873E-34
   0.9964455265004832E+00
  -0.1342826316015164E-33
   0.1005405009439179E+01
  -0.1612604800137729E-32
   0.1012326398596374E+01
  -0.2525929583030677E-33
   0.1007416438209973E+01
  -0.2021904998421147E-33
   0.1068978290719249E+01
  -0.1120846815931974E-32
   0.1004595734434106E+01
  -0.1699037342399264E-33
   0.1007160169062867E+01
  -0.1974105156561335E-33
   0.9970615840087722E+00
  -0.5891099185869966E-34
   0.9929533528285193E+00
   0.2990810665546601E-34
   0.1002099913966640E+01
  -0.4082978830746851E-33
   0.9869804309766584E+00
  -0.1360150758700586E-32
   0.1003734275670898E+01
  -0.1380514991164116E-33
   0.1003760043207557E+01
  -0.1789254868504352E-33
   0.1010076717065487E+01
  -0.3076165405951913E-33
   0.9766669744568000E+00
  -0.1396214098995114E-32
   0.1021655651338541E+01
  -0.1295142742693194E-32
   0.1001631275994435E+01
   0.2469790931593647E-34
   0.1008732451889726E+01
  -0.3913098518666813E-33
   0.9958681758716761E+00
  -0.1334038993730534E-33
   0.1000963320365035E+01
  -0.1991650027220988E-33
   0.1003940803898106E+01
  -0.2779097759214412E-33
   0.1002262880611436E+01
  -0.7099490739544716E-34
   0.1001817781663489E+01
  -0.1153858928249667E-33
   0.1001880642995981E+01
  -0.1353866080388489E-33
   0.1005434417754388E+01
  -0.1905732361650059E-33
   0.1004551936970534E+01
  -0.1415766049897072E-33
   0.1003774954630146E+01
  -0.1101900616333505E-33
   0.1005438953454370E+01
  -0.1518505749028668E-33
   0.1007524826055229E+01
  -0.1802966689381652E-33
   0.1034560447011672E+01
  -0.6320256226741600E-33
   0.1003828187641824E+01
   0.6567089564458956E-33
   0.1505209738314313E+01
  -0.6354794108267238E-32
   0.9191580085390842E+00
  -0.2514825067490010E-32
   0.9841429660437045E+00
  -0.2049126798758170E-32
   0.9874491417155072E+00
  -0.3733092648663723E-32
   0.9806154138103137E+00
  -0.2233138137168323E-32
   0.8217704301794149E+00
  -0.5730015015779808E-32
   0.9887921199367251E+00
  -0.6781113346213483E-33
   0.1020615678377864E+01
  -0.1924517491527522E-33
   0.1005027569302712E+01
  -0.1590597986429142E-34
   0.1002009945529550E+01
  -0.7521430841825192E-34
   0.1002995257784141E+01
  -0.1157299309375279E-33
   0.1000276411933626E+01
  -0.1044626395266180E-32
   0.1099256319998947E+01
  -0.2269992185095057E-32
   0.1004896393105377E+01
  -0.1505289099628311E-33
   0.1003079739206638E+01
  -0.1735379576866302E-33
   0.1002919384656781E+01
  -0.1600939833003365E-33
   0.1004609181397353E+01
  -0.2365535628136331E-33
   0.1000792322975906E+01
  -0.6314702105088234E-33
   0.1004903891928026E+01
  -0.4780898431546189E-34
   0.9965103624710693E+00
  -0.1346481808569392E-33
   0.1005429540647396E+01
  -0.1613014380862480E-32
   0.1012211223390998E+01
  -0.2524012967312679E-33
   0.1007337282218316E+01
  -0.2020094927849994E-33
   0.1068882553802314E+01
  -0.1120860749663346E-32
   0.1004544161234017E+01
  -0.1698128624405198E-33
   0.1007096888517982E+01
  -0.1972744029328229E-33
   0.9970409021753036E+00
  -0.5908186565786232E-34
   0.9928937332451740E+00
   0.2984120480673190E-34
   0.1002073503239792E+01
  -0.4083932549808660E-33
   0.9870464094444756E+00
  -0.1360678071635399E-32
   0.1003738825322598E+01
  -0.1381275853261792E-33
   0.1003697766098639E+01
  -0.1788063200248373E-33
   0.1010011930163707E+01
  -0.3075559931653217E-33
   0.9765721525184381E+00
  -0.1395915385690675E-32
   0.1021706617180696E+01
  -0.1295466718575046E-32
   0.1001510018755395E+01
   0.2464417366378148E-34
   0.1008778386834903E+01
  -0.3916671955948810E-33
   0.9958614567172610E+00
  -0.1335586334351804E-33
   0.1000955548858867E+01
  -0.1992379737621098E-33
   0.1004051817194276E+01
  -0.2784046719035360E-33
   0.1002273650403575E+01
  -0.7103864078454849E-34
   0.1001848911734700E+01
  -0.1154168256152071E-33
   0.1001928382567762E+01
  -0.1354420195952194E-33
   0.1005485901018466E+01
  -0.1906558936159751E-33
   0.1004592758167180E+01
  -0.1416690511991085E-33
   0.1003795015868306E+01
  -0.1102621656880857E-33
   0.1005476810454954E+01
  -0.1519131144409654E-33
   0.1007593197560228E+01
  -0.1804063841705865E-33
   0.1034675532345510E+01
  -0.6321403720315873E-33
   0.1004012563281858E+01
   0.6564897672886077E-33
   0.1505319238483643E+01
  -0.6354862725872552E-32
   0.9191706442681840E+00
  -0.2514737794423009E-32
   0.9840732390112232E+00
  -0.2048618217355895E-32
   0.9873832288171583E+00
  -0.3732414517741447E-32
   0.9804740931545465E+00
  -0.2232753808889343E-32
   0.8218010666955498E+00
  -0.5731260933828137E-32
   0.9885549746688265E+00
  -0.6781552654939191E-33
   0.1020566441999377E+01
  -0.1920512991314528E-33
   0.1005034364484259E+01
  -0.1579375527515567E-34
   0.1002025121624014E+01
  -0.7526958315111940E-34
   0.1003010425501488E+01
  -0.1157416346201675E-33
   0.1000073037285208E+01
  -0.1043860390430558E-32
   0.1099563435747471E+01
  -0.2270366626985293E-32
   0.1004937114785548E+01
  -0.1506199887399085E-33
   0.1003108795772039E+01
  -0.1735671401476250E-33
   0.1002967689230973E+01
  -0.1601594926435820E-33
   0.1004646971634183E+01
  -0.2366018052166887E-33
   0.1000704663079842E+01
  -0.6310557986311171E-33
   0.1004839152740124E+01
  -0.4740472300033514E-34
   0.9964455500327793E+00
  -0.1342819281320572E-33
   0.1005403912819864E+01
  -0.1612595934800064E-32
   0.1012326345247095E+01
  -0.2525931483728346E-33
   0.1007416417219890E+01
  -0.2021904522377883E-33
   0.1068977311672923E+01
  -0.1120840971127407E-32
   0.1004595722430975E+01
  -0.1699036930769184E-33
   0.1007160141752343E+01
  -0.1974104829550535E-33
   0.9970617261713932E+00
  -0.5891112101779902E-34
   0.9929535825631624E+00
   0.2990753360476416E-34
   0.1002099650807361E+01
  -0.4082924438288501E-33
   0.9869795872503342E+00
  -0.1360140561779891E-32
   0.1003734262575811E+01
  -0.1380516381979300E-33
   0.1003760038449276E+01
  -0.1789253651923733E-33
   0.1010076602054053E+01
  -0.3076160985415937E-33
   0.9766662389162312E+00
  -0.1396204994137381E-32
   0.1021654764707296E+01
  -0.1295134085174496E-32
   0.1001631547756708E+01
   0.2469538001425654E-34
   0.1008732224255103E+01
  -0.3913056272685843E-33
   0.9958682359141524E+00
  -0.1334041581093342E-33
   0.1000963293946229E+01
  -0.1991648798703201E-33
   0.1003940617824863E+01
  -0.2779052925319552E-33
   0.1002238958306838E+01
  -0.7079727807912168E-34
   0.1001784136480167E+01
  -0.1152469033101034E-33
   0.1001851652637664E+01
  -0.1352967354330820E-33
   0.1005416854554739E+01
  -0.1905326966147077E-33
   0.1004542678706385E+01
  -0.1415490426800410E-33
   0.1003773077761942E+01
  -0.1101686163329135E-33
   0.1005435009256789E+01
  -0.1518481829829993E-33
   0.1007530279480481E+01
  -0.1802768146528684E-33
   0.1034537418007320E+01
  -0.6319816449575188E-33
   0.1004050344328179E+01
   0.6564854536332783E-33
   0.1504777429828524E+01
  -0.6355375691672773E-32
   0.9195177625091492E+00
  -0.2516491503046686E-32
   0.9838457973378287E+00
  -0.2048069609112968E-32
   0.9871130142733229E+00
  -0.3731141398679308E-32
   0.9803642629895996E+00
  -0.2229105001892073E-32
   0.8215083230099227E+00
  -0.5726292104967812E-32
   0.9886355880710864E+00
  -0.6783239908584886E-33
   0.1020555248705805E+01
  -0.1916858411796840E-33
   0.1005030830054420E+01
  -0.1607266341657437E-34
   0.1002005241367073E+01
  -0.7527850957257530E-34
   0.1002963035293254E+01
  -0.1155461703677872E-33
   0.1000188099007524E+01
  -0.1045175053804567E-32
   0.1098984437985346E+01
  -0.2269870275455479E-32
   0.1004887980118689E+01
  -0.1505105635744531E-33
   0.1003036670149729E+01
  -0.1733373274441557E-33
   0.1002883940344554E+01
  -0.1599658350100536E-33
   0.1004550768013146E+01
  -0.2363937296264957E-33
   0.1000594903708188E+01
  -0.6301542828826195E-33
   0.1004836596234541E+01
  -0.4745322207290481E-34
   0.9964135425333245E+00
  -0.1343012617575724E-33
   0.1005316844380401E+01
  -0.1613265003171337E-32
   0.1012155195648453E+01
  -0.2524873690807430E-33
   0.1007313014820170E+01
  -0.2019462104288594E-33
   0.1068542315407069E+01
  -0.1119815350143725E-32
   0.1004524812188365E+01
  -0.1697525344144220E-33
   0.1007070751864175E+01
  -0.1971656477469940E-33
   0.9969098047025239E+00
  -0.5858415032790257E-34
   0.9928085382371690E+00
   0.2998891980548752E-34
   0.1001878816508305E+01
  -0.4073855117143837E-33
   0.9868884132189897E+00
  -0.1360233120132664E-32
   0.1003701688928986E+01
  -0.1381507143893240E-33
   0.1003655174206179E+01
  -0.1786510553246216E-33
   0.1009946325051185E+01
  -0.3074930282455226E-33
   0.9763448363602045E+00
  -0.1395937314459428E-32
   0.1021417918530634E+01
  -0.1294714685713184E-32
   0.1001421360597583E+01
   0.2474811962680336E-34
   0.1008563922600919E+01
  -0.3905558929732686E-33
   0.9957897025161518E+00
  -0.1335127662940725E-33
   0.1000897987114091E+01
  -0.1991934722467605E-33
   0.1003882410596570E+01
  -0.2771757657741423E-33
   0.1002301474002139E+01
  -0.7163740344404454E-34
   0.1001908583323547E+01
  -0.1157481056220994E-33
   0.1001998167718271E+01
  -0.1357326406115238E-33
   0.1005484907404414E+01
  -0.1905524314218631E-33
   0.1004616638184241E+01
  -0.1416548468695465E-33
   0.1003800451494818E+01
  -0.1103841345957596E-33
   0.1005530094279515E+01
  -0.1518639297321089E-33
   0.1007771021416449E+01
  -0.1804054646099704E-33
   0.1034860303870021E+01
  -0.6300441605843049E-33
   0.1007230438423893E+01
   0.6432797032386196E-33
   0.1503056657499985E+01
  -0.6360685087424356E-32
   0.9223370550011679E+00
  -0.2532300809773707E-32
   0.9841547849744302E+00
  -0.2052499780374735E-32
   0.9862649938981440E+00
  -0.3730278002722996E-32
   0.9800882465561308E+00
  -0.2214343571091208E-32
   0.8203358535119536E+00
  -0.5707640199562461E-32
   0.9831929534323309E+00
  -0.6672460705744687E-33
   0.1019036236419427E+01
  -0.1878436028684707E-33
   0.1005113363464008E+01
  -0.1462450977023468E-34
   0.1002089916933329E+01
  -0.7501652378132536E-34
   0.1003052583794558E+01
  -0.1161247543942599E-33
   0.9961465692514967E+00
  -0.1030239912816973E-32
   0.1098428219224755E+01
  -0.2262626504277942E-32
   0.1004953402630766E+01
  -0.1505855616757793E-33
   0.1003131939499814E+01
  -0.1738805950623873E-33
   0.1003037483860918E+01
  -0.1605573089671945E-33
   0.1004616072635432E+01
  -0.2363542242958430E-33
   0.9992092648306073E+00
  -0.6303208430528997E-33
   0.1004606387529835E+01
  -0.4708011291614248E-34
   0.9964286439446782E+00
  -0.1350201897357279E-33
   0.1002817288203061E+01
  -0.1614640997570101E-32
   0.1012493436821049E+01
  -0.2518142567417572E-33
   0.1007513207588794E+01
  -0.2027349842661670E-33
   0.1068120339762974E+01
  -0.1121430945247228E-32
   0.1004633774954458E+01
  -0.1700705487828041E-33
   0.1007244485620082E+01
  -0.1979576702480571E-33
   0.9975286120563014E+00
  -0.6144552124637630E-34
   0.9934920550438612E+00
   0.2696418444069310E-34
   0.1001877455798718E+01
  -0.4133599564514692E-33
   0.9846819917583932E+00
  -0.1360618258104401E-32
   0.1003697417479675E+01
  -0.1369348991334221E-33
   0.1003860018166569E+01
  -0.1794111123438173E-33
   0.1010028715591974E+01
  -0.3062943249128646E-33
   0.9755356421431599E+00
  -0.1400616663248063E-32
   0.1019510124584684E+01
  -0.1294660168372819E-32
   0.1002650989245629E+01
   0.1930520711014984E-34
   0.1008311467591887E+01
  -0.3943658956792127E-33
   0.9960549312908077E+00
  -0.1331965416272394E-33
   0.1000964577215550E+01
  -0.1982289565546568E-33
   0.1003391801081321E+01
  -0.2810783772101803E-33
SCALARS u double 1
LOOKUP_TABLE default
   0.5000841417888948E+00
  -0.5394085805212881E-35
   0.4992069962948136E+00
   0.1500282519411514E-33
   0.4996995961843809E+00
   0.1961347424428508E-33
   0.4941995654124408E+00
   0.2452938949626031E-33
   0.4931511025316224E+00
   0.2086396112674121E-33
   0.4958214912095552E+00
   0.1141167936224845E-33
   0.4949144717487464E+00
   0.1474884733046676E-33
   0.4919613529818677E+00
   0.1999818634199697E-33
   0.4684502259846691E+00
   0.4713424859787274E-33
   0.4836510095589420E+00
  -0.1413606101210673E-33
   0.0000000000000000E+00
   0.0000000000000000E+00
   0.0000000000000000E+00
   0.0000000000000000E+00
   0.0000000000000000E+00
   0.0000000000000000E+00
   0.0000000000000000E+00
   0.0000000000000000E+00
   0.0000000000000000E+00
   0.0000000000000000E+00
   0.0000000000000000E+00
   0.0000000000000000E+00
   0.4774086983889704E+00
   0.7126571546488096E-33
   0.5239571288979967E+00
  -0.8827574617772483E-34
   0.5120339952936585E+00
  -0.1811038552086609E-33
   0.4994262323532816E+00
  -0.3750362106901744E-34
   0.4978313571444067E+00
   0.8943248534517086E-34
   0.3976736165025100E+00
   0.1345096639420554E-32
   0.4468329553056181E+00
  -0.6644989638087613E-33
   0.4947257044474366E+00
   0.1716570153987878E-33
   0.4979476008036903E+00
   0.1675455215867804E-33
   0.4986051256871639E+00
   0.1997001265656683E-33
   0.4985890360439673E+00
   0.2054393298300782E-33
   0.5704142825790195E+00
   0.3472325891774022E-33
   0.5373405147744675E+00
  -0.6381743845113477E-34
   0.5496928853224968E+00
   0.9421699392101384E-34
   0.3071420526513463E+00
   0.4375611124915716E-33
   0.4888420309642924E+00
   0.2257097372674460E-33
   0.4922474970206596E+00