TITLE="Adjoint Convergence History"
VARIABLES="Iteration" "R_1" "R_2" "R_3" "R_4" "R_5" "Simulation_Time"
ZONE I=1 F=POINT
1  0.3989622413E-02  0.7292212439E-03  0.5035726015E-05  0.3940994505E-04  0.4621648294E+00  0.6647000000E+00
