title="tecplot geometry and solution file"
variables = x y z mach temperature lambda1 lambda2 lambda3 lambda4 lambda5
zone t="boundary 1 bc-1", solutiontime= 0.9000000E+02, strandid=1001, i=32, j=46, f=feblock
 -0.547468544169E-02  0.000000000000E+00 -0.567606031243E-02  0.000000000000E+00  0.000000000000E+00  0.000000000000E+00 -0.525159244851E-02
 -0.425776897977E-02  0.000000000000E+00  0.000000000000E+00  0.000000000000E+00  0.000000000000E+00  0.000000000000E+00  0.000000000000E+00
  0.000000000000E+00  0.000000000000E+00 -0.338395986572E-02  0.000000000000E+00  0.000000000000E+00  0.000000000000E+00  0.000000000000E+00
  0.000000000000E+00  0.000000000000E+00  0.000000000000E+00  0.000000000000E+00  0.000000000000E+00  0.000000000000E+00  0.000000000000E+00
  0.000000000000E+00  0.000000000000E+00  0.000000000000E+00  0.000000000000E+00
  0.250494197117E+01  0.250494197117E+01  0.127822156907E+01  0.146289271009E+01  0.157686156160E+01  0.308372018325E+00  0.261948602442E-01
 -0.122573481164E+01 -0.600232012419E+00  0.250494197117E+01  0.477386199275E+00  0.742988685424E+00 -0.739814786992E+00  0.177790177481E+01
  0.155830813274E+01  0.250494197117E+01 -0.249658903664E+01 -0.154800130438E+01 -0.487811078581E+00  0.250494197117E+01  0.627766083140E+00
 -0.345533899378E+00 -0.178862290564E+01 -0.158811787973E+01  0.125000000000E+01 -0.249658903664E+01 -0.144524380962E+01  0.000000000000E+00
 -0.125000000000E+01 -0.249658903664E+01 -0.249658903664E+01 -0.249658903664E+01
  0.803813859866E-04  0.125000000000E+01  0.822460170216E-04  0.103724302461E+01  0.219251206392E+01  0.922061490191E+00  0.103872438719E-03
  0.341545874231E-04  0.715990576545E+00  0.250000000000E+01  0.202479342020E+01  0.324151231464E+01  0.175434191980E+01  0.310152362409E+01
  0.404200324774E+01  0.375000000000E+01  0.810725962649E-04  0.930412228790E+00  0.299062775774E+01  0.500000000000E+01  0.429310310915E+01
  0.409252726285E+01  0.187029682677E+01  0.284428995242E+01  0.500000000000E+01  0.125000000000E+01  0.394624082883E+01  0.500000000000E+01
  0.500000000000E+01  0.250000000000E+01  0.375000000000E+01  0.500000000000E+01
  0.000000000000E+00  0.440672136512E+00  0.000000000000E+00  0.474618025820E+00  0.460125068601E+00  0.468639320143E+00  0.000000000000E+00
  0.000000000000E+00  0.402534623939E+00  0.469886789982E+00  0.464193107367E+00  0.478749739491E+00  0.489555756507E+00  0.483130037990E+00
  0.488002902366E+00  0.489035017215E+00  0.000000000000E+00  0.465237698331E+00  0.473759127176E+00  0.495364848064E+00  0.490293257191E+00
  0.486276632093E+00  0.445850265191E+00  0.464356446519E+00  0.496127940578E+00  0.443891909404E+00  0.486928147025E+00  0.497248366859E+00
  0.496055083747E+00  0.467740399690E+00  0.488187228171E+00  0.495089980244E+00
  0.999990300362E+00  0.102982970104E+01  0.999990762612E+00  0.104241436388E+01  0.101187663318E+01  0.102516400612E+01  0.999991420552E+00
  0.999992171067E+00  0.103882325429E+01  0.100825795511E+01  0.101253536096E+01  0.100301645575E+01  0.102705594255E+01  0.100604114309E+01
  0.100244532432E+01  0.100354817652E+01  0.999992724186E+00  0.103209991946E+01  0.100459425771E+01  0.100178625606E+01  0.100260326526E+01
  0.100234745937E+01  0.101657167924E+01  0.100620610961E+01  0.100168369530E+01  0.104025009063E+01  0.100303477791E+01  0.100118721261E+01
  0.100134451878E+01  0.100976460100E+01  0.100405634212E+01  0.100176433139E+01
  0.610129923211E-02  0.306716106235E-01  0.698494811063E-02  0.492836781035E-01  0.346862140977E-02  0.587059676698E-01  0.512165754521E-02
  0.170598237830E-02  0.582732515065E-01 -0.164995248822E-02  0.389953022157E-02 -0.701958834952E-02  0.329293713674E-02 -0.389670498817E-02
 -0.933379103163E-02 -0.931134384671E-02  0.308604613701E-02  0.385674840587E-01 -0.515851101405E-02 -0.339852405882E-01 -0.121361466925E-01
 -0.812690830665E-02  0.186574583338E-02 -0.443745070472E-02 -0.351890939443E-01  0.248759635510E-01 -0.633150307291E-02 -0.387855910085E-01
 -0.342302824000E-01 -0.361021496968E-02 -0.697141732506E-02 -0.321706553674E-01
  0.239193327068E-03  0.444690398268E-02  0.331468286981E-03  0.629797491243E-02  0.165103215185E-03  0.888125468329E-02  0.361485945956E-03
  0.321555625373E-03  0.868020724298E-02 -0.782603191083E-03  0.347082571314E-03 -0.148142156165E-02 -0.971839059927E-04 -0.114287151685E-02
 -0.182978752120E-02 -0.204919605586E-02  0.284324142958E-03  0.601318340780E-02 -0.103416907419E-02 -0.697903121187E-02 -0.240637991588E-02
 -0.155610076890E-02 -0.207720129118E-03 -0.851542818410E-03 -0.736738763209E-02  0.306409075382E-02 -0.124804099508E-02 -0.814802115960E-02
 -0.716145284981E-02 -0.904775856065E-03 -0.148496440428E-02 -0.669180330832E-02
  0.405817013830E-03  0.128356928213E-03  0.546884956755E-03  0.125031024561E-02  0.147352991615E-03  0.606722009858E-03  0.467396497354E-03
 -0.174854009440E-03 -0.333211382651E-04 -0.133078976145E-04  0.128347566260E-03  0.133156986721E-03 -0.140617285456E-03  0.250991471676E-04
 -0.495600633182E-04 -0.287138094315E-05 -0.245073121702E-03 -0.794134828802E-03  0.152612191071E-04  0.332386563810E-05 -0.320427899764E-04
 -0.381293595810E-04 -0.165275889467E-04 -0.137082725491E-03  0.897585180828E-04 -0.102521553994E-03 -0.785938432123E-04 -0.171187284633E-04
 -0.755962529053E-04 -0.219850906940E-04 -0.801657741797E-05  0.654904337012E-05
 -0.147369373222E-02 -0.134232842599E-02 -0.160704540398E-02 -0.713595639487E-05  0.142118690242E-02  0.153397996299E-02 -0.899993146510E-03
 -0.786601353866E-03  0.108729783564E-02  0.155237099104E-02  0.289652917244E-02  0.159507312428E-02  0.319732235149E-02  0.148279149021E-02
  0.109559100469E-02  0.128763660601E-02 -0.609660945863E-03  0.916844701879E-03  0.183380067524E-02  0.461658998371E-03  0.101739773862E-02
  0.121216203744E-02  0.217918277913E-02  0.148770175024E-02  0.443203164241E-03  0.112530544582E-02  0.111191378960E-02  0.419535719861E-03
  0.501268772132E-03  0.168637885691E-02  0.113900508925E-02  0.491825438203E-03
 -0.487347767026E-02 -0.126325489267E-01 -0.665636108576E-02 -0.197247323854E-01 -0.144244375396E-02 -0.243687324583E-01  0.325552969110E-03
  0.104266197886E-02 -0.242167463535E-01  0.663711704775E-03 -0.170497238621E-02  0.274439659511E-02 -0.142036269039E-02  0.153547866477E-02
  0.372763476952E-02  0.375539611675E-02 -0.101640115987E-02 -0.161237573494E-01  0.191163866017E-02  0.141084867171E-01  0.490135939420E-02
  0.321411058568E-02 -0.897667918721E-03  0.158959200781E-02  0.146345874630E-01 -0.101412322863E-01  0.246913203486E-02  0.161775573935E-01
  0.142445456095E-01  0.131292039323E-02  0.276987760948E-02  0.133525624611E-01
        12        19        11        11
        11         5        12        12
        10        14         5         5
        19        13        11        11
        19        24        13        13
        30        23        24        24
        19        12        22        22
        28        22        21        21
        11        13         6         6
         7         6         9         9
        15        12        14        14
        18        13        23        23
        15        25        21        21
        27        19        22        22
        18         8         9         9
        27        31        24        24
         4        11         6         6
         5        14        12        12
         4         2         5         5
        21        12        15        15
        14        16        15        15
        24        19        27        27
        22        29        27        27
        23        26        18        18
        17         8        18        18
         5        11         4         4
         6         3         4         4
        26        23        30        30
         5         2        10        10
        16        14        10        10
         3         6         7         7
        21        25        28        28
        29        22        28        28
         6        13         9         9
         2         4         1         1
        31        27        32        32
        25        15        20        20
        24        23        13        13
         8         7         9         9
        13        18         9         9
        31        30        24        24
        12        21        22        22
        29        32        27        27
         3         1         4         4
        26        17        18        18
        16        20        15        15
zone t="boundary 2 bc-2", solutiontime= 0.9000000E+02, strandid=1002, i=33, j=48, f=feblock
  0.500195253374E+01  0.375034811161E+01  0.249861146299E+01  0.288036674177E+01  0.124717526933E+01  0.190856698521E+01  0.326577190273E+01
  0.201394856120E+01 -0.338395986572E-02  0.962374249381E+00  0.500000000000E+01  0.403430190008E+01  0.423029563807E+01  0.500000000000E+01
  0.385439188940E+01  0.500000000000E+01  0.398133433176E+01  0.315200081417E+01  0.266958028869E+01  0.154798029824E+01  0.218327860466E+01
  0.893688440338E+00  0.000000000000E+00  0.699009761768E+00  0.964460899052E+00  0.310303671659E+01  0.000000000000E+00  0.000000000000E+00
  0.125000000000E+01  0.500000000000E+01  0.375000000000E+01  0.250000000000E+01  0.000000000000E+00
 -0.249658903664E+01 -0.249658903664E+01 -0.249658903664E+01 -0.249658903664E+01 -0.249658903664E+01 -0.249658903664E+01 -0.249658903664E+01
 -0.249658903664E+01 -0.249658903664E+01 -0.249658903664E+01 -0.249658903664E+01 -0.249658903664E+01 -0.249658903664E+01 -0.249658903664E+01
 -0.249658903664E+01 -0.249658903664E+01 -0.249658903664E+01 -0.249658903664E+01 -0.249658903664E+01 -0.249658903664E+01 -0.249658903664E+01
 -0.249658903664E+01 -0.249658903664E+01 -0.249658903664E+01 -0.249658903664E+01 -0.249658903664E+01 -0.249658903664E+01 -0.249658903664E+01
 -0.249658903664E+01 -0.249658903664E+01 -0.249658903664E+01 -0.249658903664E+01 -0.249658903664E+01
  0.108225889030E-03  0.145875369682E-03  0.100893326425E-03  0.901663374396E+00  0.110858761917E-03  0.714928318829E+00  0.188140648011E+01
  0.175892165504E+01  0.810725962649E-04  0.957504300331E+00  0.125000000000E+01  0.100596698996E+01  0.191313519089E+01  0.250000000000E+01
  0.292898096716E+01  0.375000000000E+01  0.406883369524E+01  0.363389289944E+01  0.284756860985E+01  0.292582308120E+01  0.395754054931E+01
  0.205027256979E+01  0.125000000000E+01  0.306703272692E+01  0.397155766662E+01  0.433068622168E+01  0.250000000000E+01  0.375000000000E+01
  0.500000000000E+01  0.500000000000E+01  0.500000000000E+01  0.500000000000E+01  0.500000000000E+01
  0.000000000000E+00  0.000000000000E+00  0.000000000000E+00  0.380534933893E+00  0.000000000000E+00  0.343213081171E+00  0.585244496925E+00
  0.579499344205E+00  0.000000000000E+00  0.500959578913E+00  0.508769460148E+00  0.434312419771E+00  0.572817919451E+00  0.537160208080E+00
  0.569105645782E+00  0.515014970171E+00  0.508256765061E+00  0.527354036988E+00  0.567656182489E+00  0.531857069084E+00  0.506013391179E+00
  0.521044573739E+00  0.443891909404E+00  0.490703078146E+00  0.492147926412E+00  0.501388000320E+00  0.467740399690E+00  0.488187228171E+00
  0.489959820989E+00  0.491323935798E+00  0.486019442841E+00  0.489980976742E+00  0.495089980244E+00
  0.999993488485E+00  0.999993690942E+00  0.999993544242E+00  0.989596674085E+00  0.999993139053E+00  0.985604091028E+00  0.989839488847E+00
  0.991730617690E+00  0.999992724186E+00  0.984220387528E+00  0.985139981863E+00  0.984817712566E+00  0.990066477090E+00  0.100292374828E+01
  0.999857731400E+00  0.100487268684E+01  0.100122724769E+01  0.100056983810E+01  0.997888256964E+00  0.100350942201E+01  0.100059365414E+01
  0.101090707434E+01  0.104025009063E+01  0.100327959733E+01  0.100254952730E+01  0.100046804572E+01  0.100976460100E+01  0.100405634212E+01
  0.100192626091E+01  0.100045827286E+01  0.100058947226E+01  0.100110091494E+01  0.100176433139E+01
 -0.252330487974E-02 -0.197836621882E-02 -0.121459745495E-02  0.238871103671E-01  0.241586183458E-02  0.783249452310E-01 -0.513268757396E-02
  0.945451835539E-03  0.308604613701E-02  0.364110479642E-01 -0.659539632264E-02 -0.762573666985E-02 -0.517678828549E-02 -0.442551220301E-02
 -0.325421247446E-02 -0.297003834900E-02 -0.218678533287E-02 -0.253089911087E-02 -0.418838460810E-02 -0.501215374640E-02 -0.329352939090E-02
  0.131166697873E-02  0.248759635510E-01 -0.338760318641E-02 -0.608983159095E-02 -0.396506082753E-02 -0.361021496968E-02 -0.697141732506E-02
 -0.289373546295E-01 -0.345683964628E-02 -0.132315415433E-01 -0.254248108627E-01 -0.321706553674E-01
  0.688017511836E-03 -0.192413016262E-03  0.186016240535E-04  0.410457408077E-02 -0.447445722348E-03  0.973191000810E-02 -0.195190590275E-04
 -0.387698635063E-03  0.284324142958E-03  0.429782599015E-02  0.149329781359E-02  0.510347886668E-04  0.758601269054E-03  0.113146537994E-02
  0.753199109818E-03  0.696408258507E-03  0.834179968844E-03  0.695142164187E-03  0.255886701221E-03 -0.423834843475E-03  0.298491588657E-03
 -0.360628103810E-03  0.306409075382E-02 -0.230052333830E-03 -0.701311823420E-03  0.411793463310E-03 -0.904775856065E-03 -0.148496440428E-02
 -0.520556008463E-02  0.174285302795E-03 -0.132936078656E-02 -0.395250281714E-02 -0.669180330832E-02
 -0.155436671297E-03  0.411018472631E-04  0.241698284022E-03  0.557908594327E-03  0.128340268090E-03  0.973142448711E-03 -0.761032399247E-04
  0.867706103305E-05 -0.245073121702E-03  0.373150048636E-03 -0.884472288900E-04 -0.284864285082E-03  0.530084591324E-05  0.835654753666E-05
  0.687429677036E-05 -0.133548072064E-04  0.161898469547E-05 -0.712032418553E-05  0.115808381153E-04  0.276324966175E-04 -0.169170413045E-04
  0.289642108720E-04 -0.102521553994E-03  0.546518312193E-05 -0.265980734752E-05 -0.591907525358E-05 -0.219850906940E-04 -0.801657741797E-05
 -0.261298601436E-05 -0.238092428809E-05  0.519556991547E-06  0.173538146466E-05  0.654904337012E-05
 -0.198495091285E-03 -0.204935691345E-03 -0.309701015769E-03  0.103425720435E-02 -0.716684376719E-03  0.224343024806E-03  0.156042882162E-02
  0.208716680346E-02 -0.609660945863E-03  0.980861977263E-03  0.298756006140E-03  0.109217568380E-02  0.626931682742E-03  0.283381856055E-03
  0.647019655350E-03  0.236866149654E-03  0.629141876807E-03  0.888584559991E-03  0.105425390231E-02  0.109568967113E-02  0.102596602930E-02
  0.165897305237E-02  0.112530544582E-02  0.116587722284E-02  0.102754449143E-02  0.886970795565E-03  0.168637885691E-02  0.113900508925E-02
  0.691322975227E-03  0.368551788856E-03  0.801729858101E-03  0.869536662090E-03  0.491825438203E-03
  0.718496137833E-03  0.197892363836E-02  0.342981611482E-02 -0.108863607965E-01  0.409105199343E-02 -0.335473621281E-01  0.152391574519E-02
 -0.485558408412E-03 -0.101640115987E-02 -0.150873566553E-01  0.142552991530E-02  0.231557470087E-02  0.127166490749E-02  0.848554399115E-03
  0.635872435035E-03  0.600567938173E-03  0.300582603078E-03  0.460749713446E-03  0.114878653646E-02  0.170376538153E-02  0.880390894378E-03
 -0.598242613460E-03 -0.101412322863E-01  0.109205819431E-02  0.222182643482E-02  0.108182189640E-02  0.131292039323E-02  0.276987760948E-02
  0.117573805990E-01  0.104473869527E-02  0.496518308754E-02  0.101091202103E-01  0.133525624611E-01
        15         7        19        19
         8        20        19        19
        18        19        21        21
         7         4         8         8
         3         6         4         4
        19         7         8         8
        19        18        15        15
        14        13        15        15
         8        22        20        20
        27        24        22        22
        19        20        21        21
        32        26        21        21
        17        18        26        26
        17        16        15        15
        25        29        21        21
        12         7        13        13
        10         8         6         6
        25        20        24        24
         4         6         8         8
        12         2         4         4
        10        23        22        22
        26        31        17        17
        30        16        17        17
         4         7        12        12
        13        11        12        12
        21        20        25        25
        24        28        25        25
        22         8        10        10
         6         5        10        10
        31        26        32        32
         4         2         3         3
         5         6         3         3
        11        13        14        14
        22        23        27        27
        28        24        27        27
        15        13         7         7
         2        12         1         1
        29        25        33        33
        23        10         9         9
        21        26        18        18
        16        14        15        15
        18        17        15        15
        29        32        21        21
        22        24        20        20
        28        33        25        25
        11         1        12        12
        31        30        17        17
         5         9        10        10
zone t="boundary 3 bc-3", solutiontime= 0.9000000E+02, strandid=1003, i=33, j=48, f=feblock
  0.375059096892E+01  0.249769609313E+01  0.500322133174E+01  0.403612218725E+01  0.287976772365E+01  0.124541910518E+01  0.190552237404E+01
  0.500000000000E+01  0.326671104552E+01  0.423253755448E+01  0.201271136506E+01 -0.547468544169E-02  0.958895643487E+00  0.500000000000E+01
  0.266968147299E+01  0.385584487271E+01  0.890374214836E+00  0.154654013699E+01  0.000000000000E+00  0.500000000000E+01  0.315261136744E+01
  0.218304199515E+01  0.398195307895E+01  0.000000000000E+00  0.697379952124E+00  0.963757277315E+00  0.125000000000E+01  0.000000000000E+00
  0.500000000000E+01  0.310330738524E+01  0.250000000000E+01  0.375000000000E+01  0.000000000000E+00
  0.250494197117E+01  0.250494197117E+01  0.250494197117E+01  0.250494197117E+01  0.250494197117E+01  0.250494197117E+01  0.250494197117E+01
  0.250494197117E+01  0.250494197117E+01  0.250494197117E+01  0.250494197117E+01  0.250494197117E+01  0.250494197117E+01  0.250494197117E+01
  0.250494197117E+01  0.250494197117E+01  0.250494197117E+01  0.250494197117E+01  0.250494197117E+01  0.250494197117E+01  0.250494197117E+01
  0.250494197117E+01  0.250494197117E+01  0.250494197117E+01  0.250494197117E+01  0.250494197117E+01  0.250494197117E+01  0.250494197117E+01
  0.250494197117E+01  0.250494197117E+01  0.250494197117E+01  0.250494197117E+01  0.250494197117E+01
  0.135649900494E-03  0.110129816467E-03  0.966887303890E-04  0.101756752009E+01  0.908094589218E+00  0.103942505801E-03  0.722629083213E+00
  0.125000000000E+01  0.188965661746E+01  0.191862696980E+01  0.176708239098E+01  0.803813859866E-04  0.969652551954E+00  0.250000000000E+01
  0.285339433501E+01  0.293325058812E+01  0.205656223819E+01  0.293157016932E+01  0.125000000000E+01  0.375000000000E+01  0.363766838842E+01
  0.396069444983E+01  0.407056385475E+01  0.250000000000E+01  0.307031995245E+01  0.397359820314E+01  0.500000000000E+01  0.375000000000E+01
  0.500000000000E+01  0.433260781310E+01  0.500000000000E+01  0.500000000000E+01  0.500000000000E+01
  0.000000000000E+00  0.000000000000E+00  0.000000000000E+00  0.444961626928E+00  0.402838316190E+00  0.000000000000E+00  0.379029001549E+00
  0.508827846411E+00  0.575719767468E+00  0.573484231916E+00  0.562571091033E+00  0.000000000000E+00  0.491643474339E+00  0.534340493553E+00
  0.556353506125E+00  0.564141623675E+00  0.522489639030E+00  0.521815314100E+00  0.440672136512E+00  0.517132480923E+00  0.524064820256E+00
  0.503612613683E+00  0.509416634110E+00  0.469886789982E+00  0.495646532245E+00  0.494503101969E+00  0.488630053423E+00  0.489035017215E+00
  0.492985464012E+00  0.498953669977E+00  0.486505314975E+00  0.484610387305E+00  0.495364848064E+00
  0.999989345567E+00  0.999989414891E+00  0.999989632591E+00  0.981375695393E+00  0.988672653297E+00  0.999989832933E+00  0.982271891095E+00
  0.984075644303E+00  0.990406052732E+00  0.990320090376E+00  0.994390331428E+00  0.999990300362E+00  0.988743428079E+00  0.100365390733E+01
  0.999774597300E+00  0.100117529834E+01  0.100830077599E+01  0.100251293722E+01  0.102982970104E+01  0.100442054131E+01  0.100199281310E+01
  0.100081994749E+01  0.100137956774E+01  0.100825795511E+01  0.100297377722E+01  0.100191712118E+01  0.100214790177E+01  0.100354817652E+01
  0.100047567419E+01  0.100056574043E+01  0.100126719373E+01  0.100066769089E+01  0.100178625606E+01
 -0.170696780939E-02  0.132207098543E-02 -0.282319814624E-02  0.156157645458E-01  0.610978512530E-01  0.384271911481E-02  0.607949817588E-01
 -0.967038351059E-02 -0.492433189331E-02 -0.609281629751E-02  0.101025527416E-01  0.610129923211E-02  0.411699539847E-01 -0.462840409618E-02
 -0.535308342745E-02 -0.380336337499E-02  0.118122449374E-02 -0.517337283944E-02  0.306716106235E-01 -0.315202917324E-02 -0.230353518537E-02
 -0.315301299444E-02 -0.240355617217E-02 -0.164995248822E-02 -0.450961514682E-02 -0.833683372623E-02 -0.256245148043E-01 -0.931134384671E-02
 -0.298751388252E-02 -0.367456420369E-02 -0.239580416001E-01 -0.129989983770E-01 -0.339852405882E-01
 -0.395706375189E-03 -0.383848318544E-03  0.702864381154E-03  0.442188960457E-02  0.844024571529E-02 -0.799463922085E-03  0.752240678154E-02
  0.158570834914E-02 -0.850342447674E-04  0.835479248442E-03  0.183789325051E-03  0.239193327068E-03  0.310158472511E-02  0.121100861873E-02
 -0.766596860017E-04  0.632353597884E-03 -0.114683435762E-02 -0.543420199842E-03  0.444690398268E-02  0.772751442916E-03  0.668048133367E-03
  0.362296837261E-03  0.780343585410E-03 -0.782603191083E-03 -0.105759982708E-02 -0.104813600998E-02 -0.454526566344E-02 -0.204919605586E-02
  0.271633104882E-03  0.430051218999E-03 -0.371580940129E-02 -0.129185096274E-02 -0.697903121187E-02
 -0.747356301537E-04  0.397315438805E-04  0.956353283667E-04 -0.296472223290E-03 -0.858454514877E-03  0.335336086283E-03 -0.127837820219E-04
  0.190251300685E-05 -0.958302749321E-04  0.160419381839E-04 -0.808274813027E-04  0.405817013830E-03  0.465368245266E-03  0.352475359033E-04
 -0.404503459799E-05  0.485518927787E-05 -0.158968074570E-03 -0.597025643644E-04  0.128356928213E-03  0.197179186293E-04  0.966534891836E-05
  0.428264679439E-04  0.767429865345E-06 -0.133078976145E-04 -0.361591558125E-04  0.121955584952E-04  0.171304915493E-04 -0.287138094315E-05
  0.691913432719E-05 -0.250032990433E-06  0.391636228588E-05 -0.101222743521E-05  0.332386563810E-05
 -0.462498246593E-03 -0.866064421089E-03 -0.242260647026E-03  0.654618282652E-03  0.104382872942E-02 -0.834678373586E-03  0.330680328249E-03
  0.374351332319E-03  0.191563528260E-02  0.929875309487E-03  0.277649581430E-02 -0.147369373222E-02  0.912458118245E-03  0.371744568913E-03
  0.986686446487E-03  0.826358488957E-03  0.233921775221E-02  0.105018211234E-02 -0.134232842599E-02  0.329609220003E-03  0.949354444563E-03
  0.981439910947E-03  0.710057364765E-03  0.155237099104E-02  0.151209461003E-02  0.101233619525E-02  0.727848779508E-03  0.128763660601E-02
  0.350540760871E-03  0.922613889626E-03  0.882361349896E-03  0.804643227718E-03  0.461658998371E-03
  0.706470113932E-02  0.301234404073E-02  0.132765211772E-02 -0.812540872784E-02 -0.264541833121E-01  0.190755533958E-03 -0.255324627072E-01
  0.246326728118E-02  0.152867514306E-02  0.157349615893E-02 -0.394621570156E-02 -0.487347767026E-02 -0.162213645596E-01  0.871128915628E-03
  0.169074160821E-02  0.862120608929E-03 -0.353966076180E-03  0.179123004612E-02 -0.126325489267E-01  0.618591538896E-03  0.381131309908E-03
  0.812845953469E-03  0.391873473129E-03  0.663711704775E-03  0.165145867285E-02  0.313655177359E-02  0.103597311967E-01  0.375539611675E-02
  0.846625038884E-03  0.970824197591E-03  0.950677383887E-02  0.486632875082E-02  0.141084867171E-01
        15         9        16        16
        15        18        11        11
        22        15        21        21
        11         5         9         9
         5         7         2         2
        11         9        15        15
        16        21        15        15
        16        10        14        14
        18        17        11        11
        17        25        24        24
        22        18        15        15
        22        30        31        31
        30        21        23        23
        16        20        23        23
        22        27        26        26
        10         9         4         4
         7        11        13        13
        25        18        26        26
        11         7         5         5
         5         1         4         4
        17        19        13        13
        23        32        30        30
        23        20        29        29
         4         9         5         5
         4         8        10        10
        26        18        22        22
        26        28        25        25
        13        11        17        17
        13         6         7         7
        31        30        32        32
         2         1         5         5
         2         7         6         6
        14        10         8         8
        24        19        17        17
        24        25        28        28
         9        10        16        16
         3         4         1         1
        33        26        27        27
        12        13        19        19
        21        30        22        22
        16        14        20        20
        16        23        21        21
        22        31        27        27
        18        25        17        17
        26        33        28        28
         4         3         8         8
        23        29        32        32
        13        12         6         6
zone t="boundary 4 bc-4", solutiontime= 0.9000000E+02, strandid=1004, i=32, j=46, f=feblock
  0.125000000000E+01  0.219251206392E+01  0.103724302461E+01  0.500000000000E+01  0.250000000000E+01  0.375000000000E+01  0.404200324774E+01
  0.500000000000E+01  0.000000000000E+00  0.310152362409E+01  0.202479342020E+01  0.324151231464E+01  0.922061490191E+00  0.000000000000E+00
  0.299062775774E+01  0.394624082883E+01  0.500000000000E+01  0.409252726285E+01  0.500000000000E+01  0.429310310915E+01  0.175434191980E+01
  0.284428995242E+01  0.000000000000E+00  0.000000000000E+00  0.715990576545E+00  0.930412228790E+00  0.125000000000E+01  0.187029682677E+01
  0.500000000000E+01  0.375000000000E+01  0.250000000000E+01  0.000000000000E+00
  0.250494197117E+01  0.157686156160E+01  0.146289271009E+01  0.250494197117E+01  0.250494197117E+01  0.250494197117E+01  0.155830813274E+01
  0.125000000000E+01  0.250494197117E+01  0.177790177481E+01  0.477386199275E+00  0.742988685424E+00  0.308372018325E+00  0.125000000000E+01
 -0.487811078581E+00 -0.144524380962E+01 -0.125000000000E+01 -0.345533899378E+00  0.000000000000E+00  0.627766083140E+00 -0.739814786992E+00
 -0.158811787973E+01  0.000000000000E+00 -0.125000000000E+01 -0.600232012419E+00 -0.154800130438E+01 -0.249658903664E+01 -0.178862290564E+01
 -0.249658903664E+01 -0.249658903664E+01 -0.249658903664E+01 -0.249658903664E+01
  0.500000000000E+01  0.500000000000E+01  0.500000000000E+01  0.500000000000E+01  0.500000000000E+01  0.500000000000E+01  0.500000000000E+01
  0.500000000000E+01  0.500000000000E+01  0.500000000000E+01  0.500000000000E+01  0.500000000000E+01  0.500000000000E+01  0.500000000000E+01
  0.500000000000E+01  0.500000000000E+01  0.500000000000E+01  0.500000000000E+01  0.500000000000E+01  0.500000000000E+01  0.500000000000E+01
  0.500000000000E+01  0.500000000000E+01  0.500000000000E+01  0.500000000000E+01  0.500000000000E+01  0.500000000000E+01  0.500000000000E+01
  0.500000000000E+01  0.500000000000E+01  0.500000000000E+01  0.500000000000E+01
  0.488630053423E+00  0.488907200673E+00  0.490613524454E+00  0.492985464012E+00  0.486505314975E+00  0.484610387305E+00  0.485346346417E+00
  0.494164094826E+00  0.495364848064E+00  0.486544301825E+00  0.487826539497E+00  0.487053944491E+00  0.494057895498E+00  0.496127940578E+00
  0.487590739712E+00  0.483169495133E+00  0.492384717662E+00  0.487198320547E+00  0.494738341209E+00  0.487947262281E+00  0.489650836219E+00
  0.487975047811E+00  0.497248366859E+00  0.496055083747E+00  0.494947818077E+00  0.492777844524E+00  0.489959820989E+00  0.489963118744E+00
  0.491323935798E+00  0.486019442841E+00  0.489980976742E+00  0.495089980244E+00
  0.100214790177E+01  0.100152376261E+01  0.100177920363E+01  0.100047567419E+01  0.100126719373E+01  0.100066769089E+01  0.100025509248E+01
  0.100050308878E+01  0.100178625606E+01  0.100112381228E+01  0.100132857256E+01  0.100072299640E+01  0.100164084009E+01  0.100168369530E+01
  0.100096380429E+01  0.100001109262E+01  0.100083219162E+01  0.100022379580E+01  0.100062130449E+01  0.100023379273E+01  0.100174737467E+01
  0.100099023681E+01  0.100118721261E+01  0.100134451878E+01  0.100132726122E+01  0.100179980273E+01  0.100192626091E+01  0.100163810987E+01
  0.100045827286E+01  0.100058947226E+01  0.100110091494E+01  0.100176433139E+01
 -0.256245148043E-01 -0.248591199287E-01 -0.255304624206E-01 -0.298751388252E-02 -0.239580416001E-01 -0.129989983770E-01 -0.903607574972E-02
 -0.297344858052E-02 -0.339852405882E-01 -0.199239759517E-01 -0.267203004401E-01 -0.187255428077E-01 -0.311246159903E-01 -0.351890939443E-01
 -0.211045816203E-01 -0.870183009063E-02 -0.336852039758E-02 -0.110807153157E-01 -0.276169308501E-02 -0.110691221756E-01 -0.328852466012E-01
 -0.198616239394E-01 -0.387855910085E-01 -0.342302824000E-01 -0.360581885270E-01 -0.289171087330E-01 -0.289373546295E-01 -0.306010681163E-01
 -0.345683964628E-02 -0.132315415433E-01 -0.254248108627E-01 -0.321706553674E-01