# vtk DataFile Version 2.0
FUN3D:global_image_vtk
ASCII
DATASET UNSTRUCTURED_GRID
POINTS 216 double
    0.0000000000000000E+00    0.0000000000000000E+00    0.5000000000000000E+01
    0.0000000000000000E+00    0.0000000000000000E+00    0.3750000000000000E+01
    0.0000000000000000E+00    0.0000000000000000E+00    0.2500000000000000E+01
    0.0000000000000000E+00    0.0000000000000000E+00    0.1250000000000000E+01
    0.0000000000000000E+00    0.0000000000000000E+00    0.0000000000000000E+00
    0.1250000000000000E+01    0.0000000000000000E+00    0.0000000000000000E+00
    0.2500000000000000E+01    0.0000000000000000E+00    0.0000000000000000E+00
    0.3750000000000000E+01    0.0000000000000000E+00    0.0000000000000000E+00
    0.5000000000000000E+01    0.0000000000000000E+00    0.0000000000000000E+00
    0.5000000000000000E+01    0.0000000000000000E+00    0.1250000000000000E+01
    0.5000000000000000E+01    0.0000000000000000E+00    0.2500000000000000E+01
    0.5000000000000000E+01    0.0000000000000000E+00    0.3750000000000000E+01
    0.5000000000000000E+01    0.0000000000000000E+00    0.5000000000000000E+01
    0.3750000000000000E+01    0.0000000000000000E+00    0.5000000000000000E+01
    0.2500000000000000E+01    0.0000000000000000E+00    0.5000000000000000E+01
    0.1250000000000000E+01    0.0000000000000000E+00    0.5000000000000000E+01
    0.8087673404641089E+00    0.0000000000000000E+00    0.3046700411233810E+01
    0.7886107149397936E+00    0.0000000000000000E+00    0.1981265415950838E+01
    0.9272772293302283E+00    0.0000000000000000E+00    0.4070287583796232E+01
    0.4070226081761783E+01    0.0000000000000000E+00    0.9540325619275125E+00
    0.9224700799661973E+00    0.0000000000000000E+00    0.9463046427831353E+00
    0.4085981138224748E+01    0.0000000000000000E+00    0.4069983725354533E+01
    0.1559757281943150E+01    0.0000000000000000E+00    0.1635607059547088E+01
    0.2482905500262050E+01    0.0000000000000000E+00    0.1885385149929012E+01
    0.1660890649526405E+01    0.0000000000000000E+00    0.2508737357811018E+01
    0.1598111783087740E+01    0.0000000000000000E+00    0.3356656815401915E+01
    0.2519516809901736E+01    0.0000000000000000E+00    0.3120482633132017E+01
    0.2000153144652849E+01    0.0000000000000000E+00    0.4127941526767214E+01
    0.3039222624309763E+01    0.0000000000000000E+00    0.8728843884554416E+00
    0.1943909465021303E+01    0.0000000000000000E+00    0.8563427312614358E+00
    0.4181134289965387E+01    0.0000000000000000E+00    0.3039806936459394E+01
    0.3427857139900839E+01    0.0000000000000000E+00    0.1608316206941619E+01
    0.4204276726360096E+01    0.0000000000000000E+00    0.1992994776168015E+01
    0.3029173563817358E+01    0.0000000000000000E+00    0.4119574277282996E+01
    0.3439265668129285E+01    0.0000000000000000E+00    0.3362878032445769E+01
    0.3359002465395521E+01    0.0000000000000000E+00    0.2495945761348561E+01
    0.0000000000000000E+00   -0.1000000000000000E+01    0.5000000000000000E+01
    0.0000000000000000E+00   -0.1000000000000000E+01    0.3750000000000000E+01
    0.0000000000000000E+00   -0.1000000000000000E+01    0.2500000000000000E+01
    0.0000000000000000E+00   -0.1000000000000000E+01    0.1250000000000000E+01
    0.0000000000000000E+00   -0.1000000000000000E+01    0.0000000000000000E+00
    0.1250000000000000E+01   -0.1000000000000000E+01    0.0000000000000000E+00
    0.2500000000000000E+01   -0.1000000000000000E+01    0.0000000000000000E+00
    0.3750000000000000E+01   -0.1000000000000000E+01    0.0000000000000000E+00
    0.5000000000000000E+01   -0.1000000000000000E+01    0.0000000000000000E+00
    0.5000000000000000E+01   -0.1000000000000000E+01    0.1250000000000000E+01
    0.5000000000000000E+01   -0.1000000000000000E+01    0.2500000000000000E+01
    0.5000000000000000E+01   -0.1000000000000000E+01    0.3750000000000000E+01
    0.5000000000000000E+01   -0.1000000000000000E+01    0.5000000000000000E+01
    0.3750000000000000E+01   -0.1000000000000000E+01    0.5000000000000000E+01
    0.2500000000000000E+01   -0.1000000000000000E+01    0.5000000000000000E+01
    0.1250000000000000E+01   -0.1000000000000000E+01    0.5000000000000000E+01
    0.8087673404641089E+00   -0.1000000000000000E+01    0.3046700411233810E+01
    0.7886107149397936E+00   -0.1000000000000000E+01    0.1981265415950838E+01
    0.9272772293302283E+00   -0.1000000000000000E+01    0.4070287583796232E+01
    0.4070226081761783E+01   -0.1000000000000000E+01    0.9540325619275125E+00
    0.9224700799661973E+00   -0.1000000000000000E+01    0.9463046427831353E+00
    0.4085981138224748E+01   -0.1000000000000000E+01    0.4069983725354533E+01
    0.1559757281943150E+01   -0.1000000000000000E+01    0.1635607059547088E+01
    0.2482905500262050E+01   -0.1000000000000000E+01    0.1885385149929012E+01
    0.1660890649526405E+01   -0.1000000000000000E+01    0.2508737357811018E+01
    0.1598111783087740E+01   -0.1000000000000000E+01    0.3356656815401915E+01
    0.2519516809901736E+01   -0.1000000000000000E+01    0.3120482633132017E+01
    0.2000153144652849E+01   -0.1000000000000000E+01    0.4127941526767214E+01
    0.3039222624309763E+01   -0.1000000000000000E+01    0.8728843884554416E+00
    0.1943909465021303E+01   -0.1000000000000000E+01    0.8563427312614358E+00
    0.4181134289965387E+01   -0.1000000000000000E+01    0.3039806936459394E+01
    0.3427857139900839E+01   -0.1000000000000000E+01    0.1608316206941619E+01
    0.4204276726360096E+01   -0.1000000000000000E+01    0.1992994776168015E+01
    0.3029173563817358E+01   -0.1000000000000000E+01    0.4119574277282996E+01
    0.3439265668129285E+01   -0.1000000000000000E+01    0.3362878032445769E+01
    0.3359002465395521E+01   -0.1000000000000000E+01    0.2495945761348561E+01
    0.0000000000000000E+00   -0.2000000000000000E+01    0.5000000000000000E+01
    0.0000000000000000E+00   -0.2000000000000000E+01    0.3750000000000000E+01
    0.0000000000000000E+00   -0.2000000000000000E+01    0.2500000000000000E+01
    0.0000000000000000E+00   -0.2000000000000000E+01    0.1250000000000000E+01
    0.0000000000000000E+00   -0.2000000000000000E+01    0.0000000000000000E+00
    0.1250000000000000E+01   -0.2000000000000000E+01    0.0000000000000000E+00
    0.2500000000000000E+01   -0.2000000000000000E+01    0.0000000000000000E+00
    0.3750000000000000E+01   -0.2000000000000000E+01    0.0000000000000000E+00
    0.5000000000000000E+01   -0.2000000000000000E+01    0.0000000000000000E+00
    0.5000000000000000E+01   -0.2000000000000000E+01    0.1250000000000000E+01
    0.5000000000000000E+01   -0.2000000000000000E+01    0.2500000000000000E+01
    0.5000000000000000E+01   -0.2000000000000000E+01    0.3750000000000000E+01
    0.5000000000000000E+01   -0.2000000000000000E+01    0.5000000000000000E+01
    0.3750000000000000E+01   -0.2000000000000000E+01    0.5000000000000000E+01
    0.2500000000000000E+01   -0.2000000000000000E+01    0.5000000000000000E+01
    0.1250000000000000E+01   -0.2000000000000000E+01    0.5000000000000000E+01
    0.8087673404641089E+00   -0.2000000000000000E+01    0.3046700411233810E+01
    0.7886107149397936E+00   -0.2000000000000000E+01    0.1981265415950838E+01
    0.9272772293302283E+00   -0.2000000000000000E+01    0.4070287583796232E+01
    0.4070226081761783E+01   -0.2000000000000000E+01    0.9540325619275125E+00
    0.9224700799661973E+00   -0.2000000000000000E+01    0.9463046427831353E+00
    0.4085981138224748E+01   -0.2000000000000000E+01    0.4069983725354533E+01
    0.1559757281943150E+01   -0.2000000000000000E+01    0.1635607059547088E+01
    0.2482905500262050E+01   -0.2000000000000000E+01    0.1885385149929012E+01
    0.1660890649526405E+01   -0.2000000000000000E+01    0.2508737357811018E+01
    0.1598111783087740E+01   -0.2000000000000000E+01    0.3356656815401915E+01
    0.2519516809901736E+01   -0.2000000000000000E+01    0.3120482633132017E+01
    0.2000153144652849E+01   -0.2000000000000000E+01    0.4127941526767214E+01
    0.3039222624309763E+01   -0.2000000000000000E+01    0.8728843884554416E+00
    0.1943909465021303E+01   -0.2000000000000000E+01    0.8563427312614358E+00
    0.4181134289965387E+01   -0.2000000000000000E+01    0.3039806936459394E+01
    0.3427857139900839E+01   -0.2000000000000000E+01    0.1608316206941619E+01
    0.4204276726360096E+01   -0.2000000000000000E+01    0.1992994776168015E+01
    0.3029173563817358E+01   -0.2000000000000000E+01    0.4119574277282996E+01
    0.3439265668129285E+01   -0.2000000000000000E+01    0.3362878032445769E+01
    0.3359002465395521E+01   -0.2000000000000000E+01    0.2495945761348561E+01
    0.0000000000000000E+00   -0.3000000000000000E+01    0.5000000000000000E+01
    0.0000000000000000E+00   -0.3000000000000000E+01    0.3750000000000000E+01
    0.0000000000000000E+00   -0.3000000000000000E+01    0.2500000000000000E+01
    0.0000000000000000E+00   -0.3000000000000000E+01    0.1250000000000000E+01
    0.0000000000000000E+00   -0.3000000000000000E+01    0.0000000000000000E+00
    0.1250000000000000E+01   -0.3000000000000000E+01    0.0000000000000000E+00
    0.2500000000000000E+01   -0.3000000000000000E+01    0.0000000000000000E+00
    0.3750000000000000E+01   -0.3000000000000000E+01    0.0000000000000000E+00
    0.5000000000000000E+01   -0.3000000000000000E+01    0.0000000000000000E+00
    0.5000000000000000E+01   -0.3000000000000000E+01    0.1250000000000000E+01
    0.5000000000000000E+01   -0.3000000000000000E+01    0.2500000000000000E+01
    0.5000000000000000E+01   -0.3000000000000000E+01    0.3750000000000000E+01
    0.5000000000000000E+01   -0.3000000000000000E+01    0.5000000000000000E+01
    0.3750000000000000E+01   -0.3000000000000000E+01    0.5000000000000000E+01
    0.2500000000000000E+01   -0.3000000000000000E+01    0.5000000000000000E+01
    0.1250000000000000E+01   -0.3000000000000000E+01    0.5000000000000000E+01
    0.8087673404641089E+00   -0.3000000000000000E+01    0.3046700411233810E+01
[...]
POINT_DATA 216
SCALARS rho double 1
LOOKUP_TABLE default
   0.1005655800960967E+01
   0.1004462866224689E+01
   0.1036098942989785E+01
   0.1006468243360332E+01
   0.1513468319173798E+01
   0.8891891100624820E+00
   0.9589379740064045E+00
   0.9812908161850173E+00
   0.8228362864006902E+00
   0.9921134853219384E+00
   0.1015835125330520E+01
   0.1003400166243426E+01
   0.1003957065752588E+01
   0.1003282494482440E+01
   0.1004138045526357E+01
   0.1000452043001357E+01
   0.1009167785440359E+01
   0.1005208369666976E+01
   0.1005663671358746E+01
   0.1026004398645099E+01
   0.1013006553087599E+01
   0.1003896708927861E+01
   0.1027611567175991E+01
   0.9984994970021946E+00
   0.9871916156307123E+00
   0.1015092369866657E+01
   0.9986675025317501E+00
   0.1006431588804630E+01
   0.9964890475755971E+00
   0.1021623232372337E+01
   0.1002311436273913E+01
   0.9844510564481180E+00
   0.9974425491993385E+00
   0.1005842627153257E+01
   0.9990446933557707E+00
   0.1000060458126307E+01
   0.1005633715997577E+01
   0.1004371279794952E+01
   0.1035865618857121E+01
   0.1005782076140571E+01
   0.1513125076576719E+01
   0.8889524162729889E+00
   0.9587205625595360E+00
   0.9810708714543108E+00
   0.8231652099957050E+00
   0.9937431280443134E+00
   0.1016356497364349E+01
   0.1003383930325477E+01
   0.1003929994755250E+01
   0.1003202836250527E+01
   0.1004062153813336E+01
   0.1000383024682784E+01
   0.1009069678402706E+01
   0.1004901049188222E+01
   0.1005583103840050E+01
   0.1027077550855753E+01
   0.1012795697019251E+01
   0.1003883305403488E+01
   0.1027527569016501E+01
   0.9984647534634483E+00
   0.9869685811920483E+00
   0.1015029936838786E+01
   0.9986153985662923E+00
   0.1006367074438519E+01
   0.9967621809060080E+00
   0.1022254511654365E+01
   0.1002347427909059E+01
   0.9844681594481782E+00
   0.9977891864054125E+00
   0.1005780053028764E+01
   0.9990399256131214E+00
   0.1000095764234252E+01
   0.1005641505848952E+01
   0.1004388287646542E+01
   0.1035895910672765E+01
   0.1005790255592910E+01
   0.1513118087549336E+01
   0.8889765610763198E+00
   0.9587966784259303E+00
   0.9811094918873886E+00
   0.8233091274117558E+00
   0.9937044252121066E+00
   0.1016342748463110E+01
   0.1003387075732050E+01
   0.1003946719909999E+01
   0.1003236804164199E+01
   0.1004096917994801E+01
   0.1000408338021007E+01
   0.1009110337372346E+01
   0.1004965298095357E+01
   0.1005612478899520E+01
   0.1027111790659489E+01
   0.1012920936884181E+01
   0.1003904825254921E+01
   0.1027616453927207E+01
   0.9985041597329117E+00
   0.9870253622736526E+00
   0.1015071377967981E+01
   0.9986565789992884E+00
   0.1006402085540300E+01
   0.9968192418954351E+00
   0.1022281173210297E+01
   0.1002362626866248E+01
   0.9845351401640966E+00
   0.9978332869848794E+00
   0.1005815313189581E+01
   0.9990680082524890E+00
   0.1000114528864528E+01
   0.1005641516509434E+01
   0.1004388295353390E+01
   0.1035895898134702E+01
   0.1005790256968882E+01
   0.1513118085130417E+01
   0.8889765665130059E+00
   0.9587966924253352E+00
   0.9811094911360195E+00
   0.8233090937447459E+00
   0.9937044416006896E+00
   0.1016342785214708E+01
   0.1003387063616372E+01
   0.1003946703004255E+01
   0.1003236846538405E+01
   0.1004096914241473E+01
   0.1000408319939987E+01
   0.1009110343274593E+01
   0.1004965308339689E+01
   0.1005612469681895E+01
   0.1027111798757619E+01
   0.1012920935335226E+01
   0.1003904827949629E+01
   0.1027616466825924E+01
   0.9985041552725250E+00
   0.9870253739833477E+00
   0.1015071366449419E+01
   0.9986565796500381E+00
   0.1006402087109751E+01
   0.9968192506642255E+00
   0.1022281172679571E+01
   0.1002362640762195E+01
   0.9845351327669448E+00
   0.9978332908491367E+00
   0.1005815334277252E+01
   0.9990680233903900E+00
   0.1000114515905094E+01
   0.1005633704781425E+01
   0.1004371272089989E+01
   0.1035865633420309E+01
   0.1005782074211284E+01
   0.1513125061397659E+01
   0.8889524647736828E+00
   0.9587205708189346E+00
   0.9810708731322322E+00
   0.8231652464115460E+00
   0.9937431076345077E+00
   0.1016356456288543E+01
   0.1003383943857846E+01
   0.1003930012506248E+01
   0.1003202794303558E+01
   0.1004062157284771E+01
   0.1000383041880325E+01
   0.1009069672994705E+01
   0.1004901041230114E+01
   0.1005583113703173E+01
   0.1027077543686449E+01
   0.1012795696216807E+01
   0.1003883306329873E+01
   0.1027527552938144E+01
   0.9984647528145942E+00
   0.9869685700145376E+00
   0.1015029947931449E+01
   0.9986153952426936E+00
   0.1006367074169235E+01
   0.9967621734802252E+00
   0.1022254520080309E+01
   0.1002347408203139E+01
   0.9844681661368271E+00
   0.9977891782185002E+00
   0.1005780035023817E+01
   0.9990399061500190E+00
   0.1000095765562773E+01
   0.1005655811032879E+01
   0.1004462875267816E+01
   0.1036098936173027E+01
   0.1006468244388768E+01
   0.1513468271096319E+01
   0.8891891835667975E+00
   0.9589380223851927E+00
   0.9812908236194997E+00
   0.8228362901853965E+00
   0.9921134979724042E+00
   0.1015835143925603E+01
   0.1003400151169241E+01
   0.1003957051103658E+01
   0.1003282539721293E+01
   0.1004138042325793E+01
   0.1000452022136190E+01
   0.1009167792995247E+01
   0.1005208383104530E+01
   0.1005663663320665E+01
   0.1026004422573996E+01
   0.1013006550693372E+01
   0.1003896718165072E+01
   0.1027611569312034E+01
   0.9984994874284171E+00
   0.9871916216175747E+00
   0.1015092357021255E+01
   0.9986674992407685E+00
   0.1006431592928745E+01
   0.9964890632695881E+00
   0.1021623249648367E+01
   0.1002311433462264E+01
   0.9844510517515515E+00
   0.9974425357225335E+00
   0.1005842654793465E+01
   0.9990447013706121E+00
   0.1000060426173007E+01
SCALARS u double 1
LOOKUP_TABLE default
   0.4951439918506929E+00
   0.4952088559184152E+00
   0.4663545307331216E+00
   0.4860537181353271E+00
   0.0000000000000000E+00
   0.0000000000000000E+00
   0.0000000000000000E+00
   0.0000000000000000E+00
   0.0000000000000000E+00
   0.4891211550167450E+00
   0.5266441279121460E+00
   0.5042402622029519E+00
   0.4934929424674028E+00
   0.4939652961814137E+00
   0.4919406520801650E+00
   0.4961933633511524E+00
   0.4952220871018728E+00
   0.5019474367606827E+00
   0.4942296922743130E+00
   0.4396614904476850E+00
   0.5521289379271700E+00
   0.4934802811394748E+00
   0.5635550026583922E+00
   0.5880679602192962E+00
   0.5241086911743053E+00
   0.4946875572813939E+00
   0.5099473189853988E+00
   0.4951244458616987E+00
   0.3886225318748980E+00
   0.4242189382969243E+00
   0.5254403114255065E+00
   0.5549542594472066E+00
   0.5761407204368869E+00
   0.4953575314954314E+00
   0.5068057356307291E+00
   0.5634078471256697E+00
   0.4951749520806810E+00
   0.4953039003954069E+00
   0.4665518443384414E+00
   0.4858736787726625E+00
   0.0000000000000000E+00
   0.0000000000000000E+00
   0.0000000000000000E+00
   0.0000000000000000E+00
   0.0000000000000000E+00
   0.4904211856994806E+00
   0.5273092899482285E+00
   0.5039566392979611E+00
   0.4934772388380737E+00
   0.4942302283815133E+00
   0.4921567285720513E+00
   0.4962754086053534E+00
   0.4953425820238627E+00
   0.5021335961051933E+00
   0.4943427931964444E+00
   0.4421051391846437E+00
   0.5539750671439549E+00
   0.4932376867233987E+00
   0.5652376279638983E+00
   0.5902845435060514E+00
   0.5239668844057354E+00
   0.4947620665423809E+00
   0.5096107031077806E+00
   0.4952430422948741E+00
   0.3898855294488273E+00
   0.4259793536238148E+00
   0.5251180355219416E+00
   0.5582914266110061E+00
   0.5785891772936841E+00
   0.4952977810468415E+00
   0.5063906180231992E+00
   0.5641919790459733E+00
   0.4951653444964035E+00
   0.4952867940250474E+00
   0.4665217380690436E+00
   0.4858256093362703E+00
   0.0000000000000000E+00
   0.0000000000000000E+00
   0.0000000000000000E+00
   0.0000000000000000E+00
   0.0000000000000000E+00
   0.4905127816534353E+00
   0.5273661463598572E+00
   0.5039697178755417E+00
   0.4934641040469114E+00
   0.4941648113423585E+00
   0.4920894773822069E+00
   0.4962330883071355E+00
   0.4952773624846182E+00
   0.5020156731760306E+00
   0.4942988952129440E+00
   0.4421717633902494E+00
   0.5538873215732697E+00
   0.4932069808549432E+00
   0.5651772973372942E+00
   0.5902677247426715E+00
   0.5238803708809966E+00
   0.4946925515006572E+00
   0.5095590598648535E+00
   0.4951818100681561E+00
   0.3899342928628315E+00
   0.4260297932125424E+00
   0.5251164278667777E+00
   0.5582866120213857E+00
   0.5786321129579387E+00
   0.4952410653593497E+00
   0.5063619827557605E+00
   0.5641671946530754E+00
   0.4951653306573337E+00
   0.4952867909672371E+00
   0.4665217482819416E+00
   0.4858256105027546E+00
   0.0000000000000000E+00
   0.0000000000000000E+00
   0.0000000000000000E+00
   0.0000000000000000E+00
   0.0000000000000000E+00
   0.4905127371738103E+00
   0.5273661427775654E+00
   0.5039697422957724E+00
   0.4934641122259735E+00
   0.4941648069421477E+00
   0.4920894724231237E+00
   0.4962331237641174E+00
   0.4952773641704220E+00
   0.5020156710671387E+00
   0.4942988873970594E+00
   0.4421717034998676E+00
   0.5538873103410588E+00
   0.4932069351523660E+00
   0.5651772837118663E+00
   0.5902676942889716E+00
   0.5238803455515068E+00
   0.4946925260035669E+00
   0.5095590465119961E+00
   0.4951818300293938E+00
   0.3899342768072132E+00
   0.4260297838414230E+00
   0.5251164771155037E+00
   0.5582865881442814E+00
   0.5786321259048078E+00
   0.4952410389157575E+00
   0.5063619861982575E+00
   0.5641672127229260E+00
   0.4951749660026087E+00
   0.4953039045015228E+00
   0.4665518365089882E+00
   0.4858736740094529E+00
   0.0000000000000000E+00
   0.0000000000000000E+00
   0.0000000000000000E+00
   0.0000000000000000E+00
   0.0000000000000000E+00
   0.4904212405584238E+00
   0.5273092917266963E+00
   0.5039566133092530E+00
   0.4934772308748033E+00
   0.4942302384798301E+00
   0.4921567319510087E+00
   0.4962753747837520E+00
   0.4953425796074938E+00
   0.5021336007074083E+00
   0.4943427995066379E+00
   0.4421052029809419E+00
   0.5539750751818101E+00
   0.4932377233999363E+00
   0.5652376273890676E+00
   0.5902845749313910E+00
   0.5239669144226776E+00
   0.4947620872452217E+00
   0.5096107230496820E+00
   0.4952430205513885E+00
   0.3898855311236963E+00
   0.4259793609482701E+00
   0.5251179903302565E+00
   0.5582914548811133E+00
   0.5785891568980439E+00
   0.4952978011283450E+00
   0.5063906129344493E+00
   0.5641919767010678E+00
   0.4951439754308327E+00
   0.4952088550446638E+00
   0.4663545427788628E+00
   0.4860537074052302E+00
   0.0000000000000000E+00
   0.0000000000000000E+00
   0.0000000000000000E+00
   0.0000000000000000E+00
   0.0000000000000000E+00
   0.4891211512310958E+00
   0.5266441223865119E+00
   0.5042402839968736E+00
   0.4934929613556989E+00
   0.4939653184046238E+00
   0.4919406529331924E+00
   0.4961934067437361E+00
   0.4952220877570675E+00
   0.5019474493590862E+00
   0.4942296844640705E+00
   0.4396614366654052E+00
   0.5521289260107596E+00
   0.4934802313466524E+00
   0.5635549703361628E+00
   0.5880679359754025E+00
   0.5241086930676619E+00
   0.4946875277589223E+00
   0.5099473248786993E+00
   0.4951244667764600E+00
   0.3886224709352291E+00
   0.4242189204208041E+00
   0.5254403788963145E+00
   0.5549542403176210E+00
   0.5761407384113502E+00
   0.4953574929276580E+00
   0.5068057432101845E+00
   0.5634079128983663E+00
SCALARS v double 1
LOOKUP_TABLE default
   0.0000000000000000E+00
   0.0000000000000000E+00
   0.0000000000000000E+00
   0.0000000000000000E+00
   0.0000000000000000E+00
   0.0000000000000000E+00
   0.0000000000000000E+00
   0.0000000000000000E+00
   0.0000000000000000E+00
   0.0000000000000000E+00
   0.0000000000000000E+00
   0.0000000000000000E+00
   0.0000000000000000E+00
   0.0000000000000000E+00
   0.0000000000000000E+00
   0.0000000000000000E+00
   0.0000000000000000E+00
   0.0000000000000000E+00
   0.0000000000000000E+00
   0.0000000000000000E+00
   0.0000000000000000E+00
   0.0000000000000000E+00
   0.0000000000000000E+00
   0.0000000000000000E+00
   0.0000000000000000E+00
   0.0000000000000000E+00
   0.0000000000000000E+00
   0.0000000000000000E+00
   0.0000000000000000E+00
   0.0000000000000000E+00
   0.0000000000000000E+00
   0.0000000000000000E+00
   0.0000000000000000E+00
   0.0000000000000000E+00
   0.0000000000000000E+00
   0.0000000000000000E+00
   0.9167494007114709E-05
  -0.9654589772095438E-05
  -0.4423967980866481E-04
  -0.2065394676078935E-03
   0.0000000000000000E+00
   0.0000000000000000E+00
   0.0000000000000000E+00
   0.0000000000000000E+00
   0.0000000000000000E+00
   0.7480669447541559E-03
   0.2949720810280448E-03
  -0.3973418130655553E-04
  -0.3774480120423129E-04
  -0.5579705993459766E-04
  -0.4144544692379082E-04
  -0.3387349171574014E-04
  -0.7549745230192301E-04
  -0.2250416516209505E-03
  -0.4073549694364298E-04
   0.9733962711000834E-04
  -0.4185355061138683E-03
  -0.4450818528988098E-04
  -0.2976494497144677E-03
  -0.1594145001965343E-03
  -0.2416617734030330E-03
  -0.7815577808281115E-04
  -0.1279143494870458E-03
  -0.4625459822088056E-04
  -0.1343092894605459E-03
   0.9192682361506081E-04
  -0.4711155011616585E-04
  -0.2247443946067286E-03
   0.2517262822762742E-04
  -0.6479389024673019E-04
  -0.7164055763606552E-04
  -0.5516855915260060E-04
   0.4360631968838171E-05
   0.3983014484503440E-05
   0.1239144554732733E-04
  -0.4589773505363415E-05
   0.0000000000000000E+00
   0.0000000000000000E+00
   0.0000000000000000E+00
   0.0000000000000000E+00
   0.0000000000000000E+00
   0.9432809174046960E-04
   0.2591457860437196E-04
  -0.5707777493272187E-05
   0.5733199124090431E-05
   0.1566134824628699E-04
   0.1950124342488209E-04
   0.1041249350668534E-04
   0.1663319121414582E-04
  -0.3620888803518628E-05
   0.1142413799395529E-04
   0.1332148466310454E-04
  -0.4375923237212097E-04
   0.7486276606498755E-05
  -0.5143368527135020E-04
  -0.3587133596105344E-04
  -0.2164331577000848E-04
   0.1615125652038422E-04
  -0.7577726149516933E-05
   0.1756759663805698E-04
  -0.4941119174618245E-05
   0.1055267122925323E-04
  -0.1289599643781160E-04
  -0.4128184890634366E-04
  -0.2017569617638359E-04
   0.1243467499875275E-04
  -0.1330308516035032E-05
  -0.1855380102604439E-04
  -0.4361148427086044E-05
  -0.3983680278420287E-05
  -0.1238995178406102E-04
   0.4590534780014538E-05
   0.0000000000000000E+00
   0.0000000000000000E+00
   0.0000000000000000E+00
   0.0000000000000000E+00
   0.0000000000000000E+00
  -0.9433088408368481E-04
  -0.2592265345027837E-04
   0.5709946140921299E-05
  -0.5732710648946018E-05
  -0.1566947273035282E-04
  -0.1950363266901783E-04
  -0.1041352410288049E-04
  -0.1663219645896835E-04
   0.3621892656131830E-05
  -0.1142324540457762E-04
  -0.1332095764520825E-04
   0.4375275753665654E-04
  -0.7479876926215139E-05
   0.5143342151208792E-04
   0.3587012726297419E-04
   0.2164869699068314E-04
  -0.1615272270263819E-04
   0.7580236327833556E-05
  -0.1756844473297761E-04
   0.4945384234052258E-05
  -0.1055368715669832E-04
   0.1288586058640062E-04
   0.4128473863831477E-04
   0.2017140002576378E-04
  -0.1243135136406034E-04
   0.1330156874510778E-05
   0.1854175747693138E-04
  -0.9167490591053745E-05
   0.9653038190353062E-05
   0.4423973395679462E-04
   0.2065364621679281E-03
   0.0000000000000000E+00
   0.0000000000000000E+00
   0.0000000000000000E+00
   0.0000000000000000E+00
   0.0000000000000000E+00
  -0.7480648220106788E-03
  -0.2949722256813144E-03
   0.3974081230936596E-04
   0.3774363507069299E-04
   0.5578562701216976E-04
   0.4144156000797437E-04
   0.3387233750269730E-04
   0.7549639000194838E-04
   0.2250419519311267E-03
   0.4073461848996790E-04
  -0.9734397238470903E-04
   0.4185242476054178E-03
   0.4451166862362968E-04
   0.2976529473407263E-03
   0.1594151022752601E-03
   0.2416717456271613E-03
   0.7815190602033100E-04
   0.1279166769454546E-03
   0.4625120544222331E-04
   0.1343125635099124E-03
  -0.9192937164781247E-04
   0.4710668571369465E-04
   0.2247446537935809E-03
  -0.2517436561720792E-04
   0.6479399478069052E-04
   0.7163951569644287E-04
   0.5515748627442702E-04
   0.0000000000000000E+00
   0.0000000000000000E+00
   0.0000000000000000E+00
   0.0000000000000000E+00
   0.0000000000000000E+00
   0.0000000000000000E+00
   0.0000000000000000E+00
   0.0000000000000000E+00
   0.0000000000000000E+00
   0.0000000000000000E+00
   0.0000000000000000E+00
   0.0000000000000000E+00
   0.0000000000000000E+00
   0.0000000000000000E+00
   0.0000000000000000E+00
   0.0000000000000000E+00
   0.0000000000000000E+00
   0.0000000000000000E+00
   0.0000000000000000E+00
   0.0000000000000000E+00
   0.0000000000000000E+00
   0.0000000000000000E+00
   0.0000000000000000E+00
   0.0000000000000000E+00
   0.0000000000000000E+00
   0.0000000000000000E+00
   0.0000000000000000E+00
   0.0000000000000000E+00
   0.0000000000000000E+00
   0.0000000000000000E+00
   0.0000000000000000E+00
   0.0000000000000000E+00
   0.0000000000000000E+00
   0.0000000000000000E+00
   0.0000000000000000E+00
   0.0000000000000000E+00
SCALARS w double 1
LOOKUP_TABLE default
   0.3549328923210206E-04
   0.9781136559681041E-03
   0.2623675376798372E-02
   0.7270383922438986E-01
   0.0000000000000000E+00
   0.0000000000000000E+00
   0.0000000000000000E+00
   0.0000000000000000E+00
   0.0000000000000000E+00
  -0.7190719849709364E-01
  -0.9351392268821338E-02
   0.1177067134674363E-01
   0.2330069730276514E-02
   0.5142192073490951E-02
   0.7423270947011582E-02
   0.8299372697079798E-02
   0.1145562611958915E-01
   0.1862400798827660E-01
   0.4461518053774713E-02
  -0.3055109117861020E-01
   0.1279940474115145E+00
   0.3785495816754084E-02
   0.4741260205705796E-01
   0.2941622333999444E-01
   0.2727074487963740E-01
   0.6483602284488354E-02
   0.1128694711553483E-01
   0.8771900180172907E-02
   0.7580591557020100E-02
   0.6097829049490393E-02
   0.7832702586735983E-02
   0.1233853050194484E-01
  -0.2043428708088325E-02
   0.5641925298728249E-02
   0.5645979737387307E-02
   0.6089284950559792E-02
   0.1301071776601778E-04
   0.1008671453505232E-02
   0.2580415481777635E-02
   0.7204548274063108E-01
   0.0000000000000000E+00
   0.0000000000000000E+00
   0.0000000000000000E+00
   0.0000000000000000E+00
   0.0000000000000000E+00
  -0.7147877547764310E-01
  -0.8853917561369544E-02
   0.1176244030566490E-01
   0.2248929570771929E-02
   0.5136202489976891E-02
   0.7393432144911985E-02
   0.8265335523173984E-02
   0.1122736677459555E-01
   0.1787981305023250E-01
   0.4379105400652485E-02
  -0.3131565004461193E-01
   0.1278885371593738E+00
   0.3560080992681557E-02
   0.4690141911312805E-01
   0.2908250373219935E-01
   0.2656300081529369E-01
   0.6130980361754058E-02
   0.1075826475011707E-01
   0.8654498284449794E-02
   0.7596487631405868E-02
   0.6151122775596804E-02
   0.7575257955754376E-02
   0.1214196224731859E-01
  -0.2252203260928801E-02
   0.5437337235676634E-02
   0.5259155372247410E-02
   0.5611253884381369E-02
   0.1896171220041066E-04
   0.1003456373204089E-02
   0.2569634907738263E-02
   0.7204932146113216E-01
   0.0000000000000000E+00
   0.0000000000000000E+00
   0.0000000000000000E+00
   0.0000000000000000E+00
   0.0000000000000000E+00
  -0.7143386308766783E-01
  -0.8809801669242754E-02
   0.1181688226538757E-01
   0.2271466042370527E-02
   0.5163126287033942E-02
   0.7426143973786545E-02
   0.8288151759401263E-02
   0.1125549577084905E-01
   0.1791210364191823E-01
   0.4399524463399425E-02
  -0.3132351070801925E-01
   0.1278374691385749E+00
   0.3620303133005909E-02
   0.4690259586286871E-01
   0.2908503512745451E-01
   0.2663834660601749E-01
   0.6195946382633141E-02
   0.1083465100581715E-01
   0.8706154551097883E-02
   0.7545661607987542E-02
   0.6088747406307733E-02
   0.7651318655894014E-02
   0.1213024003432063E-01
  -0.2226559197094065E-02
   0.5501086210359231E-02
   0.5329355180664072E-02
   0.5670496969002999E-02
   0.1896082844031337E-04
   0.1003443815666780E-02
   0.2569631808434134E-02
   0.7204932244588934E-01
   0.0000000000000000E+00
   0.0000000000000000E+00