# vtk DataFile Version 2.0
FUN3D:global_image_vtk
ASCII
DATASET UNSTRUCTURED_GRID
POINTS 216 double
    0.0000000000000000E+00    0.0000000000000000E+00    0.5000000000000000E+01
    0.0000000000000000E+00    0.0000000000000000E+00    0.3750000000000000E+01
    0.0000000000000000E+00    0.0000000000000000E+00    0.2500000000000000E+01
    0.0000000000000000E+00    0.0000000000000000E+00    0.1250000000000000E+01
    0.0000000000000000E+00    0.0000000000000000E+00    0.0000000000000000E+00
    0.1250000000000000E+01    0.0000000000000000E+00    0.0000000000000000E+00
    0.2500000000000000E+01    0.0000000000000000E+00    0.0000000000000000E+00
    0.3750000000000000E+01    0.0000000000000000E+00    0.0000000000000000E+00
    0.5000000000000000E+01    0.0000000000000000E+00    0.0000000000000000E+00
    0.5000000000000000E+01    0.0000000000000000E+00    0.1250000000000000E+01
    0.5000000000000000E+01    0.0000000000000000E+00    0.2500000000000000E+01
    0.5000000000000000E+01    0.0000000000000000E+00    0.3750000000000000E+01
    0.5000000000000000E+01    0.0000000000000000E+00    0.5000000000000000E+01
    0.3750000000000000E+01    0.0000000000000000E+00    0.5000000000000000E+01
    0.2500000000000000E+01    0.0000000000000000E+00    0.5000000000000000E+01
    0.1250000000000000E+01    0.0000000000000000E+00    0.5000000000000000E+01
    0.8087673404641089E+00    0.0000000000000000E+00    0.3046700411233810E+01
    0.7886107149397936E+00    0.0000000000000000E+00    0.1981265415950838E+01
    0.9272772293302283E+00    0.0000000000000000E+00    0.4070287583796232E+01
    0.4070226081761783E+01    0.0000000000000000E+00    0.9540325619275125E+00
    0.9224700799661973E+00    0.0000000000000000E+00    0.9463046427831353E+00
    0.4085981138224748E+01    0.0000000000000000E+00    0.4069983725354533E+01
    0.1559757281943150E+01    0.0000000000000000E+00    0.1635607059547088E+01
    0.2482905500262050E+01    0.0000000000000000E+00    0.1885385149929012E+01
    0.1660890649526405E+01    0.0000000000000000E+00    0.2508737357811018E+01
    0.1598111783087740E+01    0.0000000000000000E+00    0.3356656815401915E+01
    0.2519516809901736E+01    0.0000000000000000E+00    0.3120482633132017E+01
    0.2000153144652849E+01    0.0000000000000000E+00    0.4127941526767214E+01
    0.3039222624309763E+01    0.0000000000000000E+00    0.8728843884554416E+00
    0.1943909465021303E+01    0.0000000000000000E+00    0.8563427312614358E+00
    0.4181134289965387E+01    0.0000000000000000E+00    0.3039806936459394E+01
    0.3427857139900839E+01    0.0000000000000000E+00    0.1608316206941619E+01
    0.4204276726360096E+01    0.0000000000000000E+00    0.1992994776168015E+01
    0.3029173563817358E+01    0.0000000000000000E+00    0.4119574277282996E+01
    0.3439265668129285E+01    0.0000000000000000E+00    0.3362878032445769E+01
    0.3359002465395521E+01    0.0000000000000000E+00    0.2495945761348561E+01
    0.0000000000000000E+00   -0.1000000000000000E+01    0.5000000000000000E+01
    0.0000000000000000E+00   -0.1000000000000000E+01    0.3750000000000000E+01
    0.0000000000000000E+00   -0.1000000000000000E+01    0.2500000000000000E+01
    0.0000000000000000E+00   -0.1000000000000000E+01    0.1250000000000000E+01
    0.0000000000000000E+00   -0.1000000000000000E+01    0.0000000000000000E+00
    0.1250000000000000E+01   -0.1000000000000000E+01    0.0000000000000000E+00
    0.2500000000000000E+01   -0.1000000000000000E+01    0.0000000000000000E+00
    0.3750000000000000E+01   -0.1000000000000000E+01    0.0000000000000000E+00
    0.5000000000000000E+01   -0.1000000000000000E+01    0.0000000000000000E+00
    0.5000000000000000E+01   -0.1000000000000000E+01    0.1250000000000000E+01
    0.5000000000000000E+01   -0.1000000000000000E+01    0.2500000000000000E+01
    0.5000000000000000E+01   -0.1000000000000000E+01    0.3750000000000000E+01
    0.5000000000000000E+01   -0.1000000000000000E+01    0.5000000000000000E+01
    0.3750000000000000E+01   -0.1000000000000000E+01    0.5000000000000000E+01
    0.2500000000000000E+01   -0.1000000000000000E+01    0.5000000000000000E+01
    0.1250000000000000E+01   -0.1000000000000000E+01    0.5000000000000000E+01
    0.8087673404641089E+00   -0.1000000000000000E+01    0.3046700411233810E+01
    0.7886107149397936E+00   -0.1000000000000000E+01    0.1981265415950838E+01
    0.9272772293302283E+00   -0.1000000000000000E+01    0.4070287583796232E+01
    0.4070226081761783E+01   -0.1000000000000000E+01    0.9540325619275125E+00
    0.9224700799661973E+00   -0.1000000000000000E+01    0.9463046427831353E+00
    0.4085981138224748E+01   -0.1000000000000000E+01    0.4069983725354533E+01
    0.1559757281943150E+01   -0.1000000000000000E+01    0.1635607059547088E+01
    0.2482905500262050E+01   -0.1000000000000000E+01    0.1885385149929012E+01
    0.1660890649526405E+01   -0.1000000000000000E+01    0.2508737357811018E+01
    0.1598111783087740E+01   -0.1000000000000000E+01    0.3356656815401915E+01
    0.2519516809901736E+01   -0.1000000000000000E+01    0.3120482633132017E+01
    0.2000153144652849E+01   -0.1000000000000000E+01    0.4127941526767214E+01
    0.3039222624309763E+01   -0.1000000000000000E+01    0.8728843884554416E+00
    0.1943909465021303E+01   -0.1000000000000000E+01    0.8563427312614358E+00
    0.4181134289965387E+01   -0.1000000000000000E+01    0.3039806936459394E+01
    0.3427857139900839E+01   -0.1000000000000000E+01    0.1608316206941619E+01
    0.4204276726360096E+01   -0.1000000000000000E+01    0.1992994776168015E+01
    0.3029173563817358E+01   -0.1000000000000000E+01    0.4119574277282996E+01
    0.3439265668129285E+01   -0.1000000000000000E+01    0.3362878032445769E+01
    0.3359002465395521E+01   -0.1000000000000000E+01    0.2495945761348561E+01
    0.0000000000000000E+00   -0.2000000000000000E+01    0.5000000000000000E+01
    0.0000000000000000E+00   -0.2000000000000000E+01    0.3750000000000000E+01
    0.0000000000000000E+00   -0.2000000000000000E+01    0.2500000000000000E+01
    0.0000000000000000E+00   -0.2000000000000000E+01    0.1250000000000000E+01
    0.0000000000000000E+00   -0.2000000000000000E+01    0.0000000000000000E+00
    0.1250000000000000E+01   -0.2000000000000000E+01    0.0000000000000000E+00
    0.2500000000000000E+01   -0.2000000000000000E+01    0.0000000000000000E+00
    0.3750000000000000E+01   -0.2000000000000000E+01    0.0000000000000000E+00
    0.5000000000000000E+01   -0.2000000000000000E+01    0.0000000000000000E+00
    0.5000000000000000E+01   -0.2000000000000000E+01    0.1250000000000000E+01
    0.5000000000000000E+01   -0.2000000000000000E+01    0.2500000000000000E+01
    0.5000000000000000E+01   -0.2000000000000000E+01    0.3750000000000000E+01
    0.5000000000000000E+01   -0.2000000000000000E+01    0.5000000000000000E+01
    0.3750000000000000E+01   -0.2000000000000000E+01    0.5000000000000000E+01
    0.2500000000000000E+01   -0.2000000000000000E+01    0.5000000000000000E+01
    0.1250000000000000E+01   -0.2000000000000000E+01    0.5000000000000000E+01
    0.8087673404641089E+00   -0.2000000000000000E+01    0.3046700411233810E+01
    0.7886107149397936E+00   -0.2000000000000000E+01    0.1981265415950838E+01
    0.9272772293302283E+00   -0.2000000000000000E+01    0.4070287583796232E+01
    0.4070226081761783E+01   -0.2000000000000000E+01    0.9540325619275125E+00
    0.9224700799661973E+00   -0.2000000000000000E+01    0.9463046427831353E+00
    0.4085981138224748E+01   -0.2000000000000000E+01    0.4069983725354533E+01
    0.1559757281943150E+01   -0.2000000000000000E+01    0.1635607059547088E+01
    0.2482905500262050E+01   -0.2000000000000000E+01    0.1885385149929012E+01
    0.1660890649526405E+01   -0.2000000000000000E+01    0.2508737357811018E+01
    0.1598111783087740E+01   -0.2000000000000000E+01    0.3356656815401915E+01
    0.2519516809901736E+01   -0.2000000000000000E+01    0.3120482633132017E+01
    0.2000153144652849E+01   -0.2000000000000000E+01    0.4127941526767214E+01
    0.3039222624309763E+01   -0.2000000000000000E+01    0.8728843884554416E+00
    0.1943909465021303E+01   -0.2000000000000000E+01    0.8563427312614358E+00
    0.4181134289965387E+01   -0.2000000000000000E+01    0.3039806936459394E+01
    0.3427857139900839E+01   -0.2000000000000000E+01    0.1608316206941619E+01
    0.4204276726360096E+01   -0.2000000000000000E+01    0.1992994776168015E+01
    0.3029173563817358E+01   -0.2000000000000000E+01    0.4119574277282996E+01
    0.3439265668129285E+01   -0.2000000000000000E+01    0.3362878032445769E+01
    0.3359002465395521E+01   -0.2000000000000000E+01    0.2495945761348561E+01
    0.0000000000000000E+00   -0.3000000000000000E+01    0.5000000000000000E+01
    0.0000000000000000E+00   -0.3000000000000000E+01    0.3750000000000000E+01
    0.0000000000000000E+00   -0.3000000000000000E+01    0.2500000000000000E+01
    0.0000000000000000E+00   -0.3000000000000000E+01    0.1250000000000000E+01
    0.0000000000000000E+00   -0.3000000000000000E+01    0.0000000000000000E+00
    0.1250000000000000E+01   -0.3000000000000000E+01    0.0000000000000000E+00
    0.2500000000000000E+01   -0.3000000000000000E+01    0.0000000000000000E+00
    0.3750000000000000E+01   -0.3000000000000000E+01    0.0000000000000000E+00
    0.5000000000000000E+01   -0.3000000000000000E+01    0.0000000000000000E+00
    0.5000000000000000E+01   -0.3000000000000000E+01    0.1250000000000000E+01
    0.5000000000000000E+01   -0.3000000000000000E+01    0.2500000000000000E+01
    0.5000000000000000E+01   -0.3000000000000000E+01    0.3750000000000000E+01
    0.5000000000000000E+01   -0.3000000000000000E+01    0.5000000000000000E+01
    0.3750000000000000E+01   -0.3000000000000000E+01    0.5000000000000000E+01
    0.2500000000000000E+01   -0.3000000000000000E+01    0.5000000000000000E+01
    0.1250000000000000E+01   -0.3000000000000000E+01    0.5000000000000000E+01
    0.8087673404641089E+00   -0.3000000000000000E+01    0.3046700411233810E+01
[...]
POINT_DATA 216
SCALARS rho double 1
LOOKUP_TABLE default
   0.1005655646731086E+01
   0.1004462787963277E+01
   0.1036098703580461E+01
   0.1006468382236112E+01
   0.1513468041696757E+01
   0.8891889680560964E+00
   0.9589379451743399E+00
   0.9812908601805759E+00
   0.8228364566676273E+00
   0.9921134114117461E+00
   0.1015834663246509E+01
   0.1003401021468498E+01
   0.1003956617820901E+01
   0.1003282082106639E+01
   0.1004138207533641E+01
   0.1000451977506682E+01
   0.1009167749113913E+01
   0.1005208148376721E+01
   0.1005663576148247E+01
   0.1026004794965749E+01
   0.1013006441033940E+01
   0.1003896809072322E+01
   0.1027611491963222E+01
   0.9984995769291716E+00
   0.9871916972995720E+00
   0.1015092268737510E+01
   0.9986672615260996E+00
   0.1006431205068352E+01
   0.9964886684908225E+00
   0.1021622839052541E+01
   0.1002311551392311E+01
   0.9844511316533591E+00
   0.9974422866173037E+00
   0.1005842622753761E+01
   0.9990446012386801E+00
   0.1000060204092377E+01
   0.1005633399746108E+01
   0.1004371243680247E+01
   0.1035865336948495E+01
   0.1005782132823419E+01
   0.1513124749405167E+01
   0.8889521644119505E+00
   0.9587205703389168E+00
   0.9810710182979933E+00
   0.8231656750952470E+00
   0.9937429119534760E+00
   0.1016356307588908E+01
   0.1003384425701836E+01
   0.1003929095567154E+01
   0.1003202667406958E+01
   0.1004061930234318E+01
   0.1000383173364183E+01
   0.1009069597231126E+01
   0.1004900867186379E+01
   0.1005582910157945E+01
   0.1027077729198034E+01
   0.1012795506652469E+01
   0.1003883076201490E+01
   0.1027527427959711E+01
   0.9984647058816033E+00
   0.9869685882661403E+00
   0.1015029648719683E+01
   0.9986151693329148E+00
   0.1006366751630400E+01
   0.9967618564305828E+00
   0.1022254129481297E+01
   0.1002347666328630E+01
   0.9844681461636974E+00
   0.9977890561018821E+00
   0.1005780221457058E+01
   0.9990398913172592E+00
   0.1000095652608950E+01
   0.1005641286265698E+01
   0.1004388230258831E+01
   0.1035895649084412E+01
   0.1005790372119314E+01
   0.1513117806945970E+01
   0.8889763769064277E+00
   0.9587966403271122E+00
   0.9811095438668259E+00
   0.8233095268177931E+00
   0.9937043131398329E+00
   0.1016342380682471E+01
   0.1003387828237466E+01
   0.1003946071449263E+01
   0.1003236444675183E+01
   0.1004096945885321E+01
   0.1000408351101715E+01
   0.1009110295408569E+01
   0.1004965082260327E+01
   0.1005612337968884E+01
   0.1027112121871428E+01
   0.1012920802916120E+01
   0.1003904821417738E+01
   0.1027616352322353E+01
   0.9985041900679213E+00
   0.9870254405030575E+00
   0.1015071196317986E+01
   0.9986563335040896E+00
   0.1006401712748419E+01
   0.9968188939030971E+00
   0.1022280768636497E+01
   0.1002362791403873E+01
   0.9845352094653786E+00
   0.9978330721090130E+00
   0.1005815397633131E+01
   0.9990679425980237E+00
   0.1000114306988975E+01
   0.1005641286253466E+01
   0.1004388230182994E+01
   0.1035895648715869E+01
   0.1005790372769152E+01
   0.1513117807243797E+01
   0.8889763816472415E+00
   0.9587966385714065E+00
   0.9811095417615284E+00
   0.8233095297191522E+00
   0.9937043138160899E+00
   0.1016342380194853E+01
   0.1003387828671397E+01
   0.1003946071478625E+01
   0.1003236445283976E+01
   0.1004096946053179E+01
   0.1000408351208112E+01
   0.1009110294703394E+01
   0.1004965082793538E+01
   0.1005612337748219E+01
   0.1027112119117970E+01
   0.1012920802444624E+01
   0.1003904821733433E+01
   0.1027616354362665E+01
   0.9985041902107556E+00
   0.9870254415847441E+00
   0.1015071195554291E+01
   0.9986563330229075E+00
   0.1006401712540419E+01
   0.9968188924307173E+00
   0.1022280768609077E+01
   0.1002362792278251E+01
   0.9845352092245538E+00
   0.9978330721160676E+00
   0.1005815397956866E+01
   0.9990679427220174E+00
   0.1000114306371775E+01
   0.1005633399195938E+01
   0.1004371243710552E+01
   0.1035865339294543E+01
   0.1005782131602423E+01
   0.1513124731464883E+01
   0.8889522135578777E+00
   0.9587205943677440E+00
   0.9810710214352538E+00
   0.8231656750117348E+00
   0.9937429072479246E+00
   0.1016356303810762E+01
   0.1003384426710595E+01
   0.1003929096269959E+01
   0.1003202667271874E+01
   0.1004061929939913E+01
   0.1000383172270373E+01
   0.1009069598471483E+01
   0.1004900868935495E+01
   0.1005582910999502E+01
   0.1027077732931512E+01
   0.1012795504765648E+01
   0.1003883079485247E+01
   0.1027527422724280E+01
   0.9984647006395184E+00
   0.9869685877358223E+00
   0.1015029649111251E+01
   0.9986151671017753E+00
   0.1006366753147102E+01
   0.9967618593760695E+00
   0.1022254137458964E+01
   0.1002347659688188E+01
   0.9844681457629607E+00
   0.9977890518042380E+00
   0.1005780224262092E+01
   0.9990398868083750E+00
   0.1000095641550044E+01
   0.1005655646091508E+01
   0.1004462789243004E+01
   0.1036098709001252E+01
   0.1006468382479292E+01
   0.1513467996360478E+01
   0.8891890406663107E+00
   0.9589379778409554E+00
   0.9812908666823074E+00
   0.8228364954939540E+00
   0.9921134081704994E+00
   0.1015834644765920E+01
   0.1003401018869419E+01
   0.1003956620255210E+01
   0.1003282085427087E+01
   0.1004138208062595E+01
   0.1000451974973112E+01
   0.1009167750033948E+01
   0.1005208152082211E+01
   0.1005663577152285E+01
   0.1026004807822744E+01
   0.1013006439706017E+01
   0.1003896815885683E+01
   0.1027611483163323E+01
   0.9984995721909020E+00
   0.9871916925336174E+00
   0.1015092266583959E+01
   0.9986672570887423E+00
   0.1006431207390021E+01
   0.9964886737991363E+00
   0.1021622856956840E+01
   0.1002311535588698E+01
   0.9844511340365020E+00
   0.9974422692299117E+00
   0.1005842629502878E+01
   0.9990445942964452E+00
   0.1000060184714009E+01
SCALARS u double 1
LOOKUP_TABLE default
   0.4951436637449102E+00
   0.4952090971870330E+00
   0.4663546521747542E+00
   0.4860536618949371E+00
   0.0000000000000000E+00
   0.0000000000000000E+00
   0.0000000000000000E+00
   0.0000000000000000E+00
   0.0000000000000000E+00
   0.4891210425529177E+00
   0.5266441522982259E+00
   0.5042399762685978E+00
   0.4934936897154212E+00
   0.4939656274270476E+00
   0.4919422136084822E+00
   0.4961939601769694E+00
   0.4952225074582365E+00
   0.5019475500669893E+00
   0.4942293357755411E+00
   0.4396614776715315E+00
   0.5521289184194049E+00
   0.4934814935542292E+00
   0.5635551196532714E+00
   0.5880682963139425E+00
   0.5241092077242576E+00
   0.4946873416375023E+00
   0.5099467171199593E+00
   0.4951241908436922E+00
   0.3886224401991166E+00
   0.4242187452437363E+00
   0.5254401072591393E+00
   0.5549542883661189E+00
   0.5761401155606543E+00
   0.4953584785769495E+00
   0.5068056690001547E+00
   0.5634072223352724E+00
   0.4951745973579217E+00
   0.4953040774081046E+00
   0.4665519862500065E+00
   0.4858736961424605E+00
   0.0000000000000000E+00
   0.0000000000000000E+00
   0.0000000000000000E+00
   0.0000000000000000E+00
   0.0000000000000000E+00
   0.4904214293243919E+00
   0.5273090580083377E+00
   0.5039569597203659E+00
   0.4934762759971996E+00
   0.4942258992920048E+00
   0.4921575797646782E+00
   0.4962767509201045E+00
   0.4953429864218322E+00
   0.5021337931705597E+00
   0.4943424464069436E+00
   0.4421058774786766E+00
   0.5539750754217664E+00
   0.4932389775783137E+00
   0.5652378405572146E+00
   0.5902849107255873E+00
   0.5239674091409915E+00
   0.4947617845073532E+00
   0.5096103206478481E+00
   0.4952436537085377E+00
   0.3898860581764383E+00
   0.4259794397802318E+00
   0.5251181518060553E+00
   0.5582916928603383E+00
   0.5785882728475638E+00
   0.4952992723030423E+00
   0.5063913087453999E+00
   0.5641912079325504E+00
   0.4951649760336684E+00
   0.4952870044290883E+00
   0.4665218642596018E+00
   0.4858255741352515E+00
   0.0000000000000000E+00
   0.0000000000000000E+00
   0.0000000000000000E+00
   0.0000000000000000E+00
   0.0000000000000000E+00
   0.4905128245250284E+00
   0.5273660449227894E+00
   0.5039697149432976E+00
   0.4934641297698101E+00
   0.4941631270307665E+00
   0.4920909783522380E+00
   0.4962340754979314E+00
   0.4952777934793158E+00
   0.5020158072093495E+00
   0.4942985110438585E+00
   0.4421721597129128E+00
   0.5538872896139519E+00
   0.4932083499731342E+00
   0.5651774307910008E+00
   0.5902681170035973E+00
   0.5238809252133902E+00
   0.4946923050438282E+00
   0.5095584810929819E+00
   0.4951818525761766E+00
   0.3899345162838685E+00
   0.4260296852859611E+00
   0.5251163296554828E+00
   0.5582868470839467E+00
   0.5786313454606385E+00
   0.4952423324325104E+00
   0.5063622002958148E+00
   0.5641664371759384E+00
   0.4951649763064149E+00
   0.4952870040678976E+00
   0.4665218646585473E+00
   0.4858255746592287E+00
   0.0000000000000000E+00
   0.0000000000000000E+00
   0.0000000000000000E+00
   0.0000000000000000E+00
   0.0000000000000000E+00
   0.4905128241215724E+00
   0.5273660420379304E+00
   0.5039697140152153E+00
   0.4934641293332415E+00
   0.4941631240904864E+00
   0.4920909779676272E+00
   0.4962340758475009E+00
   0.4952777938008013E+00
   0.5020158065657749E+00
   0.4942985107223381E+00
   0.4421721564839283E+00
   0.5538872854073494E+00
   0.4932083496689696E+00
   0.5651774279249923E+00
   0.5902681164769589E+00
   0.5238809252602181E+00
   0.4946923064721807E+00
   0.5095584835598633E+00
   0.4951818531777559E+00
   0.3899345117620387E+00
   0.4260296800069938E+00
   0.5251163281155380E+00
   0.5582868457563174E+00
   0.5786313431701924E+00
   0.4952423335550607E+00
   0.5063622009248246E+00
   0.5641664385977725E+00
   0.4951745971806892E+00
   0.4953040788616612E+00
   0.4665519882487276E+00
   0.4858736920484039E+00
   0.0000000000000000E+00
   0.0000000000000000E+00
   0.0000000000000000E+00
   0.0000000000000000E+00
   0.0000000000000000E+00
   0.4904214401465033E+00
   0.5273090588426705E+00
   0.5039569590797603E+00
   0.4934762767407476E+00
   0.4942259079235107E+00
   0.4921575787187913E+00
   0.4962767521569172E+00
   0.4953429853901948E+00
   0.5021337963444727E+00
   0.4943424451890213E+00
   0.4421058849848316E+00
   0.5539750764027700E+00
   0.4932389689680076E+00
   0.5652378292902202E+00
   0.5902849121132221E+00
   0.5239674138629067E+00
   0.4947617782526800E+00
   0.5096103246972811E+00
   0.4952436512088254E+00
   0.3898860484646716E+00
   0.4259794429284622E+00
   0.5251181573259774E+00
   0.5582916983602243E+00
   0.5785882673139419E+00
   0.4952992648912478E+00
   0.5063913064319188E+00
   0.5641912219054737E+00
   0.4951436614220198E+00
   0.4952090989661158E+00
   0.4663546543785403E+00
   0.4860536506430553E+00
   0.0000000000000000E+00
   0.0000000000000000E+00
   0.0000000000000000E+00
   0.0000000000000000E+00
   0.0000000000000000E+00
   0.4891210826145888E+00
   0.5266441478688140E+00
   0.5042399724831484E+00
   0.4934936999855665E+00
   0.4939656517479457E+00
   0.4919422191334569E+00
   0.4961939682835269E+00
   0.4952225067774949E+00
   0.5019475641335251E+00
   0.4942293354631124E+00
   0.4396614792016001E+00
   0.5521289135887456E+00
   0.4934814889518358E+00
   0.5635550978568908E+00
   0.5880683020565712E+00
   0.5241092348196131E+00
   0.4946873391481707E+00
   0.5099467387591825E+00
   0.4951241925241508E+00
   0.3886223909013486E+00
   0.4242187320742554E+00
   0.5254401236253299E+00
   0.5549542927149895E+00
   0.5761401196775892E+00
   0.4953584676069904E+00
   0.5068056734807835E+00
   0.5634072716985875E+00
SCALARS v double 1
LOOKUP_TABLE default
   0.0000000000000000E+00
   0.0000000000000000E+00
   0.0000000000000000E+00
   0.0000000000000000E+00
   0.0000000000000000E+00
   0.0000000000000000E+00
   0.0000000000000000E+00
   0.0000000000000000E+00
   0.0000000000000000E+00
   0.0000000000000000E+00
   0.0000000000000000E+00
   0.0000000000000000E+00
   0.0000000000000000E+00
   0.0000000000000000E+00
   0.0000000000000000E+00
   0.0000000000000000E+00
   0.0000000000000000E+00
   0.0000000000000000E+00
   0.0000000000000000E+00
   0.0000000000000000E+00
   0.0000000000000000E+00
   0.0000000000000000E+00
   0.0000000000000000E+00
   0.0000000000000000E+00
   0.0000000000000000E+00
   0.0000000000000000E+00
   0.0000000000000000E+00
   0.0000000000000000E+00
   0.0000000000000000E+00
   0.0000000000000000E+00
   0.0000000000000000E+00
   0.0000000000000000E+00
   0.0000000000000000E+00
   0.0000000000000000E+00
   0.0000000000000000E+00
   0.0000000000000000E+00
   0.9108075608204503E-05
  -0.9643872767410081E-05
  -0.4424196588023795E-04
  -0.2065348269469174E-03
   0.0000000000000000E+00
   0.0000000000000000E+00
   0.0000000000000000E+00
   0.0000000000000000E+00
   0.0000000000000000E+00
   0.7481159472900560E-03
   0.2949947770928286E-03
  -0.3976779543595791E-04
  -0.3783610794833254E-04
  -0.5559900587129768E-04
  -0.4141794549512098E-04
  -0.3384741296277201E-04
  -0.7550504613315223E-04
  -0.2250485388170131E-03
  -0.4076129687965338E-04
   0.9738546854884739E-04
  -0.4185497927846739E-03
  -0.4447652955462942E-04
  -0.2976771409644727E-03
  -0.1594485137520443E-03
  -0.2416826988545057E-03
  -0.7816219510710879E-04
  -0.1279331317747550E-03
  -0.4631570785522945E-04
  -0.1343620577920390E-03
   0.9187113173453943E-04
  -0.4710503804327906E-04
  -0.2247455157190279E-03
   0.2522537114173135E-04
  -0.6475692851892981E-04
  -0.7164202267883144E-04
  -0.5515674481963674E-04
   0.4398182544231429E-05
   0.3976269459734174E-05
   0.1240500544500911E-04
  -0.4572126062502147E-05
   0.0000000000000000E+00
   0.0000000000000000E+00
   0.0000000000000000E+00
   0.0000000000000000E+00
   0.0000000000000000E+00
   0.9434548446045578E-04
   0.2585071196255934E-04
  -0.5673255782942571E-05
   0.5838267157604805E-05
   0.1543123475090623E-04
   0.1953353760443332E-04
   0.1036041478739947E-04
   0.1661887663022207E-04
  -0.3606856114882866E-05
   0.1146169387729291E-04
   0.1328945430238403E-04
  -0.4372687706612382E-04
   0.7364475904823540E-05
  -0.5141816886678853E-04
  -0.3586501190810097E-04
  -0.2161834153158817E-04
   0.1618570122390576E-04
  -0.7510660893366943E-05
   0.1762779007097076E-04
  -0.4965444559608764E-05
   0.1058426859803779E-04
  -0.1296639623051306E-04
  -0.4130140118132882E-04
  -0.2016795452056787E-04
   0.1234221771261010E-04
  -0.1352084993042962E-05
  -0.1852526811223488E-04
  -0.4398684817727383E-05
  -0.3976949399457703E-05
  -0.1240353635223795E-04
   0.4572908936310012E-05
   0.0000000000000000E+00
   0.0000000000000000E+00
   0.0000000000000000E+00
   0.0000000000000000E+00
   0.0000000000000000E+00
  -0.9434825726534122E-04
  -0.2585892342475942E-04
   0.5675387129163719E-05
  -0.5837687188201418E-05
  -0.1543925025149669E-04
  -0.1953590632694741E-04
  -0.1036149046161466E-04
  -0.1661792472166117E-04
   0.3607861895414129E-05
  -0.1146080250328361E-04
  -0.1328873669171261E-04
   0.4372033827526283E-04
  -0.7358035986048009E-05
   0.5141785774866134E-04
   0.3586372802295609E-04
   0.2162379295457251E-04
  -0.1618712772424327E-04
   0.7513303587352721E-05
  -0.1762867397254742E-04
   0.4969797073501579E-05
  -0.1058541534710008E-04
   0.1295610801939813E-04
   0.4130425345342887E-04
   0.2016354392729143E-04
  -0.1233888100205900E-04
   0.1352021144392562E-05
   0.1851314315713389E-04
  -0.9108038427663852E-05
   0.9642325275783168E-05
   0.4424200919028895E-04
   0.2065318268029012E-03
   0.0000000000000000E+00
   0.0000000000000000E+00
   0.0000000000000000E+00
   0.0000000000000000E+00
   0.0000000000000000E+00
  -0.7481139154971444E-03
  -0.2949949060877286E-03
   0.3977433816010157E-04
   0.3783518417736308E-04
   0.5558772153089412E-04
   0.4141393627654469E-04
   0.3384628895943360E-04
   0.7550399198609011E-04
   0.2250488847607971E-03
   0.4076043198244840E-04
  -0.9738955043572818E-04
   0.4185384372211463E-03
   0.4448004521729685E-04
   0.2976805382726271E-03
   0.1594489178438567E-03
   0.2416926946490729E-03
   0.7815837007469640E-04
   0.1279354499194694E-03
   0.4631228870474194E-04
   0.1343657393708344E-03
  -0.9187378318001325E-04
   0.4710002458830118E-04
   0.2247458224670770E-03
  -0.2522713384197175E-04
   0.6475700604835091E-04
   0.7164092590376471E-04
   0.5514545614480291E-04
   0.0000000000000000E+00
   0.0000000000000000E+00
   0.0000000000000000E+00
   0.0000000000000000E+00
   0.0000000000000000E+00
   0.0000000000000000E+00
   0.0000000000000000E+00
   0.0000000000000000E+00
   0.0000000000000000E+00
   0.0000000000000000E+00
   0.0000000000000000E+00
   0.0000000000000000E+00
   0.0000000000000000E+00
   0.0000000000000000E+00
   0.0000000000000000E+00
   0.0000000000000000E+00
   0.0000000000000000E+00
   0.0000000000000000E+00
   0.0000000000000000E+00
   0.0000000000000000E+00
   0.0000000000000000E+00
   0.0000000000000000E+00
   0.0000000000000000E+00
   0.0000000000000000E+00
   0.0000000000000000E+00
   0.0000000000000000E+00
   0.0000000000000000E+00
   0.0000000000000000E+00
   0.0000000000000000E+00
   0.0000000000000000E+00
   0.0000000000000000E+00
   0.0000000000000000E+00
   0.0000000000000000E+00
   0.0000000000000000E+00
   0.0000000000000000E+00
   0.0000000000000000E+00
SCALARS w double 1
LOOKUP_TABLE default
   0.3561043970461939E-04
   0.9779453618366878E-03
   0.2623872084332074E-02
   0.7270389831175249E-01
   0.0000000000000000E+00
   0.0000000000000000E+00
   0.0000000000000000E+00
   0.0000000000000000E+00
   0.0000000000000000E+00
  -0.7190696703934889E-01
  -0.9351589488609570E-02
   0.1177086339701422E-01
   0.2330950918295304E-02
   0.5142488735656424E-02
   0.7422625869140282E-02
   0.8299103246031609E-02
   0.1145528547273271E-01
   0.1862415236101894E-01
   0.4461704545607238E-02
  -0.3055109158623660E-01
   0.1279940646676690E+00
   0.3785627835614284E-02
   0.4741254941202939E-01
   0.2941604773736909E-01
   0.2727042521808106E-01
   0.6483772560564705E-02
   0.1128748074916998E-01
   0.8772083388066934E-02
   0.7580524948915900E-02
   0.6097861477799600E-02
   0.7832639086361955E-02
   0.1233842754938833E-01
  -0.2043132775901598E-02
   0.5641574134971225E-02
   0.5646214509995557E-02
   0.6089734349562170E-02
   0.1333608789755799E-04
   0.1008608113930685E-02
   0.2580611539619538E-02
   0.7204557915117908E-01
   0.0000000000000000E+00
   0.0000000000000000E+00
   0.0000000000000000E+00
   0.0000000000000000E+00
   0.0000000000000000E+00
  -0.7147836559964145E-01
  -0.8854039931074271E-02
   0.1176274813444366E-01
   0.2249369880550451E-02
   0.5136453845447633E-02
   0.7393859297992912E-02
   0.8264488529928808E-02
   0.1122711009581428E-01
   0.1787998820570065E-01
   0.4379400986670769E-02
  -0.3131562158171908E-01
   0.1278885800651426E+00
   0.3560244773589836E-02
   0.4690134180535360E-01
   0.2908213573826406E-01
   0.2656277495059044E-01
   0.6131268334644224E-02
   0.1075863733802152E-01
   0.8654182936822066E-02
   0.7596282259091426E-02
   0.6151115618554727E-02
   0.7575276914974558E-02
   0.1214161093389155E-01
  -0.2251915671098590E-02
   0.5437022236831211E-02
   0.5259253459786810E-02
   0.5611585468548700E-02
   0.1917989200423769E-04
   0.1003302526822227E-02
   0.2569836747441855E-02
   0.7204940275506468E-01
   0.0000000000000000E+00
   0.0000000000000000E+00
   0.0000000000000000E+00
   0.0000000000000000E+00
   0.0000000000000000E+00
  -0.7143351542704988E-01
  -0.8810003685861299E-02
   0.1181714806952239E-01
   0.2272260215961302E-02
   0.5163447753650104E-02
   0.7425876587269853E-02
   0.8287657316605938E-02
   0.1125518410038231E-01
   0.1791227130940301E-01
   0.4399790308716107E-02
  -0.3132347551064620E-01
   0.1278375058214649E+00
   0.3620476734549714E-02
   0.4690254060358375E-01
   0.2908477866927922E-01
   0.2663805932911202E-01
   0.6196181516178046E-02
   0.1083513375341392E-01
   0.8706157692922290E-02
   0.7545512468634946E-02
   0.6088752425413295E-02
   0.7651257064376135E-02
   0.1213003923618610E-01
  -0.2226268704660680E-02
   0.5500694381493343E-02
   0.5329503101751049E-02
   0.5670911029411693E-02
   0.1917981019364523E-04
   0.1003301792467065E-02
   0.2569835884104191E-02
   0.7204940169208829E-01
   0.0000000000000000E+00
   0.0000000000000000E+00