title="tecplot geometry and solution file"
variables = x y z rho u v w p mach temperature
zone t="boundary 1 bc-1", solutiontime= 0.2000000E+02, strandid=1001, i=42, j=30, f=feblock
  0.000000000000E+00  0.000000000000E+00  0.000000000000E+00  0.000000000000E+00  0.000000000000E+00  0.000000000000E+00  0.000000000000E+00
  0.000000000000E+00  0.000000000000E+00  0.000000000000E+00  0.000000000000E+00  0.000000000000E+00  0.000000000000E+00  0.000000000000E+00
  0.000000000000E+00  0.000000000000E+00  0.000000000000E+00  0.000000000000E+00  0.000000000000E+00  0.000000000000E+00  0.000000000000E+00
  0.000000000000E+00  0.000000000000E+00  0.000000000000E+00  0.000000000000E+00  0.000000000000E+00  0.000000000000E+00  0.000000000000E+00
  0.000000000000E+00  0.000000000000E+00  0.000000000000E+00  0.000000000000E+00  0.000000000000E+00  0.000000000000E+00  0.000000000000E+00
  0.000000000000E+00  0.000000000000E+00  0.000000000000E+00  0.000000000000E+00  0.000000000000E+00  0.000000000000E+00  0.000000000000E+00
  0.000000000000E+00 -0.833333333333E+00  0.000000000000E+00  0.000000000000E+00  0.000000000000E+00 -0.166666666667E+01 -0.833333333333E+00
 -0.833333333333E+00 -0.833333333333E+00  0.000000000000E+00 -0.250000000000E+01 -0.166666666667E+01 -0.166666666667E+01 -0.166666666667E+01
 -0.833333333333E+00  0.000000000000E+00 -0.333333333333E+01 -0.250000000000E+01 -0.250000000000E+01 -0.250000000000E+01 -0.166666666667E+01
 -0.833333333333E+00 -0.416666666667E+01 -0.333333333333E+01 -0.333333333333E+01 -0.333333333333E+01 -0.250000000000E+01 -0.166666666667E+01
 -0.500000000000E+01 -0.416666666667E+01 -0.416666666667E+01 -0.416666666667E+01 -0.333333333333E+01 -0.250000000000E+01 -0.500000000000E+01
 -0.500000000000E+01 -0.500000000000E+01 -0.416666666667E+01 -0.333333333333E+01 -0.500000000000E+01 -0.416666666667E+01 -0.500000000000E+01
  0.500000000000E+01  0.500000000000E+01  0.400000000000E+01  0.200000000000E+01  0.300000000000E+01  0.500000000000E+01  0.400000000000E+01
  0.200000000000E+01  0.300000000000E+01  0.100000000000E+01  0.500000000000E+01  0.400000000000E+01  0.200000000000E+01  0.300000000000E+01
  0.100000000000E+01  0.000000000000E+00  0.500000000000E+01  0.400000000000E+01  0.200000000000E+01  0.300000000000E+01  0.100000000000E+01
  0.000000000000E+00  0.500000000000E+01  0.400000000000E+01  0.200000000000E+01  0.300000000000E+01  0.100000000000E+01  0.000000000000E+00
  0.500000000000E+01  0.400000000000E+01  0.200000000000E+01  0.300000000000E+01  0.100000000000E+01  0.000000000000E+00  0.400000000000E+01
  0.200000000000E+01  0.300000000000E+01  0.100000000000E+01  0.000000000000E+00  0.100000000000E+01  0.000000000000E+00  0.000000000000E+00
  0.100374706921E+01  0.100373092870E+01  0.100533771870E+01  0.103444972749E+01  0.100743030422E+01  0.100374769887E+01  0.100522757214E+01
  0.103410550732E+01  0.100717477259E+01  0.100712787064E+01  0.100373033435E+01  0.100527197271E+01  0.103424578038E+01  0.100723861144E+01
  0.100397665213E+01  0.150255597819E+01  0.100374769873E+01  0.100523703823E+01  0.103413748731E+01  0.100717416605E+01  0.100392744754E+01
  0.150428625633E+01  0.100373093017E+01  0.100527197292E+01  0.103424577951E+01  0.100723861140E+01  0.100374802728E+01  0.150481615566E+01
  0.100374707143E+01  0.100522757291E+01  0.103410552136E+01  0.100717477328E+01  0.100392744580E+01  0.150470617385E+01  0.100533771909E+01
  0.103444973969E+01  0.100743030392E+01  0.100397664573E+01  0.150481615002E+01  0.100712781249E+01  0.150428617273E+01  0.150255576556E+01
  0.495535626143E+00  0.495547399205E+00  0.495099093213E+00  0.468785675509E+00  0.492248393136E+00  0.495532936585E+00  0.495173197191E+00
  0.469288941142E+00  0.492457664439E+00  0.483754449324E+00  0.495552333059E+00  0.495133323308E+00  0.469132939457E+00  0.492394477132E+00
  0.485267646567E+00  0.000000000000E+00  0.495532936629E+00  0.495173117158E+00  0.469267197748E+00  0.492456497118E+00  0.485090209364E+00
  0.000000000000E+00  0.495547397752E+00  0.495133323191E+00  0.469132937845E+00  0.492394477414E+00  0.485263032921E+00  0.000000000000E+00
  0.495535623369E+00  0.495173196066E+00  0.469288952475E+00  0.492457661958E+00  0.485090214201E+00  0.000000000000E+00  0.495099088525E+00
  0.468785730498E+00  0.492248386284E+00  0.485267633014E+00  0.000000000000E+00  0.483754482427E+00  0.000000000000E+00  0.000000000000E+00
  0.000000000000E+00  0.909672390779E-05  0.000000000000E+00  0.000000000000E+00  0.000000000000E+00  0.584809262149E-06 -0.246126157774E-04
 -0.461398284635E-05 -0.393413015535E-04  0.000000000000E+00 -0.299887242342E-09 -0.612966909013E-05  0.622597154259E-04 -0.767706993099E-05
 -0.107786480313E-02  0.000000000000E+00 -0.584582715521E-06  0.904348621545E-09 -0.385503990589E-08  0.111614710346E-08 -0.139043560427E-03
  0.000000000000E+00 -0.909562916218E-05  0.613119635003E-05 -0.622615428131E-04  0.767803398436E-05  0.234222825857E-09  0.000000000000E+00
  0.000000000000E+00  0.246132631894E-04  0.460278634955E-05  0.393422430625E-04  0.139043719779E-03  0.000000000000E+00  0.000000000000E+00
  0.000000000000E+00  0.000000000000E+00  0.107785973106E-02  0.000000000000E+00  0.000000000000E+00  0.000000000000E+00  0.000000000000E+00
  0.190438631970E-02  0.187167111362E-02 -0.929416800250E-03 -0.499634539415E-02  0.356174555841E-02  0.189147905149E-02 -0.931461083728E-03
 -0.522182126354E-02  0.358695162488E-02  0.353650964329E-01  0.188262092203E-02 -0.940098536527E-03 -0.524991444525E-02  0.359056576842E-02
  0.340289935032E-01  0.000000000000E+00  0.189147916838E-02 -0.928377997723E-03 -0.526666163396E-02  0.360775724765E-02  0.341446769670E-01
  0.000000000000E+00  0.187167176474E-02 -0.940099447774E-03 -0.524991896690E-02  0.359056552103E-02  0.341173722862E-01  0.000000000000E+00
  0.190438495311E-02 -0.931458832804E-03 -0.522183837463E-02  0.358695516667E-02  0.341446826592E-01  0.000000000000E+00 -0.929417859205E-03
 -0.499634763062E-02  0.356174595830E-02  0.340290035336E-01  0.000000000000E+00  0.353651508214E-01  0.000000000000E+00  0.000000000000E+00
  0.717888052577E+00  0.717867785987E+00  0.720204801207E+00  0.741604101412E+00  0.722763753813E+00  0.717884959236E+00  0.720107790619E+00
  0.741072984727E+00  0.722529971932E+00  0.744699802865E+00  0.717867516625E+00  0.720152479094E+00  0.741193682527E+00  0.722595496543E+00
  0.742331845804E+00  0.107325427014E+01  0.717884959135E+00  0.720115702183E+00  0.741089008091E+00  0.722529611476E+00  0.742340527667E+00
  0.107449018309E+01  0.717867787551E+00  0.720152479193E+00  0.741193681780E+00  0.722595496238E+00  0.742134565728E+00  0.107486868261E+01
  0.717888054927E+00  0.720107790917E+00  0.741072999092E+00  0.722529970769E+00  0.742340525358E+00  0.107479012418E+01  0.720204800773E+00
  0.741604114471E+00  0.722763749739E+00  0.742331843423E+00  0.107486867859E+01  0.744699748983E+00  0.107449012338E+01  0.107325411826E+01
  0.495219633864E+00  0.495234283517E+00  0.494375409564E+00  0.467954484281E+00  0.491180345892E+00  0.495218118918E+00  0.494455624662E+00
  0.468549113802E+00  0.491406493139E+00  0.476727358648E+00  0.495239201837E+00  0.494411402539E+00  0.468387320082E+00  0.491336761655E+00
  0.478130368836E+00  0.000000000000E+00  0.495218118964E+00  0.494455150264E+00  0.468530087011E+00  0.491405453065E+00  0.477948705962E+00
  0.000000000000E+00  0.495234281891E+00  0.494411402440E+00  0.468387318562E+00  0.491336762029E+00  0.478139851867E+00  0.000000000000E+00
  0.495219630822E+00  0.494455623620E+00  0.468549123945E+00  0.491406491255E+00  0.477948711425E+00  0.000000000000E+00  0.494375405129E+00
  0.467954537831E+00  0.491180340367E+00  0.478130355471E+00  0.000000000000E+00  0.476727398476E+00  0.000000000000E+00  0.000000000000E+00
  0.100129136556E+01  0.100127919908E+01  0.100293334561E+01  0.100366959784E+01  0.100440621162E+01  0.100128642294E+01  0.100290813225E+01
  0.100328464675E+01  0.100433607775E+01  0.103520094558E+01  0.100127941628E+01  0.100292607185E+01  0.100331195469E+01  0.100436349805E+01
  0.103514816000E+01  0.100000000000E+01  0.100128642293E+01  0.100290970658E+01  0.100327531306E+01  0.100433618153E+01  0.103521100183E+01
  0.100000000000E+01  0.100127919979E+01  0.100292607178E+01  0.100331195452E+01  0.100436349767E+01  0.103510877609E+01  0.100000000000E+01
  0.100129136663E+01  0.100290813190E+01  0.100328465258E+01  0.100433607544E+01  0.103521100041E+01  0.100000000000E+01  0.100293334462E+01
  0.100366960367E+01  0.100440620627E+01  0.103514816327E+01  0.100000000000E+01  0.103520093046E+01  0.100000000000E+01  0.100000000000E+01
         2         7         3         1
         7         9         5         3
         9         8         4         5
         8        15        10         4
        15        22        16        10
         6        12         7         2
        12        14         9         7
        14        13         8         9
        13        21        15         8
        21        28        22        15
        11        18        12         6
        18        20        14        12
        20        19        13        14
        19        27        21        13
        27        34        28        21
        17        24        18        11
        24        26        20        18
        26        25        19        20
        25        33        27        19
        33        39        34        27
        23        30        24        17
        30        32        26        24
        32        31        25        26
        31        38        33        25
        38        41        39        33
        29        35        30        23
        35        37        32        30
        37        36        31        32
        36        40        38        31
        40        42        41        38
zone t="boundary 2 bc-2", solutiontime= 0.2000000E+02, strandid=1002, i=50, j=78, f=feblock
  0.500000000000E+01  0.400000000000E+01  0.500000000000E+01  0.432205072469E+01  0.300000000000E+01  0.339985167428E+01  0.500000000000E+01
  0.414352482062E+01  0.200000000000E+01  0.238772260472E+01  0.328766614337E+01  0.253053942594E+01  0.500000000000E+01  0.437470683547E+01
  0.355186041251E+01  0.100000000000E+01  0.148474164412E+01  0.182006405350E+01  0.265208498144E+01  0.158439218620E+01  0.500000000000E+01
  0.421824364393E+01  0.356601661300E+01  0.279151482472E+01  0.000000000000E+00  0.691584087487E+00  0.102677755985E+01  0.203910647352E+01
  0.786163368796E+00  0.130062434092E+01  0.579883387792E+00  0.500000000000E+01  0.439593351493E+01  0.365358382485E+01  0.222719085292E+01
  0.294979435250E+01  0.181898636514E+01  0.000000000000E+00  0.000000000000E+00  0.608717331133E+00  0.956798945949E+00  0.000000000000E+00
  0.400000000000E+01  0.200000000000E+01  0.160059523280E+01  0.300000000000E+01  0.000000000000E+00  0.482256655205E+00  0.100000000000E+01
  0.000000000000E+00
 -0.500000000000E+01 -0.500000000000E+01 -0.500000000000E+01 -0.500000000000E+01 -0.500000000000E+01 -0.500000000000E+01 -0.500000000000E+01
 -0.500000000000E+01 -0.500000000000E+01 -0.500000000000E+01 -0.500000000000E+01 -0.500000000000E+01 -0.500000000000E+01 -0.500000000000E+01
 -0.500000000000E+01 -0.500000000000E+01 -0.500000000000E+01 -0.500000000000E+01 -0.500000000000E+01 -0.500000000000E+01 -0.500000000000E+01
 -0.500000000000E+01 -0.500000000000E+01 -0.500000000000E+01 -0.500000000000E+01 -0.500000000000E+01 -0.500000000000E+01 -0.500000000000E+01
 -0.500000000000E+01 -0.500000000000E+01 -0.500000000000E+01 -0.500000000000E+01 -0.500000000000E+01 -0.500000000000E+01 -0.500000000000E+01
 -0.500000000000E+01 -0.500000000000E+01 -0.500000000000E+01 -0.500000000000E+01 -0.500000000000E+01 -0.500000000000E+01 -0.500000000000E+01
 -0.500000000000E+01 -0.500000000000E+01 -0.500000000000E+01 -0.500000000000E+01 -0.500000000000E+01 -0.500000000000E+01 -0.500000000000E+01
 -0.500000000000E+01
  0.500000000000E+01  0.500000000000E+01  0.400000000000E+01  0.427284776458E+01  0.500000000000E+01  0.409791606955E+01  0.300000000000E+01
  0.334954216394E+01  0.500000000000E+01  0.428961258157E+01  0.317389756208E+01  0.342579600005E+01  0.200000000000E+01  0.245604909385E+01
  0.233993022181E+01  0.500000000000E+01  0.436396516571E+01  0.369973104758E+01  0.256908373316E+01  0.279597472668E+01  0.100000000000E+01
  0.157729503259E+01  0.159701071514E+01  0.152167522831E+01  0.500000000000E+01  0.441213888848E+01  0.370665089386E+01  0.199896920986E+01
  0.224835513052E+01  0.181406525358E+01  0.296809553468E+01  0.000000000000E+00  0.696815730569E+00  0.990157383601E+00  0.787866207738E+00
  0.548147595005E+00  0.128672970530E+01  0.400000000000E+01  0.200000000000E+01  0.160443740745E+01  0.959766653149E+00  0.300000000000E+01
  0.000000000000E+00  0.000000000000E+00  0.606872513237E+00  0.000000000000E+00  0.100000000000E+01  0.486991412371E+00  0.000000000000E+00
  0.000000000000E+00
  0.100231477502E+01  0.100121454955E+01  0.100219924366E+01  0.100315174527E+01  0.100132198702E+01  0.100304118833E+01  0.100510561945E+01
  0.100361185686E+01  0.100495517276E+01  0.100274744210E+01  0.100070585837E+01  0.100435515683E+01  0.101893782463E+01  0.100446933338E+01
  0.996231109474E+00  0.100470604397E+01  0.100421221871E+01  0.100361879253E+01  0.995814190621E+00  0.100965060089E+01  0.982866002375E+00
  0.999191480506E+00  0.100340440546E+01  0.100810922052E+01  0.100374707143E+01  0.100474418566E+01  0.100710267972E+01  0.997450092246E+00
  0.101227265927E+01  0.993320241916E+00  0.100742827630E+01  0.821510381131E+00  0.996059791917E+00  0.984740431452E+00  0.101926003243E+01
  0.100263498414E+01  0.100153796106E+01  0.100533771909E+01  0.103444973969E+01  0.100248766674E+01  0.106776233223E+01  0.100743030392E+01
  0.980196475636E+00  0.983746160000E+00  0.975181730044E+00  0.986113732115E+00  0.100712781249E+01  0.109801508514E+01  0.921974063006E+00
  0.150255576556E+01
  0.500301655024E+00  0.500678272882E+00  0.499274597845E+00  0.497796421244E+00  0.501706176657E+00  0.498338709828E+00  0.512013944336E+00
  0.500290956510E+00  0.495686525967E+00  0.499478941875E+00  0.501676121702E+00  0.498676702556E+00  0.523454062836E+00  0.537429086055E+00
  0.549999141411E+00  0.493591592074E+00  0.495904189369E+00  0.497917753514E+00  0.522636284989E+00  0.493744646784E+00  0.478123735299E+00
  0.569449286030E+00  0.582984202409E+00  0.571282810100E+00  0.495535623369E+00  0.494641790761E+00  0.494009022022E+00  0.547940151236E+00
  0.489025203240E+00  0.538299448971E+00  0.492428017447E+00  0.000000000000E+00  0.399175131802E+00  0.467109480876E+00  0.413885798560E+00
  0.307943310809E+00  0.586046804333E+00  0.495099088525E+00  0.468785730498E+00  0.493450078172E+00  0.532296696505E+00  0.492248386284E+00
  0.000000000000E+00  0.000000000000E+00  0.377888253361E+00  0.000000000000E+00  0.483754482427E+00  0.447023406331E+00  0.000000000000E+00
  0.000000000000E+00
  0.000000000000E+00  0.000000000000E+00  0.000000000000E+00  0.000000000000E+00  0.000000000000E+00  0.000000000000E+00  0.000000000000E+00
  0.000000000000E+00  0.000000000000E+00  0.000000000000E+00  0.000000000000E+00  0.000000000000E+00  0.000000000000E+00  0.000000000000E+00
  0.000000000000E+00  0.000000000000E+00  0.000000000000E+00  0.000000000000E+00  0.000000000000E+00  0.000000000000E+00  0.000000000000E+00
  0.000000000000E+00  0.000000000000E+00  0.000000000000E+00  0.000000000000E+00  0.000000000000E+00  0.000000000000E+00  0.000000000000E+00
  0.000000000000E+00  0.000000000000E+00  0.000000000000E+00  0.000000000000E+00  0.000000000000E+00  0.000000000000E+00  0.000000000000E+00
  0.000000000000E+00  0.000000000000E+00  0.000000000000E+00  0.000000000000E+00  0.000000000000E+00  0.000000000000E+00  0.000000000000E+00
  0.000000000000E+00  0.000000000000E+00  0.000000000000E+00  0.000000000000E+00  0.000000000000E+00  0.000000000000E+00  0.000000000000E+00
  0.000000000000E+00
  0.370527463104E-02  0.533375769193E-02  0.757602544244E-02  0.507166572263E-02  0.493343790471E-02  0.450500839772E-02  0.122397847273E-01
  0.445250940885E-02  0.292313745131E-02  0.540124877144E-02  0.322529740377E-02  0.663799268669E-02 -0.229544107600E-01  0.644602857786E-02
  0.958207192776E-02  0.407419315764E-02  0.565537353830E-02  0.730574276909E-02  0.128020843078E-01  0.104644259382E-01 -0.864153916308E-01
 -0.958785052632E-02  0.703962565695E-02  0.217007222561E-01  0.190438495311E-02  0.376893239855E-02  0.531913676281E-02  0.251092185396E-01
  0.852850576518E-02  0.444190050619E-01  0.598929609232E-02  0.000000000000E+00 -0.434358417784E-01  0.121927568701E-01  0.525828076660E-02
  0.451450651214E-02  0.379115967473E-01 -0.929417859205E-03 -0.499634763062E-02  0.258841352297E-01  0.732680133176E-01  0.356174595830E-02
  0.000000000000E+00  0.000000000000E+00 -0.109755664824E-01  0.000000000000E+00  0.353651508214E-01  0.178953626065E+00  0.000000000000E+00
  0.000000000000E+00
  0.716836684555E+00  0.716622693023E+00  0.716451566797E+00  0.716979535753E+00  0.716441374237E+00  0.716518959733E+00  0.720751606400E+00
  0.718570216212E+00  0.718710858136E+00  0.717824932799E+00  0.715670481310E+00  0.716546004627E+00  0.730381747126E+00  0.719944857759E+00
  0.711847447172E+00  0.718898974509E+00  0.718882473572E+00  0.718336857832E+00  0.714194642482E+00  0.721384032252E+00  0.687255217712E+00
  0.705376241753E+00  0.708088687609E+00  0.712562944104E+00  0.717888054927E+00  0.719387104965E+00  0.721789015556E+00  0.718694464462E+00
  0.723372875280E+00  0.717443459580E+00  0.720628932624E+00  0.586793129379E+00  0.694428013949E+00  0.690348809901E+00  0.715642557844E+00
  0.707558196798E+00  0.697865659214E+00  0.720204800773E+00  0.741604114471E+00  0.738694636447E+00  0.748791469942E+00  0.722763749739E+00
  0.700140339740E+00  0.702675828571E+00  0.681086966573E+00  0.704366951510E+00  0.744699748983E+00  0.724542192895E+00  0.658552902147E+00
  0.107325411826E+01
  0.500002052161E+00  0.500193066578E+00  0.499124700406E+00  0.497668585441E+00  0.501306081195E+00  0.498337869217E+00  0.511157652575E+00
  0.499716994331E+00  0.495389605027E+00  0.498959238557E+00  0.501377749314E+00  0.499016782091E+00  0.523034832885E+00  0.536546183437E+00
  0.549984534179E+00  0.493178465309E+00  0.495388364106E+00  0.497462850716E+00  0.521731014457E+00  0.493785339131E+00  0.491071180992E+00
  0.572883787305E+00  0.586568318193E+00  0.574701615759E+00  0.495219630822E+00  0.494066970094E+00  0.493205348415E+00  0.546132542779E+00
  0.488991041402E+00  0.537136031537E+00  0.492109873647E+00  0.000000000000E+00  0.406428892868E+00  0.471660123623E+00  0.417489898137E+00
  0.309844481239E+00  0.594597268108E+00  0.494375405129E+00  0.467954537831E+00  0.486500091564E+00  0.542278300385E+00  0.491180340367E+00
  0.000000000000E+00  0.000000000000E+00  0.382317318763E+00  0.000000000000E+00  0.476727398476E+00  0.500974818680E+00  0.000000000000E+00
  0.000000000000E+00
  0.100125368137E+01  0.100205472512E+01  0.100083112202E+01  0.100061765809E+01  0.100169369786E+01  0.100008509650E+01  0.100392658188E+01
  0.100237785736E+01  0.100123391438E+01  0.100220141555E+01  0.100123194588E+01  0.998814413064E+00  0.100352977509E+01  0.100343810146E+01
  0.100035666078E+01  0.100174431154E+01  0.100221391878E+01  0.100204540654E+01  0.100407536757E+01  0.100028430060E+01  0.978930294131E+00
  0.988325819145E+00  0.987960743699E+00  0.989563532843E+00  0.100129136663E+01  0.100238643957E+01  0.100337794956E+01  0.100874445556E+01
  0.100044391807E+01  0.101117524946E+01  0.100144152135E+01  0.100000000000E+01  0.976045040085E+00  0.981465067333E+00  0.982967593259E+00
  0.987978168708E+00  0.975511624010E+00  0.100293334462E+01  0.100366960367E+01  0.103160619859E+01  0.981780332831E+00  0.100440620627E+01
  0.100000000000E+01  0.100000000000E+01  0.977788779081E+00  0.100000000000E+01  0.103520093046E+01  0.923811597660E+00  0.100000000000E+01
  0.100000000000E+01
        44        35        36        36
        24        34        36        36
        38        27        31        31
        20        29        31        31
        24        23        34        34
        15        22        23        23
        24        35        37        37
        41        30        37        37
        27        18        20        20
        17        18        27        27
        15        19        11        11
        12         6        11        11
         8         7        14        14
        13        14         7         7
        41        40        30        30
        47        39        40        40
        17         9        10        10
         5        10         9         9
        44        45        35        35
        49        41        45        45
        19        15        24        24
        36        35        24        24
        37        45        41        41
        40        39        29        29
        30        29        20        20
        12        18        10        10
        20        12        19        19
        11         8        15        15
        20        18        12        12
        27        20        31        31
        28        20        19        19
        23        24        15        15
        23        22        34        34
        28        24        37        37
        11        19        12        12
        11         6         8         8
        28        19        24        24
        40        41        47        47
        30        40        29        29
        45        44        49        49
        37        35        45        45
        16        26        25        25
        27        38        26        26
        47        48        50        50
        43        33        32        32
        22        21        33        33
         3         4         1         1
         6         2         4         4
        10         5         6         6
        14        13        22        22
         4         3         8         8
         7         8         3         3
        42        38        31        31
         9        17        16        16
        33        43        34        34
        36        34        43        43
        41        48        47        47
        15         8        14        14
        28        30        20        20
        18        17        10        10
        42        31        39        39
        26        16        17        17
         8         6         4         4
        34        22        33        33
        37        30        28        28
        27        26        17        17
        49        48        41        41
        46        36        43        43
        31        29        39        39
        36        46        44        44
        22        13        21        21
        15        14        22        22
         6         5         2         2
        12        10         6         6
        26        38        25        25
        48        49        50        50
        33        21        32        32
         4         2         1         1
zone t="boundary 3 bc-3", solutiontime= 0.2000000E+02, strandid=1003, i=50, j=78, f=feblock
  0.500000000000E+01  0.400000000000E+01  0.500000000000E+01  0.432205072469E+01  0.300000000000E+01  0.339985167428E+01  0.500000000000E+01
  0.414352482062E+01  0.200000000000E+01  0.238772260472E+01  0.328766614337E+01  0.253053942594E+01  0.500000000000E+01  0.437470683547E+01
  0.355186041251E+01  0.100000000000E+01  0.148474164412E+01  0.182006405350E+01  0.265208498144E+01  0.158439218620E+01  0.500000000000E+01
  0.421824364393E+01  0.356601661300E+01  0.279151482472E+01  0.000000000000E+00  0.691584087487E+00  0.102677755985E+01  0.203910647352E+01
  0.786163368796E+00  0.130062434092E+01  0.579883387792E+00  0.500000000000E+01  0.439593351493E+01  0.365358382485E+01  0.222719085292E+01
  0.294979435250E+01  0.181898636514E+01  0.000000000000E+00  0.000000000000E+00  0.608717331133E+00  0.956798945949E+00  0.000000000000E+00
  0.400000000000E+01  0.200000000000E+01  0.160059523280E+01  0.300000000000E+01  0.000000000000E+00  0.482256655205E+00  0.100000000000E+01
  0.000000000000E+00
  0.000000000000E+00  0.000000000000E+00  0.000000000000E+00  0.000000000000E+00  0.000000000000E+00  0.000000000000E+00  0.000000000000E+00
  0.000000000000E+00  0.000000000000E+00  0.000000000000E+00  0.000000000000E+00  0.000000000000E+00  0.000000000000E+00  0.000000000000E+00
  0.000000000000E+00  0.000000000000E+00  0.000000000000E+00  0.000000000000E+00  0.000000000000E+00  0.000000000000E+00  0.000000000000E+00
  0.000000000000E+00  0.000000000000E+00  0.000000000000E+00  0.000000000000E+00  0.000000000000E+00  0.000000000000E+00  0.000000000000E+00
  0.000000000000E+00  0.000000000000E+00  0.000000000000E+00  0.000000000000E+00  0.000000000000E+00  0.000000000000E+00  0.000000000000E+00
  0.000000000000E+00  0.000000000000E+00  0.000000000000E+00  0.000000000000E+00  0.000000000000E+00  0.000000000000E+00  0.000000000000E+00
  0.000000000000E+00  0.000000000000E+00  0.000000000000E+00  0.000000000000E+00  0.000000000000E+00  0.000000000000E+00  0.000000000000E+00
  0.000000000000E+00
  0.500000000000E+01  0.500000000000E+01  0.400000000000E+01  0.427284776458E+01  0.500000000000E+01  0.409791606955E+01  0.300000000000E+01
  0.334954216394E+01  0.500000000000E+01  0.428961258157E+01  0.317389756208E+01  0.342579600005E+01  0.200000000000E+01  0.245604909385E+01
  0.233993022181E+01  0.500000000000E+01  0.436396516571E+01  0.369973104758E+01  0.256908373316E+01  0.279597472668E+01  0.100000000000E+01
  0.157729503259E+01  0.159701071514E+01  0.152167522831E+01  0.500000000000E+01  0.441213888848E+01  0.370665089386E+01  0.199896920986E+01
  0.224835513052E+01  0.181406525358E+01  0.296809553468E+01  0.000000000000E+00  0.696815730569E+00  0.990157383601E+00  0.787866207738E+00
  0.548147595005E+00  0.128672970530E+01  0.400000000000E+01  0.200000000000E+01  0.160443740745E+01  0.959766653149E+00  0.300000000000E+01
  0.000000000000E+00  0.000000000000E+00  0.606872513237E+00  0.000000000000E+00  0.100000000000E+01  0.486991412371E+00  0.000000000000E+00
  0.000000000000E+00
  0.100231476948E+01  0.100121454804E+01  0.100219925465E+01  0.100315173793E+01  0.100132199771E+01  0.100304118843E+01  0.100510564870E+01
  0.100361186760E+01  0.100495517148E+01  0.100274744664E+01  0.100070585868E+01  0.100435515815E+01  0.101893786198E+01  0.100446935699E+01
  0.996231119399E+00  0.100470604373E+01  0.100421222016E+01  0.100361879085E+01  0.995814209901E+00  0.100965060168E+01  0.982865854826E+00
  0.999191492796E+00  0.100340443645E+01  0.100810927144E+01  0.100374706921E+01  0.100474418470E+01  0.100710267831E+01  0.997450082180E+00
  0.101227263483E+01  0.993320291110E+00  0.100742827240E+01  0.821509846686E+00  0.996059579466E+00  0.984740333237E+00  0.101926000589E+01
  0.100263479306E+01  0.100153797094E+01  0.100533771870E+01  0.103444972749E+01  0.100248769164E+01  0.106776234688E+01  0.100743030422E+01
  0.980196198400E+00  0.983746124076E+00  0.975181682343E+00  0.986113947567E+00  0.100712787064E+01  0.109801505604E+01  0.921973953037E+00
  0.150255597819E+01
  0.500301643866E+00  0.500678244619E+00  0.499274556863E+00  0.497796399756E+00  0.501706137944E+00  0.498338687581E+00  0.512013901362E+00
  0.500290915326E+00  0.495686511588E+00  0.499478941502E+00  0.501676085703E+00  0.498676668325E+00  0.523454048459E+00  0.537429111148E+00
  0.549999103443E+00  0.493591592538E+00  0.495904187439E+00  0.497917741783E+00  0.522636267692E+00  0.493744612865E+00  0.478123702909E+00
  0.569449313286E+00  0.582984089088E+00  0.571282751655E+00  0.495535626143E+00  0.494641795591E+00  0.494009022548E+00  0.547940063935E+00
  0.489025194955E+00  0.538299383464E+00  0.492428011426E+00  0.000000000000E+00  0.399175003819E+00  0.467109487533E+00  0.413885901478E+00
  0.307943402729E+00  0.586046789931E+00  0.495099093213E+00  0.468785675509E+00  0.493450081699E+00  0.532296706056E+00  0.492248393136E+00
  0.000000000000E+00  0.000000000000E+00  0.377888226707E+00  0.000000000000E+00  0.483754449324E+00  0.447023297966E+00  0.000000000000E+00
  0.000000000000E+00
  0.000000000000E+00  0.000000000000E+00  0.000000000000E+00  0.000000000000E+00  0.000000000000E+00  0.000000000000E+00  0.000000000000E+00
  0.000000000000E+00  0.000000000000E+00  0.000000000000E+00  0.000000000000E+00  0.000000000000E+00  0.000000000000E+00  0.000000000000E+00
  0.000000000000E+00  0.000000000000E+00  0.000000000000E+00  0.000000000000E+00  0.000000000000E+00  0.000000000000E+00  0.000000000000E+00
  0.000000000000E+00  0.000000000000E+00  0.000000000000E+00  0.000000000000E+00  0.000000000000E+00  0.000000000000E+00  0.000000000000E+00
  0.000000000000E+00  0.000000000000E+00  0.000000000000E+00  0.000000000000E+00  0.000000000000E+00  0.000000000000E+00  0.000000000000E+00
  0.000000000000E+00  0.000000000000E+00  0.000000000000E+00  0.000000000000E+00  0.000000000000E+00  0.000000000000E+00  0.000000000000E+00
  0.000000000000E+00  0.000000000000E+00  0.000000000000E+00  0.000000000000E+00  0.000000000000E+00  0.000000000000E+00  0.000000000000E+00
  0.000000000000E+00
  0.370526854054E-02  0.533376651224E-02  0.757605953196E-02  0.507167018319E-02  0.493343938014E-02  0.450504099495E-02  0.122398509771E-01
  0.445250343968E-02  0.292313807688E-02  0.540123005648E-02  0.322534640227E-02  0.663797601476E-02 -0.229544573080E-01  0.644609876811E-02
  0.958211468786E-02  0.407419261111E-02  0.565536816381E-02  0.730574290885E-02  0.128020841620E-01  0.104643983851E-01 -0.864154403866E-01
 -0.958774760210E-02  0.703957321594E-02  0.217007933358E-01  0.190438631970E-02  0.376892742261E-02  0.531912776007E-02  0.251092613664E-01