# vtk DataFile Version 2.0
FUN3D:global_image_vtk
ASCII
DATASET UNSTRUCTURED_GRID
POINTS 216 double
    0.0000000000000000E+00    0.0000000000000000E+00    0.5000000000000000E+01
    0.0000000000000000E+00    0.0000000000000000E+00    0.3750000000000000E+01
    0.0000000000000000E+00    0.0000000000000000E+00    0.2500000000000000E+01
    0.0000000000000000E+00    0.0000000000000000E+00    0.1250000000000000E+01
    0.0000000000000000E+00    0.0000000000000000E+00    0.0000000000000000E+00
    0.1250000000000000E+01    0.0000000000000000E+00    0.0000000000000000E+00
    0.2500000000000000E+01    0.0000000000000000E+00    0.0000000000000000E+00
    0.3750000000000000E+01    0.0000000000000000E+00    0.0000000000000000E+00
    0.5000000000000000E+01    0.0000000000000000E+00    0.0000000000000000E+00
    0.5000000000000000E+01    0.0000000000000000E+00    0.1250000000000000E+01
    0.5000000000000000E+01    0.0000000000000000E+00    0.2500000000000000E+01
    0.5000000000000000E+01    0.0000000000000000E+00    0.3750000000000000E+01
    0.5000000000000000E+01    0.0000000000000000E+00    0.5000000000000000E+01
    0.3750000000000000E+01    0.0000000000000000E+00    0.5000000000000000E+01
    0.2500000000000000E+01    0.0000000000000000E+00    0.5000000000000000E+01
    0.1250000000000000E+01    0.0000000000000000E+00    0.5000000000000000E+01
    0.8087673404641089E+00    0.0000000000000000E+00    0.3046700411233810E+01
    0.7886107149397936E+00    0.0000000000000000E+00    0.1981265415950838E+01
    0.9272772293302283E+00    0.0000000000000000E+00    0.4070287583796232E+01
    0.4070226081761783E+01    0.0000000000000000E+00    0.9540325619275125E+00
    0.9224700799661973E+00    0.0000000000000000E+00    0.9463046427831353E+00
    0.4085981138224748E+01    0.0000000000000000E+00    0.4069983725354533E+01
    0.1559757281943150E+01    0.0000000000000000E+00    0.1635607059547088E+01
    0.2482905500262050E+01    0.0000000000000000E+00    0.1885385149929012E+01
    0.1660890649526405E+01    0.0000000000000000E+00    0.2508737357811018E+01
    0.1598111783087740E+01    0.0000000000000000E+00    0.3356656815401915E+01
    0.2519516809901736E+01    0.0000000000000000E+00    0.3120482633132017E+01
    0.2000153144652849E+01    0.0000000000000000E+00    0.4127941526767214E+01
    0.3039222624309763E+01    0.0000000000000000E+00    0.8728843884554416E+00
    0.1943909465021303E+01    0.0000000000000000E+00    0.8563427312614358E+00
    0.4181134289965387E+01    0.0000000000000000E+00    0.3039806936459394E+01
    0.3427857139900839E+01    0.0000000000000000E+00    0.1608316206941619E+01
    0.4204276726360096E+01    0.0000000000000000E+00    0.1992994776168015E+01
    0.3029173563817358E+01    0.0000000000000000E+00    0.4119574277282996E+01
    0.3439265668129285E+01    0.0000000000000000E+00    0.3362878032445769E+01
    0.3359002465395521E+01    0.0000000000000000E+00    0.2495945761348561E+01
    0.0000000000000000E+00   -0.1000000000000000E+01    0.5000000000000000E+01
    0.0000000000000000E+00   -0.1000000000000000E+01    0.3750000000000000E+01
    0.0000000000000000E+00   -0.1000000000000000E+01    0.2500000000000000E+01
    0.0000000000000000E+00   -0.1000000000000000E+01    0.1250000000000000E+01
    0.0000000000000000E+00   -0.1000000000000000E+01    0.0000000000000000E+00
    0.1250000000000000E+01   -0.1000000000000000E+01    0.0000000000000000E+00
    0.2500000000000000E+01   -0.1000000000000000E+01    0.0000000000000000E+00
    0.3750000000000000E+01   -0.1000000000000000E+01    0.0000000000000000E+00
    0.5000000000000000E+01   -0.1000000000000000E+01    0.0000000000000000E+00
    0.5000000000000000E+01   -0.1000000000000000E+01    0.1250000000000000E+01
    0.5000000000000000E+01   -0.1000000000000000E+01    0.2500000000000000E+01
    0.5000000000000000E+01   -0.1000000000000000E+01    0.3750000000000000E+01
    0.5000000000000000E+01   -0.1000000000000000E+01    0.5000000000000000E+01
    0.3750000000000000E+01   -0.1000000000000000E+01    0.5000000000000000E+01
    0.2500000000000000E+01   -0.1000000000000000E+01    0.5000000000000000E+01
    0.1250000000000000E+01   -0.1000000000000000E+01    0.5000000000000000E+01
    0.8087673404641089E+00   -0.1000000000000000E+01    0.3046700411233810E+01
    0.7886107149397936E+00   -0.1000000000000000E+01    0.1981265415950838E+01
    0.9272772293302283E+00   -0.1000000000000000E+01    0.4070287583796232E+01
    0.4070226081761783E+01   -0.1000000000000000E+01    0.9540325619275125E+00
    0.9224700799661973E+00   -0.1000000000000000E+01    0.9463046427831353E+00
    0.4085981138224748E+01   -0.1000000000000000E+01    0.4069983725354533E+01
    0.1559757281943150E+01   -0.1000000000000000E+01    0.1635607059547088E+01
    0.2482905500262050E+01   -0.1000000000000000E+01    0.1885385149929012E+01
    0.1660890649526405E+01   -0.1000000000000000E+01    0.2508737357811018E+01
    0.1598111783087740E+01   -0.1000000000000000E+01    0.3356656815401915E+01
    0.2519516809901736E+01   -0.1000000000000000E+01    0.3120482633132017E+01
    0.2000153144652849E+01   -0.1000000000000000E+01    0.4127941526767214E+01
    0.3039222624309763E+01   -0.1000000000000000E+01    0.8728843884554416E+00
    0.1943909465021303E+01   -0.1000000000000000E+01    0.8563427312614358E+00
    0.4181134289965387E+01   -0.1000000000000000E+01    0.3039806936459394E+01
    0.3427857139900839E+01   -0.1000000000000000E+01    0.1608316206941619E+01
    0.4204276726360096E+01   -0.1000000000000000E+01    0.1992994776168015E+01
    0.3029173563817358E+01   -0.1000000000000000E+01    0.4119574277282996E+01
    0.3439265668129285E+01   -0.1000000000000000E+01    0.3362878032445769E+01
    0.3359002465395521E+01   -0.1000000000000000E+01    0.2495945761348561E+01
    0.0000000000000000E+00   -0.2000000000000000E+01    0.5000000000000000E+01
    0.0000000000000000E+00   -0.2000000000000000E+01    0.3750000000000000E+01
    0.0000000000000000E+00   -0.2000000000000000E+01    0.2500000000000000E+01
    0.0000000000000000E+00   -0.2000000000000000E+01    0.1250000000000000E+01
    0.0000000000000000E+00   -0.2000000000000000E+01    0.0000000000000000E+00
    0.1250000000000000E+01   -0.2000000000000000E+01    0.0000000000000000E+00
    0.2500000000000000E+01   -0.2000000000000000E+01    0.0000000000000000E+00
    0.3750000000000000E+01   -0.2000000000000000E+01    0.0000000000000000E+00
    0.5000000000000000E+01   -0.2000000000000000E+01    0.0000000000000000E+00
    0.5000000000000000E+01   -0.2000000000000000E+01    0.1250000000000000E+01
    0.5000000000000000E+01   -0.2000000000000000E+01    0.2500000000000000E+01
    0.5000000000000000E+01   -0.2000000000000000E+01    0.3750000000000000E+01
    0.5000000000000000E+01   -0.2000000000000000E+01    0.5000000000000000E+01
    0.3750000000000000E+01   -0.2000000000000000E+01    0.5000000000000000E+01
    0.2500000000000000E+01   -0.2000000000000000E+01    0.5000000000000000E+01
    0.1250000000000000E+01   -0.2000000000000000E+01    0.5000000000000000E+01
    0.8087673404641089E+00   -0.2000000000000000E+01    0.3046700411233810E+01
    0.7886107149397936E+00   -0.2000000000000000E+01    0.1981265415950838E+01
    0.9272772293302283E+00   -0.2000000000000000E+01    0.4070287583796232E+01
    0.4070226081761783E+01   -0.2000000000000000E+01    0.9540325619275125E+00
    0.9224700799661973E+00   -0.2000000000000000E+01    0.9463046427831353E+00
    0.4085981138224748E+01   -0.2000000000000000E+01    0.4069983725354533E+01
    0.1559757281943150E+01   -0.2000000000000000E+01    0.1635607059547088E+01
    0.2482905500262050E+01   -0.2000000000000000E+01    0.1885385149929012E+01
    0.1660890649526405E+01   -0.2000000000000000E+01    0.2508737357811018E+01
    0.1598111783087740E+01   -0.2000000000000000E+01    0.3356656815401915E+01
    0.2519516809901736E+01   -0.2000000000000000E+01    0.3120482633132017E+01
    0.2000153144652849E+01   -0.2000000000000000E+01    0.4127941526767214E+01
    0.3039222624309763E+01   -0.2000000000000000E+01    0.8728843884554416E+00
    0.1943909465021303E+01   -0.2000000000000000E+01    0.8563427312614358E+00
    0.4181134289965387E+01   -0.2000000000000000E+01    0.3039806936459394E+01
    0.3427857139900839E+01   -0.2000000000000000E+01    0.1608316206941619E+01
    0.4204276726360096E+01   -0.2000000000000000E+01    0.1992994776168015E+01
    0.3029173563817358E+01   -0.2000000000000000E+01    0.4119574277282996E+01
    0.3439265668129285E+01   -0.2000000000000000E+01    0.3362878032445769E+01
    0.3359002465395521E+01   -0.2000000000000000E+01    0.2495945761348561E+01
    0.0000000000000000E+00   -0.3000000000000000E+01    0.5000000000000000E+01
    0.0000000000000000E+00   -0.3000000000000000E+01    0.3750000000000000E+01
    0.0000000000000000E+00   -0.3000000000000000E+01    0.2500000000000000E+01
    0.0000000000000000E+00   -0.3000000000000000E+01    0.1250000000000000E+01
    0.0000000000000000E+00   -0.3000000000000000E+01    0.0000000000000000E+00
    0.1250000000000000E+01   -0.3000000000000000E+01    0.0000000000000000E+00
    0.2500000000000000E+01   -0.3000000000000000E+01    0.0000000000000000E+00
    0.3750000000000000E+01   -0.3000000000000000E+01    0.0000000000000000E+00
    0.5000000000000000E+01   -0.3000000000000000E+01    0.0000000000000000E+00
    0.5000000000000000E+01   -0.3000000000000000E+01    0.1250000000000000E+01
    0.5000000000000000E+01   -0.3000000000000000E+01    0.2500000000000000E+01
    0.5000000000000000E+01   -0.3000000000000000E+01    0.3750000000000000E+01
    0.5000000000000000E+01   -0.3000000000000000E+01    0.5000000000000000E+01
    0.3750000000000000E+01   -0.3000000000000000E+01    0.5000000000000000E+01
    0.2500000000000000E+01   -0.3000000000000000E+01    0.5000000000000000E+01
    0.1250000000000000E+01   -0.3000000000000000E+01    0.5000000000000000E+01
    0.8087673404641089E+00   -0.3000000000000000E+01    0.3046700411233810E+01
[...]
POINT_DATA 216
SCALARS rho double 1
LOOKUP_TABLE default
   0.9910084665026138E+00
   0.9959702615686137E+00
   0.9574970537072570E+00
   0.1070208699201514E+01
   0.6450294436413421E+00
   0.8970996673941041E+00
   0.8485207623699837E+00
   0.8314136630807439E+00
   0.5497183247741114E+00
   0.9687154153242307E+00
   0.1016759975854291E+01
   0.9948247288666671E+00
   0.9944199907901424E+00
   0.9949400705386845E+00
   0.9891838182726845E+00
   0.9930019104911760E+00
   0.9876104148116648E+00
   0.9865779438856773E+00
   0.9882712243440619E+00
   0.9826647046557464E+00
   0.9510559398780607E+00
   0.9888019811733467E+00
   0.9830659690542836E+00
   0.1004847602207367E+01
   0.9982634868984938E+00
   0.9807193270305355E+00
   0.9831860962714685E+00
   0.9887439720457313E+00
   0.9162564977167917E+00
   0.9664715344934443E+00
   0.9984943049828624E+00
   0.9589927509498271E+00
   0.9859124490220008E+00
   0.9892948150342006E+00
   0.9849329502918112E+00
   0.9959160142294824E+00
   0.9909850089337636E+00
   0.9959500313397595E+00
   0.9573001317644707E+00
   0.1070077682579973E+01
   0.6483051078276419E+00
   0.8984629373494712E+00
   0.8515274173579647E+00
   0.8359922801654062E+00
   0.5523628010446213E+00
   0.9700102750555089E+00
   0.1016973798169459E+01
   0.9948518743060709E+00
   0.9943921539611922E+00
   0.9949166823008260E+00
   0.9891372720984206E+00
   0.9929730786797349E+00
   0.9875491280852162E+00
   0.9864890931198803E+00
   0.9882315903391414E+00
   0.9839924487094832E+00
   0.9509391791909549E+00
   0.9887808714724751E+00
   0.9829955226050420E+00
   0.1004656540362879E+01
   0.9981333063279603E+00
   0.9806749106372283E+00
   0.9831392199008329E+00
   0.9887130269789660E+00
   0.9166430036468174E+00
   0.9667375113501934E+00
   0.9985469772955141E+00
   0.9587009635340222E+00
   0.9859374368955410E+00
   0.9892726285094735E+00
   0.9849023862255751E+00
   0.9959068058699047E+00
   0.9909890582757872E+00
   0.9959543965693520E+00
   0.9573217900990250E+00
   0.1070077042205734E+01
   0.6483122750913592E+00
   0.8984416135204830E+00
   0.8520126283209520E+00
   0.8365290800956616E+00
   0.5525655171982887E+00
   0.9699757566320231E+00
   0.1016943066363475E+01
   0.9948609642265850E+00
   0.9943977437520164E+00
   0.9949352408963594E+00
   0.9891544284118886E+00
   0.9929869806801421E+00
   0.9875721935429409E+00
   0.9865067956582685E+00
   0.9882440305833119E+00
   0.9841440013559180E+00
   0.9509765585591878E+00
   0.9887920033589354E+00
   0.9830292772901472E+00
   0.1004668995268519E+01
   0.9981698677038572E+00
   0.9806941961988201E+00
   0.9831708548929825E+00
   0.9887286583619768E+00
   0.9167849654052149E+00
   0.9667540101793743E+00
   0.9985700368430288E+00
   0.9587335455007111E+00
   0.9859466546813047E+00
   0.9892900961350080E+00
   0.9849234711978979E+00
   0.9959344900316885E+00
   0.9909889572196697E+00
   0.9959542235476907E+00
   0.9573211957612209E+00
   0.1070077205746180E+01
   0.6483126757832202E+00
   0.8984402232323727E+00
   0.8519784861783182E+00
   0.8364986136146797E+00
   0.5525563279459693E+00
   0.9699758533765763E+00
   0.1016944851168887E+01
   0.9948607899991900E+00
   0.9943980994793113E+00
   0.9949351472286146E+00
   0.9891545035057288E+00
   0.9929867428766067E+00
   0.9875719519942856E+00
   0.9865073141989419E+00
   0.9882438867232884E+00
   0.9841399932419634E+00
   0.9509755289500043E+00
   0.9887921759022765E+00
   0.9830275954287030E+00
   0.1004669746461851E+01
   0.9981697941849513E+00
   0.9806939198539788E+00
   0.9831708052983268E+00
   0.9887284545014671E+00
   0.9167825055301417E+00
   0.9667579156592079E+00
   0.9985698169518372E+00
   0.9587355284751001E+00
   0.9859486789737247E+00
   0.9892899904447386E+00
   0.9849234870232171E+00
   0.9959344752280318E+00
   0.9909851086953678E+00
   0.9959502018770909E+00
   0.9573007158803959E+00
   0.1070077509791507E+01
   0.6483045851324993E+00
   0.8984642363934122E+00
   0.8515614964358484E+00
   0.8360231622431638E+00
   0.5523721080309304E+00
   0.9700101317762333E+00
   0.1016972020931850E+01
   0.9948520444117633E+00
   0.9943917980832392E+00
   0.9949167783166274E+00
   0.9891371966968950E+00
   0.9929733139328477E+00
   0.9875493688868120E+00
   0.9864885704703072E+00
   0.9882317327123888E+00
   0.9839964561078544E+00
   0.9509402221518343E+00
   0.9887807007597904E+00
   0.9829972049676434E+00
   0.1004655803323524E+01
   0.9981333727289929E+00
   0.9806751861500225E+00
   0.9831392672003675E+00
   0.9887132338842723E+00
   0.9166454525968729E+00
   0.9667336287471612E+00
   0.9985471928941611E+00
   0.9586989903167095E+00
   0.9859354176759505E+00
   0.9892727375828015E+00
   0.9849023662305655E+00
   0.9959068173548675E+00
   0.9910083642483823E+00
   0.9959700859666092E+00
   0.9574964542183918E+00
   0.1070208845047182E+01
   0.6450296784684276E+00
   0.8970981361736377E+00
   0.8484869998786676E+00
   0.8313841027479058E+00
   0.5497095024715238E+00
   0.9687154327270820E+00
   0.1016761743410500E+01
   0.9948245493766096E+00
   0.9944203465254174E+00
   0.9949399800835164E+00
   0.9891838935516952E+00
   0.9930016699846885E+00
   0.9876101728373102E+00
   0.9865784494963797E+00
   0.9882710791051074E+00
   0.9826607198946660E+00
   0.9510549252388449E+00
   0.9888021570287922E+00
   0.9830643012865106E+00
   0.1004848357313606E+01
   0.9982633972758970E+00
   0.9807190485455530E+00
   0.9831860426827845E+00
   0.9887437720029089E+00
   0.9162540731325631E+00
   0.9664754349258954E+00
   0.9984940707146837E+00
   0.9589947352269641E+00
   0.9859144507561043E+00
   0.9892947148740361E+00
   0.9849329574962145E+00
   0.9959159853851478E+00
SCALARS u double 1
LOOKUP_TABLE default
   0.5093343486825311E+00
   0.5066567147879316E+00
   0.5229193446270847E+00
   0.5099683978972362E+00
   0.0000000000000000E+00
   0.0000000000000000E+00
   0.0000000000000000E+00
   0.0000000000000000E+00
   0.0000000000000000E+00
   0.4952073401930744E+00
   0.4969244393954270E+00
   0.4994175561003792E+00
   0.4956404861326885E+00
   0.5064349803616536E+00
   0.5120263020525765E+00
   0.5129317218096194E+00
   0.5009896981383971E+00
   0.5808267267304539E+00
   0.5121173120165893E+00
   0.4692250922841316E+00
   0.3777376818073021E+00
   0.5022261867079749E+00
   0.5225870988495372E+00
   0.5473609892444055E+00
   0.5389938820754836E+00
   0.5088568213544288E+00
   0.5220083462552123E+00
   0.5082220133651105E+00
   0.3794634084916340E+00
   0.3689453165731869E+00
   0.5163521299376348E+00
   0.5346932429126552E+00
   0.5551499839279372E+00
   0.5084112933720192E+00
   0.5120007349445020E+00
   0.5520394044309879E+00
   0.5093696529236350E+00
   0.5067028393732114E+00
   0.5229064999727987E+00
   0.5107005543435572E+00
   0.0000000000000000E+00
   0.0000000000000000E+00
   0.0000000000000000E+00
   0.0000000000000000E+00
   0.0000000000000000E+00
   0.4964237572189582E+00
   0.4976557531703704E+00
   0.4991945670570919E+00
   0.4956002479640131E+00
   0.5065743924506865E+00
   0.5121443964006309E+00
   0.5129974621431374E+00
   0.5008834859373955E+00
   0.5815650252642869E+00
   0.5121530723060417E+00
   0.4713305170896236E+00
   0.3785396906698955E+00
   0.5020003486547984E+00
   0.5246654232732713E+00
   0.5496592387634871E+00
   0.5392850760023337E+00
   0.5087636554568840E+00
   0.5218291649357641E+00
   0.5082119714545489E+00
   0.3798084753944371E+00
   0.3693288494400588E+00
   0.5162725928751295E+00
   0.5374397202633980E+00
   0.5571861099952984E+00
   0.5082952112965686E+00
   0.5117246046987041E+00
   0.5530161222609705E+00
   0.5093654949768308E+00
   0.5066935901772101E+00
   0.5228960613887703E+00
   0.5106590134108808E+00
   0.0000000000000000E+00
   0.0000000000000000E+00
   0.0000000000000000E+00
   0.0000000000000000E+00
   0.0000000000000000E+00
   0.4964780870512318E+00
   0.4976943092411952E+00
   0.4991929806307519E+00
   0.4956000933522940E+00
   0.5065479922432713E+00
   0.5121153286726807E+00
   0.5129771081881411E+00
   0.5008591125921044E+00
   0.5815090755551277E+00
   0.5121316169443856E+00
   0.4712932224579941E+00
   0.3785523600735043E+00
   0.5019811123886453E+00
   0.5246483634458015E+00
   0.5496074359278987E+00
   0.5392377288508248E+00
   0.5087348151716045E+00
   0.5217920160932205E+00
   0.5081815239273448E+00
   0.3797507747880909E+00
   0.3692757405515220E+00
   0.5162549462189883E+00
   0.5373537821611377E+00
   0.5571724081413325E+00
   0.5082650559088167E+00
   0.5116989952523088E+00
   0.5529581220545993E+00
   0.5093656224659036E+00
   0.5066937714689244E+00
   0.5228966133148577E+00
   0.5106589486062555E+00
   0.0000000000000000E+00
   0.0000000000000000E+00
   0.0000000000000000E+00
   0.0000000000000000E+00
   0.0000000000000000E+00
   0.4964787871239797E+00
   0.4976932152894945E+00
   0.4991935959812563E+00
   0.4956001830048543E+00
   0.5065485932530422E+00
   0.5121160726669078E+00
   0.5129775487234920E+00
   0.5008594737918409E+00
   0.5815090884121801E+00
   0.5121318495948494E+00
   0.4712947272800362E+00
   0.3785526383042881E+00
   0.5019816316557187E+00
   0.5246490351467855E+00
   0.5496078028964551E+00
   0.5392382605836019E+00
   0.5087352652950479E+00
   0.5217926049462873E+00
   0.5081821341953644E+00
   0.3797510464846701E+00
   0.3692756511463874E+00
   0.5162554215171322E+00
   0.5373545974349742E+00
   0.5571725013763265E+00
   0.5082655225433101E+00
   0.5116997840296162E+00
   0.5529585809977220E+00
   0.5093695271594930E+00
   0.5067026615988505E+00
   0.5229059561494075E+00
   0.5107006363986936E+00
   0.0000000000000000E+00
   0.0000000000000000E+00
   0.0000000000000000E+00
   0.0000000000000000E+00
   0.0000000000000000E+00
   0.4964231055971127E+00
   0.4976568308557710E+00
   0.4991939477075883E+00
   0.4956001553292601E+00
   0.5065737899965149E+00
   0.5121436490134053E+00
   0.5129970244535600E+00
   0.5008831262253548E+00
   0.5815650189167340E+00
   0.5121528396536286E+00
   0.4713290161477355E+00
   0.3785393872458679E+00
   0.5019998200202866E+00
   0.5246647428860711E+00
   0.5496588608539544E+00
   0.5392845493523837E+00
   0.5087632021639571E+00
   0.5218285729808981E+00
   0.5082113561791828E+00
   0.3798082060153894E+00
   0.3693289393506269E+00
   0.5162721114057435E+00
   0.5374388999611254E+00
   0.5571860095899259E+00
   0.5082947362678036E+00
   0.5117238079166740E+00
   0.5530156665996074E+00
   0.5093344758942829E+00
   0.5066568997267659E+00
   0.5229199028964406E+00
   0.5099683514256272E+00
   0.0000000000000000E+00
   0.0000000000000000E+00
   0.0000000000000000E+00
   0.0000000000000000E+00
   0.0000000000000000E+00
   0.4952081383860871E+00
   0.4969233369829371E+00
   0.4994181639539335E+00
   0.4956405828365578E+00
   0.5064355963644269E+00
   0.5120270492153207E+00
   0.5129321696159233E+00
   0.5009900650146065E+00
   0.5808267428098095E+00
   0.5121175444874549E+00
   0.4692265855298805E+00
   0.3777379387515655E+00
   0.5022266993802610E+00
   0.5225877554375896E+00
   0.5473613479114482E+00
   0.5389944304611465E+00
   0.5088572705681698E+00
   0.5220089338937629E+00
   0.5082226193116183E+00
   0.3794637008086966E+00
   0.3689452602463378E+00
   0.5163526068885171E+00
   0.5346940602090802E+00
   0.5551500800856216E+00
   0.5084117480832878E+00
   0.5120015176896676E+00
   0.5520398827369729E+00
SCALARS v double 1
LOOKUP_TABLE default
   0.0000000000000000E+00
   0.0000000000000000E+00
   0.0000000000000000E+00
   0.0000000000000000E+00
   0.0000000000000000E+00
   0.0000000000000000E+00
   0.0000000000000000E+00
   0.0000000000000000E+00
   0.0000000000000000E+00
   0.0000000000000000E+00
   0.0000000000000000E+00
   0.0000000000000000E+00
   0.0000000000000000E+00
   0.0000000000000000E+00
   0.0000000000000000E+00
   0.0000000000000000E+00
   0.0000000000000000E+00
   0.0000000000000000E+00
   0.0000000000000000E+00
   0.0000000000000000E+00
   0.0000000000000000E+00
   0.0000000000000000E+00
   0.0000000000000000E+00
   0.0000000000000000E+00
   0.0000000000000000E+00
   0.0000000000000000E+00
   0.0000000000000000E+00
   0.0000000000000000E+00
   0.0000000000000000E+00
   0.0000000000000000E+00
   0.0000000000000000E+00
   0.0000000000000000E+00
   0.0000000000000000E+00
   0.0000000000000000E+00
   0.0000000000000000E+00
   0.0000000000000000E+00
  -0.7503443729092772E-06
   0.1021982191024358E-04
  -0.9176173041046082E-04
   0.3303006080963397E-04
   0.0000000000000000E+00
   0.0000000000000000E+00
   0.0000000000000000E+00
   0.0000000000000000E+00
   0.0000000000000000E+00
   0.5595672672167364E-03
   0.2163155466405989E-03
  -0.4481524604945141E-05
  -0.2781406292443586E-04
  -0.2057881886882264E-04
  -0.2788072310655018E-04
  -0.1322358820957972E-04
  -0.5756896695706742E-04
  -0.3033739189022127E-04
  -0.2135851266115066E-04
  -0.7323155492912028E-04
  -0.2532788851219318E-03
  -0.2333277601791190E-04
  -0.7549505546393709E-04
  -0.9015061633581368E-04
  -0.9145630127339446E-04
  -0.5032288478888227E-04
  -0.6440544603993450E-04
  -0.2511272246366796E-04
  -0.3483685882890161E-03
  -0.9963071815162888E-04
  -0.1414227163821572E-04
  -0.2365278949534735E-03
   0.3092599274000865E-04
  -0.3144533070166606E-04
  -0.3457774506563154E-04
  -0.1190829821702010E-04
   0.1756094463311244E-05
   0.3643466067328469E-05
  -0.3043416849136708E-05
   0.1478667020991663E-04
   0.0000000000000000E+00
   0.0000000000000000E+00
   0.0000000000000000E+00
   0.0000000000000000E+00
   0.0000000000000000E+00
   0.5649028721609572E-04
   0.2339118091651840E-04
   0.3339655350390523E-05
   0.1820796767460316E-05
   0.9669381769222392E-05
   0.7570517958829121E-05
   0.6459972829379646E-05
   0.1896474547463163E-05
   0.7370302116607910E-05
   0.4262503879445224E-05
  -0.1602638324930648E-04
  -0.3086139588287574E-04
   0.5473341628729181E-05
  -0.1076052320084300E-04
  -0.9939375719732466E-05
   0.3412329322929588E-07
   0.1888308130418404E-05
   0.1074942258569247E-05
   0.6478312761858675E-05
  -0.2734797698013056E-04
  -0.2275320491909364E-05
   0.3156331599811938E-05
  -0.3237095479757738E-04
  -0.4455841569013210E-05
   0.5287482695103501E-05
   0.4798102366516329E-05
   0.7615049950514136E-05
  -0.1755303309335067E-05
  -0.3644007329347812E-05
   0.3040195878598241E-05
  -0.1478791259740428E-04
   0.0000000000000000E+00
   0.0000000000000000E+00
   0.0000000000000000E+00
   0.0000000000000000E+00
   0.0000000000000000E+00
  -0.5649426617399497E-04
  -0.2339925547307718E-04
  -0.3341265072413094E-05
  -0.1817864035595670E-05
  -0.9674538040790597E-05
  -0.7572972777622720E-05
  -0.6462790043572359E-05
  -0.1898369534988516E-05
  -0.7376563944224555E-05
  -0.4263599777239108E-05
   0.1605461191559221E-04
   0.3086270072760846E-04
  -0.5466805421898146E-05
   0.1075246470842819E-04
   0.9931212945669690E-05
  -0.4220540334058869E-07
  -0.1893846431653675E-05
  -0.1077329536409349E-05
  -0.6479937272613184E-05
   0.2736051283464926E-04
   0.2278653961352059E-05
  -0.3170104000576667E-05
   0.3237549511754514E-04
   0.4451458053147983E-05
  -0.5286460499484142E-05
  -0.4798374790549480E-05
  -0.7635945627399565E-05
   0.7512808169230142E-06
  -0.1022070746301541E-04
   0.9175876237721524E-04
  -0.3302545940969755E-04
   0.0000000000000000E+00
   0.0000000000000000E+00
   0.0000000000000000E+00
   0.0000000000000000E+00
   0.0000000000000000E+00
  -0.5595733986648465E-03
  -0.2163174551190562E-03
   0.4483644372914736E-05
   0.2781449642526373E-04
   0.2057087475747814E-04
   0.2787679286735101E-04
   0.1322070395521508E-04
   0.5756611473634970E-04
   0.3033445667249008E-04
   0.2135638734977510E-04
   0.7325452426628758E-04
   0.2532756671899092E-03
   0.2333715414879996E-04
   0.7548436130506928E-04
   0.9014239129057579E-04
   0.9145322705148610E-04
   0.5031698617796118E-04
   0.6440516458051763E-04
   0.2510993392819758E-04
   0.3483807801113463E-03
   0.9962825008588607E-04
   0.1413363533695178E-04
   0.2365343466901439E-03
  -0.3092428627595676E-04
   0.3144482206099478E-04
   0.3457846523470330E-04
   0.1189060323852465E-04
   0.0000000000000000E+00
   0.0000000000000000E+00
   0.0000000000000000E+00
   0.0000000000000000E+00
   0.0000000000000000E+00
   0.0000000000000000E+00
   0.0000000000000000E+00
   0.0000000000000000E+00
   0.0000000000000000E+00
   0.0000000000000000E+00
   0.0000000000000000E+00
   0.0000000000000000E+00
   0.0000000000000000E+00
   0.0000000000000000E+00
   0.0000000000000000E+00
   0.0000000000000000E+00
   0.0000000000000000E+00
   0.0000000000000000E+00
   0.0000000000000000E+00
   0.0000000000000000E+00
   0.0000000000000000E+00
   0.0000000000000000E+00
   0.0000000000000000E+00
   0.0000000000000000E+00
   0.0000000000000000E+00
   0.0000000000000000E+00
   0.0000000000000000E+00
   0.0000000000000000E+00
   0.0000000000000000E+00
   0.0000000000000000E+00
   0.0000000000000000E+00
   0.0000000000000000E+00
   0.0000000000000000E+00
   0.0000000000000000E+00
   0.0000000000000000E+00
   0.0000000000000000E+00
SCALARS w double 1
LOOKUP_TABLE default
  -0.3039006737592925E-02
  -0.3200833728085324E-02
   0.1003672092928011E-01
  -0.1401024899165280E-01
   0.0000000000000000E+00
   0.0000000000000000E+00
   0.0000000000000000E+00
   0.0000000000000000E+00
   0.0000000000000000E+00
  -0.1303351746467814E+00
  -0.4439581600789085E-01
  -0.7924265771199635E-02
  -0.8299713155332285E-02
  -0.6089789189597898E-02
  -0.9594260589841960E-02
  -0.7818085865569768E-02
  -0.1094142965251988E-01
   0.1575850942517269E-01
  -0.6717687337581497E-02
  -0.6735706219497360E-01
  -0.5176769524711756E-01
  -0.1454741380800152E-01
  -0.5098400749853905E-02
  -0.7973111508192108E-02
  -0.6735570200629213E-02
  -0.7098294503478161E-02
  -0.7067502901127591E-02
  -0.1369087191157141E-01
   0.1697486427170519E-01
   0.1959128118304077E-02
  -0.2068751460037234E-01
  -0.9816310104362758E-02
  -0.3062273479653828E-01
  -0.1492235950608422E-01
  -0.1643990028122244E-01
  -0.2375535597389311E-01
  -0.3031266753005734E-02
  -0.3205309742096056E-02
   0.9970610900842997E-02
  -0.1422465863827115E-01
   0.0000000000000000E+00
   0.0000000000000000E+00
   0.0000000000000000E+00
   0.0000000000000000E+00
   0.0000000000000000E+00
  -0.1296690679125553E+00
  -0.4393565947380165E-01
  -0.7905609710702914E-02
  -0.8350745823458778E-02
  -0.6104076828340843E-02
  -0.9621694207312440E-02
  -0.7837593762364294E-02
  -0.1111332100201474E-01
   0.1548102851212669E-01
  -0.6777019702019802E-02
  -0.6796142841953565E-01
  -0.5072638505999908E-01
  -0.1468486645586101E-01
  -0.5009170256319175E-02
  -0.8110593335575388E-02
  -0.7001714943734315E-02
  -0.7313364527798192E-02
  -0.7343126632564323E-02
  -0.1377026469256688E-01
   0.1674225901154013E-01
   0.1979749762885352E-02
  -0.2082012232977840E-01
  -0.1013723087781267E-01
  -0.3081544112596961E-01
  -0.1504780899076665E-01
  -0.1665066482204044E-01
  -0.2402386193567366E-01
  -0.3032003466056391E-02
  -0.3202110333719831E-02
   0.9962719047368885E-02
  -0.1418086567779566E-01
   0.0000000000000000E+00
   0.0000000000000000E+00
   0.0000000000000000E+00
   0.0000000000000000E+00
   0.0000000000000000E+00
  -0.1295461940770463E+00
  -0.4387690059922259E-01
  -0.7873870365518169E-02
  -0.8335909127886195E-02
  -0.6084857094243202E-02
  -0.9605796622197927E-02
  -0.7825635418886277E-02
  -0.1110721458723483E-01
   0.1549088092832785E-01
  -0.6765516855048753E-02
  -0.6792465574533377E-01
  -0.5074782546021556E-01
  -0.1464767253456749E-01
  -0.4985399471667759E-02
  -0.8093299367948106E-02
  -0.6992424201115381E-02
  -0.7288579479930546E-02
  -0.7317574384217616E-02
  -0.1374349892137581E-01
   0.1666177175882144E-01
   0.1879789809056211E-02
  -0.2076485772767363E-01
  -0.1009466200470495E-01
  -0.3074269342320322E-01
  -0.1501547334151082E-01
  -0.1661207476422677E-01
  -0.2397263023247785E-01
  -0.3032081758452598E-02
  -0.3202225585277068E-02
   0.9962727955896523E-02
  -0.1418081210366041E-01
   0.0000000000000000E+00
   0.0000000000000000E+00