# vtk DataFile Version 2.0
FUN3D:global_image_vtk
ASCII
DATASET UNSTRUCTURED_GRID
POINTS 216 double
    0.0000000000000000E+00    0.0000000000000000E+00    0.5000000000000000E+01
    0.0000000000000000E+00    0.0000000000000000E+00    0.3750000000000000E+01
    0.0000000000000000E+00    0.0000000000000000E+00    0.2500000000000000E+01
    0.0000000000000000E+00    0.0000000000000000E+00    0.1250000000000000E+01
    0.0000000000000000E+00    0.0000000000000000E+00    0.0000000000000000E+00
    0.1250000000000000E+01    0.0000000000000000E+00    0.0000000000000000E+00
    0.2500000000000000E+01    0.0000000000000000E+00    0.0000000000000000E+00
    0.3750000000000000E+01    0.0000000000000000E+00    0.0000000000000000E+00
    0.5000000000000000E+01    0.0000000000000000E+00    0.0000000000000000E+00
    0.5000000000000000E+01    0.0000000000000000E+00    0.1250000000000000E+01
    0.5000000000000000E+01    0.0000000000000000E+00    0.2500000000000000E+01
    0.5000000000000000E+01    0.0000000000000000E+00    0.3750000000000000E+01
    0.5000000000000000E+01    0.0000000000000000E+00    0.5000000000000000E+01
    0.3750000000000000E+01    0.0000000000000000E+00    0.5000000000000000E+01
    0.2500000000000000E+01    0.0000000000000000E+00    0.5000000000000000E+01
    0.1250000000000000E+01    0.0000000000000000E+00    0.5000000000000000E+01
    0.8087673404641089E+00    0.0000000000000000E+00    0.3046700411233810E+01
    0.7886107149397936E+00    0.0000000000000000E+00    0.1981265415950838E+01
    0.9272772293302283E+00    0.0000000000000000E+00    0.4070287583796232E+01
    0.4070226081761783E+01    0.0000000000000000E+00    0.9540325619275125E+00
    0.9224700799661973E+00    0.0000000000000000E+00    0.9463046427831353E+00
    0.4085981138224748E+01    0.0000000000000000E+00    0.4069983725354533E+01
    0.1559757281943150E+01    0.0000000000000000E+00    0.1635607059547088E+01
    0.2482905500262050E+01    0.0000000000000000E+00    0.1885385149929012E+01
    0.1660890649526405E+01    0.0000000000000000E+00    0.2508737357811018E+01
    0.1598111783087740E+01    0.0000000000000000E+00    0.3356656815401915E+01
    0.2519516809901736E+01    0.0000000000000000E+00    0.3120482633132017E+01
    0.2000153144652849E+01    0.0000000000000000E+00    0.4127941526767214E+01
    0.3039222624309763E+01    0.0000000000000000E+00    0.8728843884554416E+00
    0.1943909465021303E+01    0.0000000000000000E+00    0.8563427312614358E+00
    0.4181134289965387E+01    0.0000000000000000E+00    0.3039806936459394E+01
    0.3427857139900839E+01    0.0000000000000000E+00    0.1608316206941619E+01
    0.4204276726360096E+01    0.0000000000000000E+00    0.1992994776168015E+01
    0.3029173563817358E+01    0.0000000000000000E+00    0.4119574277282996E+01
    0.3439265668129285E+01    0.0000000000000000E+00    0.3362878032445769E+01
    0.3359002465395521E+01    0.0000000000000000E+00    0.2495945761348561E+01
    0.0000000000000000E+00   -0.1000000000000000E+01    0.5000000000000000E+01
    0.0000000000000000E+00   -0.1000000000000000E+01    0.3750000000000000E+01
    0.0000000000000000E+00   -0.1000000000000000E+01    0.2500000000000000E+01
    0.0000000000000000E+00   -0.1000000000000000E+01    0.1250000000000000E+01
    0.0000000000000000E+00   -0.1000000000000000E+01    0.0000000000000000E+00
    0.1250000000000000E+01   -0.1000000000000000E+01    0.0000000000000000E+00
    0.2500000000000000E+01   -0.1000000000000000E+01    0.0000000000000000E+00
    0.3750000000000000E+01   -0.1000000000000000E+01    0.0000000000000000E+00
    0.5000000000000000E+01   -0.1000000000000000E+01    0.0000000000000000E+00
    0.5000000000000000E+01   -0.1000000000000000E+01    0.1250000000000000E+01
    0.5000000000000000E+01   -0.1000000000000000E+01    0.2500000000000000E+01
    0.5000000000000000E+01   -0.1000000000000000E+01    0.3750000000000000E+01
    0.5000000000000000E+01   -0.1000000000000000E+01    0.5000000000000000E+01
    0.3750000000000000E+01   -0.1000000000000000E+01    0.5000000000000000E+01
    0.2500000000000000E+01   -0.1000000000000000E+01    0.5000000000000000E+01
    0.1250000000000000E+01   -0.1000000000000000E+01    0.5000000000000000E+01
    0.8087673404641089E+00   -0.1000000000000000E+01    0.3046700411233810E+01
    0.7886107149397936E+00   -0.1000000000000000E+01    0.1981265415950838E+01
    0.9272772293302283E+00   -0.1000000000000000E+01    0.4070287583796232E+01
    0.4070226081761783E+01   -0.1000000000000000E+01    0.9540325619275125E+00
    0.9224700799661973E+00   -0.1000000000000000E+01    0.9463046427831353E+00
    0.4085981138224748E+01   -0.1000000000000000E+01    0.4069983725354533E+01
    0.1559757281943150E+01   -0.1000000000000000E+01    0.1635607059547088E+01
    0.2482905500262050E+01   -0.1000000000000000E+01    0.1885385149929012E+01
    0.1660890649526405E+01   -0.1000000000000000E+01    0.2508737357811018E+01
    0.1598111783087740E+01   -0.1000000000000000E+01    0.3356656815401915E+01
    0.2519516809901736E+01   -0.1000000000000000E+01    0.3120482633132017E+01
    0.2000153144652849E+01   -0.1000000000000000E+01    0.4127941526767214E+01
    0.3039222624309763E+01   -0.1000000000000000E+01    0.8728843884554416E+00
    0.1943909465021303E+01   -0.1000000000000000E+01    0.8563427312614358E+00
    0.4181134289965387E+01   -0.1000000000000000E+01    0.3039806936459394E+01
    0.3427857139900839E+01   -0.1000000000000000E+01    0.1608316206941619E+01
    0.4204276726360096E+01   -0.1000000000000000E+01    0.1992994776168015E+01
    0.3029173563817358E+01   -0.1000000000000000E+01    0.4119574277282996E+01
    0.3439265668129285E+01   -0.1000000000000000E+01    0.3362878032445769E+01
    0.3359002465395521E+01   -0.1000000000000000E+01    0.2495945761348561E+01
    0.0000000000000000E+00   -0.2000000000000000E+01    0.5000000000000000E+01
    0.0000000000000000E+00   -0.2000000000000000E+01    0.3750000000000000E+01
    0.0000000000000000E+00   -0.2000000000000000E+01    0.2500000000000000E+01
    0.0000000000000000E+00   -0.2000000000000000E+01    0.1250000000000000E+01
    0.0000000000000000E+00   -0.2000000000000000E+01    0.0000000000000000E+00
    0.1250000000000000E+01   -0.2000000000000000E+01    0.0000000000000000E+00
    0.2500000000000000E+01   -0.2000000000000000E+01    0.0000000000000000E+00
    0.3750000000000000E+01   -0.2000000000000000E+01    0.0000000000000000E+00
    0.5000000000000000E+01   -0.2000000000000000E+01    0.0000000000000000E+00
    0.5000000000000000E+01   -0.2000000000000000E+01    0.1250000000000000E+01
    0.5000000000000000E+01   -0.2000000000000000E+01    0.2500000000000000E+01
    0.5000000000000000E+01   -0.2000000000000000E+01    0.3750000000000000E+01
    0.5000000000000000E+01   -0.2000000000000000E+01    0.5000000000000000E+01
    0.3750000000000000E+01   -0.2000000000000000E+01    0.5000000000000000E+01
    0.2500000000000000E+01   -0.2000000000000000E+01    0.5000000000000000E+01
    0.1250000000000000E+01   -0.2000000000000000E+01    0.5000000000000000E+01
    0.8087673404641089E+00   -0.2000000000000000E+01    0.3046700411233810E+01
    0.7886107149397936E+00   -0.2000000000000000E+01    0.1981265415950838E+01
    0.9272772293302283E+00   -0.2000000000000000E+01    0.4070287583796232E+01
    0.4070226081761783E+01   -0.2000000000000000E+01    0.9540325619275125E+00
    0.9224700799661973E+00   -0.2000000000000000E+01    0.9463046427831353E+00
    0.4085981138224748E+01   -0.2000000000000000E+01    0.4069983725354533E+01
    0.1559757281943150E+01   -0.2000000000000000E+01    0.1635607059547088E+01
    0.2482905500262050E+01   -0.2000000000000000E+01    0.1885385149929012E+01
    0.1660890649526405E+01   -0.2000000000000000E+01    0.2508737357811018E+01
    0.1598111783087740E+01   -0.2000000000000000E+01    0.3356656815401915E+01
    0.2519516809901736E+01   -0.2000000000000000E+01    0.3120482633132017E+01
    0.2000153144652849E+01   -0.2000000000000000E+01    0.4127941526767214E+01
    0.3039222624309763E+01   -0.2000000000000000E+01    0.8728843884554416E+00
    0.1943909465021303E+01   -0.2000000000000000E+01    0.8563427312614358E+00
    0.4181134289965387E+01   -0.2000000000000000E+01    0.3039806936459394E+01
    0.3427857139900839E+01   -0.2000000000000000E+01    0.1608316206941619E+01
    0.4204276726360096E+01   -0.2000000000000000E+01    0.1992994776168015E+01
    0.3029173563817358E+01   -0.2000000000000000E+01    0.4119574277282996E+01
    0.3439265668129285E+01   -0.2000000000000000E+01    0.3362878032445769E+01
    0.3359002465395521E+01   -0.2000000000000000E+01    0.2495945761348561E+01
    0.0000000000000000E+00   -0.3000000000000000E+01    0.5000000000000000E+01
    0.0000000000000000E+00   -0.3000000000000000E+01    0.3750000000000000E+01
    0.0000000000000000E+00   -0.3000000000000000E+01    0.2500000000000000E+01
    0.0000000000000000E+00   -0.3000000000000000E+01    0.1250000000000000E+01
    0.0000000000000000E+00   -0.3000000000000000E+01    0.0000000000000000E+00
    0.1250000000000000E+01   -0.3000000000000000E+01    0.0000000000000000E+00
    0.2500000000000000E+01   -0.3000000000000000E+01    0.0000000000000000E+00
    0.3750000000000000E+01   -0.3000000000000000E+01    0.0000000000000000E+00
    0.5000000000000000E+01   -0.3000000000000000E+01    0.0000000000000000E+00
    0.5000000000000000E+01   -0.3000000000000000E+01    0.1250000000000000E+01
    0.5000000000000000E+01   -0.3000000000000000E+01    0.2500000000000000E+01
    0.5000000000000000E+01   -0.3000000000000000E+01    0.3750000000000000E+01
    0.5000000000000000E+01   -0.3000000000000000E+01    0.5000000000000000E+01
    0.3750000000000000E+01   -0.3000000000000000E+01    0.5000000000000000E+01
    0.2500000000000000E+01   -0.3000000000000000E+01    0.5000000000000000E+01
    0.1250000000000000E+01   -0.3000000000000000E+01    0.5000000000000000E+01
    0.8087673404641089E+00   -0.3000000000000000E+01    0.3046700411233810E+01
[...]
POINT_DATA 216
SCALARS rho double 1
LOOKUP_TABLE default
   0.1005646115465372E+01
   0.1004439759033950E+01
   0.1036072736093239E+01
   0.1006459104584106E+01
   0.1513431900890418E+01
   0.8891536697829306E+00
   0.9589101456469873E+00
   0.9812644057262564E+00
   0.8228136739431183E+00
   0.9921089963513183E+00
   0.1015821583933872E+01
   0.1003433741149167E+01
   0.1003946535299473E+01
   0.1003183746201561E+01
   0.1004096401699593E+01
   0.1000410046494818E+01
   0.1009143568993473E+01
   0.1005180151280841E+01
   0.1005634974790709E+01
   0.1026001127610606E+01
   0.1012978617949692E+01
   0.1003906603302255E+01
   0.1027593259390349E+01
   0.9984752700370194E+00
   0.9871760671800135E+00
   0.1015057778548376E+01
   0.9986334072812622E+00
   0.1006397418969088E+01
   0.9964777076006233E+00
   0.1021580991337378E+01
   0.1002290710538475E+01
   0.9844456586984620E+00
   0.9974306049549410E+00
   0.1005825749872765E+01
   0.9990382997680086E+00
   0.1000016774516383E+01
   0.1005625724255699E+01
   0.1004348977337699E+01
   0.1035839708977133E+01
   0.1005773574866153E+01
   0.1513089388966566E+01
   0.8889177286633290E+00
   0.9586914948081667E+00
   0.9810434616457954E+00
   0.8231409978421826E+00
   0.9937382754314393E+00
   0.1016342368164920E+01
   0.1003414294441241E+01
   0.1003925058548546E+01
   0.1003101292106684E+01
   0.1004016707519803E+01
   0.1000338246139828E+01
   0.1009045359022287E+01
   0.1004872507295989E+01
   0.1005553130816668E+01
   0.1027071696667973E+01
   0.1012768590520944E+01
   0.1003896289309810E+01
   0.1027511029867838E+01
   0.9984380576778816E+00
   0.9869527321826780E+00
   0.1014995624519392E+01
   0.9985828109349857E+00
   0.1006332283998025E+01
   0.9967547522806564E+00
   0.1022212265039588E+01
   0.1002321559904422E+01
   0.9844634823083331E+00
   0.9977801215903707E+00
   0.1005763327947382E+01
   0.9990376731629100E+00
   0.1000048235219380E+01
   0.1005632523587094E+01
   0.1004365659479368E+01
   0.1035869883137102E+01
   0.1005781673371370E+01
   0.1513082278643860E+01
   0.8889415814285109E+00
   0.9587676875651725E+00
   0.9810827305438035E+00
   0.8232867843133480E+00
   0.9936999372029264E+00
   0.1016328213149587E+01
   0.1003420973000045E+01
   0.1003938349102270E+01
   0.1003133968917746E+01
   0.1004054783533107E+01
   0.1000365393393639E+01
   0.1009086292222891E+01
   0.1004936648455681E+01
   0.1005583265641044E+01
   0.1027108257801213E+01
   0.1012893360699606E+01
   0.1003917288105127E+01
   0.1027599331452227E+01
   0.9984790110745657E+00
   0.9870098438612465E+00
   0.1015036803569280E+01
   0.9986227706702611E+00
   0.1006367421035545E+01
   0.9968095942263085E+00
   0.1022238512172101E+01
   0.1002340100815397E+01
   0.9845300644806003E+00
   0.9978216805104769E+00
   0.1005798213227180E+01
   0.9990640394092973E+00
   0.1000068495058204E+01
   0.1005632665458883E+01
   0.1004365612903277E+01
   0.1035869934200253E+01
   0.1005781677525687E+01
   0.1513082217655027E+01
   0.8889415926652504E+00
   0.9587677069210518E+00
   0.9810829836148073E+00
   0.8232866896327863E+00
   0.9937000458734034E+00
   0.1016328068484250E+01
   0.1003420319195147E+01
   0.1003938681281912E+01
   0.1003135231059829E+01
   0.1004054755681068E+01
   0.1000365161702501E+01
   0.1009086294976631E+01
   0.1004936720856072E+01
   0.1005583292569205E+01
   0.1027108339514769E+01
   0.1012893405845929E+01
   0.1003917362714918E+01
   0.1027599340810188E+01
   0.9984789761550495E+00
   0.9870098802682687E+00
   0.1015036834848497E+01
   0.9986230156905408E+00
   0.1006367489127865E+01
   0.9968095737269916E+00
   0.1022238699926070E+01
   0.1002339846268865E+01
   0.9845299157928993E+00
   0.9978217666642321E+00
   0.1005798491794188E+01
   0.9990641545588639E+00
   0.1000068490764170E+01
   0.1005625582057870E+01
   0.1004349023808457E+01
   0.1035839660026726E+01
   0.1005773570024957E+01
   0.1513089432202362E+01
   0.8889177714957953E+00
   0.9586914982190915E+00
   0.9810432092846072E+00
   0.8231410880829327E+00
   0.9937381614446961E+00
   0.1016342508788535E+01
   0.1003414950666485E+01
   0.1003924726266761E+01
   0.1003100029440150E+01
   0.1004016735439417E+01
   0.1000338477118834E+01
   0.1009045356856325E+01
   0.1004872436910491E+01
   0.1005553104494571E+01
   0.1027071615860383E+01
   0.1012768542823949E+01
   0.1003896218353510E+01
   0.1027511017485031E+01
   0.9984380881328061E+00
   0.9869526959642735E+00
   0.1014995592857020E+01
   0.9985825634482997E+00
   0.1006332217356134E+01
   0.9967547734354438E+00
   0.1022212085564945E+01
   0.1002321809818062E+01
   0.9844636295301885E+00
   0.9977800305888321E+00
   0.1005763052259306E+01
   0.9990375545581865E+00
   0.1000048229021793E+01
   0.1005646256705654E+01
   0.1004439713381660E+01
   0.1036072793497676E+01
   0.1006459108354291E+01
   0.1513431798333342E+01
   0.8891537445764370E+00
   0.9589101983034352E+00
   0.9812646675656985E+00
   0.8228136404085489E+00
   0.9921091040173342E+00
   0.1015821417507866E+01
   0.1003433083777623E+01
   0.1003946871848550E+01
   0.1003185014604428E+01
   0.1004096374030950E+01
   0.1000409812017693E+01
   0.1009143573484347E+01
   0.1005180226287651E+01
   0.1005635003116454E+01
   0.1026001230852749E+01
   0.1012978662243273E+01
   0.1003906685046403E+01
   0.1027593258855571E+01
   0.9984752266495819E+00
   0.9871760977661637E+00
   0.1015057808195663E+01
   0.9986336477803219E+00
   0.1006397489390633E+01
   0.9964776990161417E+00
   0.1021581194674732E+01
   0.1002290438283618E+01
   0.9844455143228837E+00
   0.9974306756685627E+00
   0.1005826035622057E+01
   0.9990384073772064E+00
   0.1000016748210497E+01
SCALARS u double 1
LOOKUP_TABLE default
   0.4951289396973355E+00
   0.4952369979190456E+00
   0.4663769649973446E+00
   0.4860660882508940E+00
   0.0000000000000000E+00
   0.0000000000000000E+00
   0.0000000000000000E+00
   0.0000000000000000E+00
   0.0000000000000000E+00
   0.4891093426550706E+00
   0.5266322095697877E+00
   0.5042172187194605E+00
   0.4934883589068106E+00
   0.4940311861793234E+00
   0.4921038908824000E+00
   0.4962971765066865E+00
   0.4952563661435104E+00
   0.5019742320732882E+00
   0.4942536073695140E+00
   0.4396514043426327E+00
   0.5521479793476035E+00
   0.4935166330964793E+00
   0.5635788296015584E+00
   0.5881016203404781E+00
   0.5241434626722292E+00
   0.4947078237020889E+00
   0.5099546635327529E+00
   0.4951715090447721E+00
   0.3886339415032631E+00
   0.4242401558899463E+00
   0.5254500083689175E+00
   0.5549741832646554E+00
   0.5761394701522671E+00
   0.4954456463161130E+00
   0.5068258563052711E+00
   0.5634202672361054E+00
   0.4951537599177983E+00
   0.4953323079504953E+00
   0.4665744028020415E+00
   0.4858858347578106E+00
   0.0000000000000000E+00
   0.0000000000000000E+00
   0.0000000000000000E+00
   0.0000000000000000E+00
   0.0000000000000000E+00
   0.4904016943624278E+00
   0.5272980671867388E+00
   0.5039373668147649E+00
   0.4934544197316790E+00
   0.4943021205881833E+00
   0.4923445892516934E+00
   0.4963934062861191E+00
   0.4953778336255341E+00
   0.5021600081944063E+00
   0.4943671544365215E+00
   0.4420874344708045E+00
   0.5539928341137933E+00
   0.4932622300431365E+00
   0.5652622729492187E+00
   0.5903217050628279E+00
   0.5240049503670782E+00
   0.4947792295568191E+00
   0.5096123148157723E+00
   0.4952886400197180E+00
   0.3898862158509910E+00
   0.4259932406205333E+00
   0.5251372426398910E+00
   0.5583092101267021E+00
   0.5785797186932954E+00
   0.4953876885203780E+00
   0.5064011154711630E+00
   0.5642064858265993E+00
   0.4951463615383208E+00
   0.4953152861952531E+00
   0.4665442781695622E+00
   0.4858377197132601E+00
   0.0000000000000000E+00
   0.0000000000000000E+00
   0.0000000000000000E+00
   0.0000000000000000E+00
   0.0000000000000000E+00
   0.4904971821208441E+00
   0.5273548973837080E+00
   0.5039468755082270E+00
   0.4934557149626742E+00
   0.4942457458622049E+00
   0.4922694071480602E+00
   0.4963425915334098E+00
   0.4953124142745533E+00
   0.5020419271149270E+00
   0.4943224409064076E+00
   0.4421572378648058E+00
   0.5539059742085084E+00
   0.4932389551047189E+00
   0.5652016991735281E+00
   0.5903040821628043E+00
   0.5239167335361385E+00
   0.4947108078126122E+00
   0.5095620149059988E+00
   0.4952255832666558E+00
   0.3899384156403032E+00
   0.4260464707563561E+00
   0.5251296053081381E+00
   0.5583057366729747E+00
   0.5786271271800856E+00
   0.4953304734166543E+00
   0.5063754588399961E+00
   0.5641809838025622E+00
   0.4951464355161486E+00
   0.4953153019175648E+00
   0.4665442737401111E+00
   0.4858378160707416E+00
   0.0000000000000000E+00
   0.0000000000000000E+00
   0.0000000000000000E+00
   0.0000000000000000E+00
   0.0000000000000000E+00
   0.4904968989800382E+00
   0.5273549413740958E+00
   0.5039470257287002E+00
   0.4934559481357452E+00
   0.4942464618963961E+00
   0.4922689420751260E+00
   0.4963423439619337E+00
   0.4953122895065615E+00
   0.5020417519024151E+00
   0.4943225669951920E+00
   0.4421570596291238E+00
   0.5539058788640236E+00
   0.4932375337924277E+00
   0.5652014911267250E+00
   0.5903038435919300E+00
   0.5239166783856379E+00
   0.4947109574413762E+00
   0.5095621048524249E+00
   0.4952250629168180E+00
   0.3899378902493368E+00
   0.4260458335624813E+00
   0.5251294552962921E+00
   0.5583061397324718E+00
   0.5786273953503888E+00
   0.4953287045792384E+00
   0.5063743699871101E+00
   0.5641813459693009E+00
   0.4951536858108324E+00
   0.4953322931940845E+00
   0.4665744096051520E+00
   0.4858857349682542E+00
   0.0000000000000000E+00
   0.0000000000000000E+00
   0.0000000000000000E+00
   0.0000000000000000E+00
   0.0000000000000000E+00
   0.4904019829720865E+00
   0.5272980261656397E+00
   0.5039372157335629E+00
   0.4934541826491279E+00
   0.4943014050089245E+00
   0.4923450518519099E+00
   0.4963936565735732E+00
   0.4953779576389761E+00
   0.5021601856999570E+00
   0.4943670274608502E+00
   0.4420876041522615E+00
   0.5539929272913171E+00
   0.4932636387660909E+00
   0.5652624671018168E+00
   0.5903219443259852E+00
   0.5240050093560266E+00
   0.4947790745145097E+00
   0.5096122303622193E+00
   0.4952891596281562E+00
   0.3898867190826673E+00
   0.4259938740920660E+00
   0.5251374042150900E+00
   0.5583088090487440E+00
   0.5785794453143456E+00
   0.4953894490382473E+00
   0.5064022022897120E+00
   0.5642061431677168E+00
   0.4951290116036745E+00
   0.4952370158938655E+00
   0.4663769615947942E+00
   0.4860661694625896E+00
   0.0000000000000000E+00
   0.0000000000000000E+00
   0.0000000000000000E+00
   0.0000000000000000E+00
   0.0000000000000000E+00
   0.4891091114968747E+00
   0.5266322452613716E+00
   0.5042173684391427E+00
   0.4934886053743504E+00
   0.4940319253279645E+00
   0.4921034297301550E+00
   0.4962969346529129E+00
   0.4952562408934987E+00
   0.5019740721263456E+00
   0.4942537328571447E+00
   0.4396512573727570E+00
   0.5521478794933170E+00
   0.4935152129368466E+00
   0.5635786014308374E+00
   0.5881013893512947E+00
   0.5241434368888523E+00
   0.4947079709526018E+00
   0.5099547787016250E+00
   0.4951709884778225E+00
   0.3886333832711767E+00
   0.4242395112770182E+00
   0.5254498722668265E+00
   0.5549745904231789E+00
   0.5761397303871273E+00
   0.4954438639484896E+00
   0.5068247803246456E+00
   0.5634206774792788E+00
SCALARS v double 1
LOOKUP_TABLE default
   0.0000000000000000E+00
   0.0000000000000000E+00
   0.0000000000000000E+00
   0.0000000000000000E+00
   0.0000000000000000E+00
   0.0000000000000000E+00
   0.0000000000000000E+00
   0.0000000000000000E+00
   0.0000000000000000E+00
   0.0000000000000000E+00
   0.0000000000000000E+00
   0.0000000000000000E+00
   0.0000000000000000E+00
   0.0000000000000000E+00
   0.0000000000000000E+00
   0.0000000000000000E+00
   0.0000000000000000E+00
   0.0000000000000000E+00
   0.0000000000000000E+00
   0.0000000000000000E+00
   0.0000000000000000E+00
   0.0000000000000000E+00
   0.0000000000000000E+00
   0.0000000000000000E+00
   0.0000000000000000E+00
   0.0000000000000000E+00
   0.0000000000000000E+00
   0.0000000000000000E+00
   0.0000000000000000E+00
   0.0000000000000000E+00
   0.0000000000000000E+00
   0.0000000000000000E+00
   0.0000000000000000E+00
   0.0000000000000000E+00
   0.0000000000000000E+00
   0.0000000000000000E+00
   0.9490050826798894E-05
  -0.9516016407901176E-05
  -0.4411197944013534E-04
  -0.2064414651128908E-03
   0.0000000000000000E+00
   0.0000000000000000E+00
   0.0000000000000000E+00
   0.0000000000000000E+00
   0.0000000000000000E+00
   0.7474398900868317E-03
   0.2950237397815153E-03
  -0.4030071898200559E-04
  -0.3698661798413061E-04
  -0.5676894607619621E-04
  -0.4323967342876564E-04
  -0.3538248693911468E-04
  -0.7535973056464683E-04
  -0.2252014789802409E-03
  -0.4020375130889426E-04
   0.9689700514503794E-04
  -0.4179085251360168E-03
  -0.4563988117468471E-04
  -0.2975152533390571E-03
  -0.1588823361476277E-03
  -0.2415091643880978E-03
  -0.7705168374904510E-04
  -0.1275797978949311E-03
  -0.4679638821971940E-04
  -0.1346083141582658E-03
   0.9292710918090462E-04
  -0.4782126835262305E-04
  -0.2245122689424929E-03
   0.2563404603366584E-04
  -0.6600850238632221E-04
  -0.7245292297927220E-04
  -0.5479661640982835E-04
   0.4590461516834175E-05
   0.3795040533368081E-05
   0.1233249206788757E-04
  -0.4568477262209356E-05
   0.0000000000000000E+00
   0.0000000000000000E+00
   0.0000000000000000E+00
   0.0000000000000000E+00
   0.0000000000000000E+00
   0.9504237911053425E-04
   0.2476001658143689E-04
  -0.5866938805082207E-05
   0.5933886965868491E-05
   0.1253175774523077E-04
   0.1897164634155850E-04
   0.1121775751372107E-04
   0.1663931148487545E-04
  -0.3587134472887292E-05
   0.1205601878083560E-04
   0.1349428465884195E-04
  -0.4413123964067701E-04
   0.6081305869626697E-05
  -0.5170747505673602E-04
  -0.3585288875227008E-04
  -0.2160158429933376E-04
   0.1681626739372255E-04
  -0.7156771283527707E-05
   0.1858614937314750E-04
  -0.4416084288143224E-05
   0.1035154305302305E-04
  -0.1390576612500746E-04
  -0.4093592899356088E-04
  -0.1990513483764183E-04
   0.1111500409713570E-04
  -0.2188810898899272E-05
  -0.1813180965282047E-04
  -0.4591339684339698E-05
  -0.3795918078115387E-05
  -0.1233086432280305E-04
   0.4569149647652999E-05
   0.0000000000000000E+00
   0.0000000000000000E+00
   0.0000000000000000E+00
   0.0000000000000000E+00
   0.0000000000000000E+00
  -0.9504720747616749E-04
  -0.2476518452243518E-04
   0.5870391439503572E-05
  -0.5936710043504095E-05
  -0.1254069987911954E-04
  -0.1897207615068585E-04
  -0.1121897366909279E-04
  -0.1663832958025685E-04
   0.3588213804764551E-05
  -0.1205535060476400E-04
  -0.1349658812266504E-04
   0.4412474814749228E-04
  -0.6076786915173694E-05
   0.5170703890944558E-04
   0.3585192391720466E-04
   0.2160671802967546E-04
  -0.1681756443697370E-04
   0.7158040705907063E-05
  -0.1858649216160455E-04
   0.4420566984944371E-05
  -0.1035162461645064E-04
   0.1389761866842884E-04
   0.4094001329764607E-04
   0.1990214428127816E-04
  -0.1111115867044003E-04
   0.2186476925334977E-05
   0.1811998219630726E-04
  -0.9490330493863021E-05
   0.9514284593610038E-05
   0.4411221502891946E-04
   0.2064390402126713E-03
   0.0000000000000000E+00
   0.0000000000000000E+00
   0.0000000000000000E+00
   0.0000000000000000E+00
   0.0000000000000000E+00
  -0.7474353886810858E-03
  -0.2950236460680689E-03
   0.4030810990376981E-04
   0.3698545562892410E-04
   0.5675785601573258E-04
   0.4323618306729537E-04
   0.3538115596498856E-04
   0.7535861136872053E-04
   0.2252020487407577E-03
   0.4020292151705023E-04
  -0.9690383180511013E-04
   0.4178964627656500E-03
   0.4564400257585593E-04
   0.2975178474378878E-03
   0.1588818218242793E-03
   0.2415187640016808E-03
   0.7704776041345110E-04
   0.1275808189770285E-03
   0.4679298136235424E-04
   0.1346079889862181E-03
  -0.9293209063279482E-04
   0.4781994835076592E-04
   0.2245121108638372E-03
  -0.2563389512761319E-04
   0.6600822475973180E-04
   0.7245189593900100E-04
   0.5478728301191448E-04
   0.0000000000000000E+00
   0.0000000000000000E+00
   0.0000000000000000E+00
   0.0000000000000000E+00
   0.0000000000000000E+00
   0.0000000000000000E+00
   0.0000000000000000E+00
   0.0000000000000000E+00
   0.0000000000000000E+00
   0.0000000000000000E+00
   0.0000000000000000E+00
   0.0000000000000000E+00
   0.0000000000000000E+00
   0.0000000000000000E+00
   0.0000000000000000E+00
   0.0000000000000000E+00
   0.0000000000000000E+00
   0.0000000000000000E+00
   0.0000000000000000E+00
   0.0000000000000000E+00
   0.0000000000000000E+00
   0.0000000000000000E+00
   0.0000000000000000E+00
   0.0000000000000000E+00
   0.0000000000000000E+00
   0.0000000000000000E+00
   0.0000000000000000E+00
   0.0000000000000000E+00
   0.0000000000000000E+00
   0.0000000000000000E+00
   0.0000000000000000E+00
   0.0000000000000000E+00
   0.0000000000000000E+00
   0.0000000000000000E+00
   0.0000000000000000E+00
   0.0000000000000000E+00
SCALARS w double 1
LOOKUP_TABLE default
   0.8723636525290339E-05
   0.9744858491642504E-03
   0.2632685612583065E-02
   0.7270698300110628E-01
   0.0000000000000000E+00
   0.0000000000000000E+00
   0.0000000000000000E+00
   0.0000000000000000E+00
   0.0000000000000000E+00
  -0.7190505036327337E-01
  -0.9343543391676526E-02
   0.1181606410891332E-01
   0.2398638590649022E-02
   0.5243060581886642E-02
   0.7404214236064651E-02
   0.8262653090947055E-02
   0.1144788822978392E-01
   0.1862923217793135E-01
   0.4462651525902063E-02
  -0.3054326907051378E-01
   0.1279949268377440E+00
   0.3839951139302046E-02
   0.4741150549521743E-01
   0.2942014958180558E-01
   0.2726050773786958E-01
   0.6493969653917505E-02
   0.1130776306097764E-01
   0.8773762713933698E-02
   0.7577446521558839E-02
   0.6099867563045273E-02
   0.7862994353210419E-02
   0.1235227746113061E-01
  -0.2025672038351913E-02
   0.5649699402289720E-02
   0.5664661800070205E-02
   0.6117930048280780E-02
  -0.1877389619465440E-04
   0.1002791899625095E-02
   0.2589252407753511E-02
   0.7204808068047049E-01
   0.0000000000000000E+00
   0.0000000000000000E+00
   0.0000000000000000E+00
   0.0000000000000000E+00
   0.0000000000000000E+00
  -0.7147807093259070E-01
  -0.8845341806558046E-02
   0.1180218890584338E-01
   0.2305680714259723E-02
   0.5248926981045629E-02
   0.7385024857201839E-02
   0.8228943512625883E-02
   0.1121893242004436E-01
   0.1788528123786053E-01
   0.4381089221924573E-02
  -0.3130869562528009E-01
   0.1278901911469593E+00
   0.3608401856134350E-02
   0.4690211534584098E-01
   0.2909006130115794E-01
   0.2655241014401644E-01
   0.6143508066432960E-02
   0.1078344200084795E-01
   0.8662102353998974E-02
   0.7593963054216061E-02
   0.6154505431433276E-02
   0.7607550771268867E-02
   0.1215856736913607E-01
  -0.2231175905389726E-02
   0.5453903636458126E-02
   0.5279072546750102E-02
   0.5646449694920670E-02
  -0.9813376526694562E-05
   0.9988513709170751E-03
   0.2578577010150487E-02
   0.7205195587791338E-01
   0.0000000000000000E+00
   0.0000000000000000E+00
   0.0000000000000000E+00
   0.0000000000000000E+00
   0.0000000000000000E+00
  -0.7143247532703953E-01
  -0.8802557040590993E-02
   0.1186028436323250E-01
   0.2338943664575439E-02
   0.5273884013774424E-02
   0.7408699980339038E-02
   0.8251266316783447E-02
   0.1124763174692154E-01
   0.1791746264823963E-01
   0.4400983344871314E-02
  -0.3131680235949644E-01
   0.1278387056734507E+00
   0.3674200646160435E-02
   0.4690236272760430E-01
   0.2909075842052751E-01
   0.2662771906727577E-01
   0.6207310631422563E-02
   0.1085652086961349E-01
   0.8709846613001891E-02
   0.7542782145253105E-02
   0.6091922286437606E-02
   0.7681529819507210E-02
   0.1214510750032597E-01
  -0.2208440187195068E-02
   0.5511599024160634E-02
   0.5347570330506831E-02
   0.5701188452779518E-02
  -0.9867399614807859E-05
   0.9989135631871002E-03
   0.2578456708667771E-02
   0.7205183188574206E-01
   0.0000000000000000E+00
   0.0000000000000000E+00