# vtk DataFile Version 2.0
FUN3D:global_image_vtk
ASCII
DATASET UNSTRUCTURED_GRID
POINTS 216 double
    0.0000000000000000E+00    0.0000000000000000E+00    0.5000000000000000E+01
    0.0000000000000000E+00    0.0000000000000000E+00    0.3750000000000000E+01
    0.0000000000000000E+00    0.0000000000000000E+00    0.2500000000000000E+01
    0.0000000000000000E+00    0.0000000000000000E+00    0.1250000000000000E+01
    0.0000000000000000E+00    0.0000000000000000E+00    0.0000000000000000E+00
    0.1250000000000000E+01    0.0000000000000000E+00    0.0000000000000000E+00
    0.2500000000000000E+01    0.0000000000000000E+00    0.0000000000000000E+00
    0.3750000000000000E+01    0.0000000000000000E+00    0.0000000000000000E+00
    0.5000000000000000E+01    0.0000000000000000E+00    0.0000000000000000E+00
    0.5000000000000000E+01    0.0000000000000000E+00    0.1250000000000000E+01
    0.5000000000000000E+01    0.0000000000000000E+00    0.2500000000000000E+01
    0.5000000000000000E+01    0.0000000000000000E+00    0.3750000000000000E+01
    0.5000000000000000E+01    0.0000000000000000E+00    0.5000000000000000E+01
    0.3750000000000000E+01    0.0000000000000000E+00    0.5000000000000000E+01
    0.2500000000000000E+01    0.0000000000000000E+00    0.5000000000000000E+01
    0.1250000000000000E+01    0.0000000000000000E+00    0.5000000000000000E+01
    0.8087673404641089E+00    0.0000000000000000E+00    0.3046700411233810E+01
    0.7886107149397936E+00    0.0000000000000000E+00    0.1981265415950838E+01
    0.9272772293302283E+00    0.0000000000000000E+00    0.4070287583796232E+01
    0.4070226081761783E+01    0.0000000000000000E+00    0.9540325619275125E+00
    0.9224700799661973E+00    0.0000000000000000E+00    0.9463046427831353E+00
    0.4085981138224748E+01    0.0000000000000000E+00    0.4069983725354533E+01
    0.1559757281943150E+01    0.0000000000000000E+00    0.1635607059547088E+01
    0.2482905500262050E+01    0.0000000000000000E+00    0.1885385149929012E+01
    0.1660890649526405E+01    0.0000000000000000E+00    0.2508737357811018E+01
    0.1598111783087740E+01    0.0000000000000000E+00    0.3356656815401915E+01
    0.2519516809901736E+01    0.0000000000000000E+00    0.3120482633132017E+01
    0.2000153144652849E+01    0.0000000000000000E+00    0.4127941526767214E+01
    0.3039222624309763E+01    0.0000000000000000E+00    0.8728843884554416E+00
    0.1943909465021303E+01    0.0000000000000000E+00    0.8563427312614358E+00
    0.4181134289965387E+01    0.0000000000000000E+00    0.3039806936459394E+01
    0.3427857139900839E+01    0.0000000000000000E+00    0.1608316206941619E+01
    0.4204276726360096E+01    0.0000000000000000E+00    0.1992994776168015E+01
    0.3029173563817358E+01    0.0000000000000000E+00    0.4119574277282996E+01
    0.3439265668129285E+01    0.0000000000000000E+00    0.3362878032445769E+01
    0.3359002465395521E+01    0.0000000000000000E+00    0.2495945761348561E+01
    0.0000000000000000E+00   -0.1000000000000000E+01    0.5000000000000000E+01
    0.0000000000000000E+00   -0.1000000000000000E+01    0.3750000000000000E+01
    0.0000000000000000E+00   -0.1000000000000000E+01    0.2500000000000000E+01
    0.0000000000000000E+00   -0.1000000000000000E+01    0.1250000000000000E+01
    0.0000000000000000E+00   -0.1000000000000000E+01    0.0000000000000000E+00
    0.1250000000000000E+01   -0.1000000000000000E+01    0.0000000000000000E+00
    0.2500000000000000E+01   -0.1000000000000000E+01    0.0000000000000000E+00
    0.3750000000000000E+01   -0.1000000000000000E+01    0.0000000000000000E+00
    0.5000000000000000E+01   -0.1000000000000000E+01    0.0000000000000000E+00
    0.5000000000000000E+01   -0.1000000000000000E+01    0.1250000000000000E+01
    0.5000000000000000E+01   -0.1000000000000000E+01    0.2500000000000000E+01
    0.5000000000000000E+01   -0.1000000000000000E+01    0.3750000000000000E+01
    0.5000000000000000E+01   -0.1000000000000000E+01    0.5000000000000000E+01
    0.3750000000000000E+01   -0.1000000000000000E+01    0.5000000000000000E+01
    0.2500000000000000E+01   -0.1000000000000000E+01    0.5000000000000000E+01
    0.1250000000000000E+01   -0.1000000000000000E+01    0.5000000000000000E+01
    0.8087673404641089E+00   -0.1000000000000000E+01    0.3046700411233810E+01
    0.7886107149397936E+00   -0.1000000000000000E+01    0.1981265415950838E+01
    0.9272772293302283E+00   -0.1000000000000000E+01    0.4070287583796232E+01
    0.4070226081761783E+01   -0.1000000000000000E+01    0.9540325619275125E+00
    0.9224700799661973E+00   -0.1000000000000000E+01    0.9463046427831353E+00
    0.4085981138224748E+01   -0.1000000000000000E+01    0.4069983725354533E+01
    0.1559757281943150E+01   -0.1000000000000000E+01    0.1635607059547088E+01
    0.2482905500262050E+01   -0.1000000000000000E+01    0.1885385149929012E+01
    0.1660890649526405E+01   -0.1000000000000000E+01    0.2508737357811018E+01
    0.1598111783087740E+01   -0.1000000000000000E+01    0.3356656815401915E+01
    0.2519516809901736E+01   -0.1000000000000000E+01    0.3120482633132017E+01
    0.2000153144652849E+01   -0.1000000000000000E+01    0.4127941526767214E+01
    0.3039222624309763E+01   -0.1000000000000000E+01    0.8728843884554416E+00
    0.1943909465021303E+01   -0.1000000000000000E+01    0.8563427312614358E+00
    0.4181134289965387E+01   -0.1000000000000000E+01    0.3039806936459394E+01
    0.3427857139900839E+01   -0.1000000000000000E+01    0.1608316206941619E+01
    0.4204276726360096E+01   -0.1000000000000000E+01    0.1992994776168015E+01
    0.3029173563817358E+01   -0.1000000000000000E+01    0.4119574277282996E+01
    0.3439265668129285E+01   -0.1000000000000000E+01    0.3362878032445769E+01
    0.3359002465395521E+01   -0.1000000000000000E+01    0.2495945761348561E+01
    0.0000000000000000E+00   -0.2000000000000000E+01    0.5000000000000000E+01
    0.0000000000000000E+00   -0.2000000000000000E+01    0.3750000000000000E+01
    0.0000000000000000E+00   -0.2000000000000000E+01    0.2500000000000000E+01
    0.0000000000000000E+00   -0.2000000000000000E+01    0.1250000000000000E+01
    0.0000000000000000E+00   -0.2000000000000000E+01    0.0000000000000000E+00
    0.1250000000000000E+01   -0.2000000000000000E+01    0.0000000000000000E+00
    0.2500000000000000E+01   -0.2000000000000000E+01    0.0000000000000000E+00
    0.3750000000000000E+01   -0.2000000000000000E+01    0.0000000000000000E+00
    0.5000000000000000E+01   -0.2000000000000000E+01    0.0000000000000000E+00
    0.5000000000000000E+01   -0.2000000000000000E+01    0.1250000000000000E+01
    0.5000000000000000E+01   -0.2000000000000000E+01    0.2500000000000000E+01
    0.5000000000000000E+01   -0.2000000000000000E+01    0.3750000000000000E+01
    0.5000000000000000E+01   -0.2000000000000000E+01    0.5000000000000000E+01
    0.3750000000000000E+01   -0.2000000000000000E+01    0.5000000000000000E+01
    0.2500000000000000E+01   -0.2000000000000000E+01    0.5000000000000000E+01
    0.1250000000000000E+01   -0.2000000000000000E+01    0.5000000000000000E+01
    0.8087673404641089E+00   -0.2000000000000000E+01    0.3046700411233810E+01
    0.7886107149397936E+00   -0.2000000000000000E+01    0.1981265415950838E+01
    0.9272772293302283E+00   -0.2000000000000000E+01    0.4070287583796232E+01
    0.4070226081761783E+01   -0.2000000000000000E+01    0.9540325619275125E+00
    0.9224700799661973E+00   -0.2000000000000000E+01    0.9463046427831353E+00
    0.4085981138224748E+01   -0.2000000000000000E+01    0.4069983725354533E+01
    0.1559757281943150E+01   -0.2000000000000000E+01    0.1635607059547088E+01
    0.2482905500262050E+01   -0.2000000000000000E+01    0.1885385149929012E+01
    0.1660890649526405E+01   -0.2000000000000000E+01    0.2508737357811018E+01
    0.1598111783087740E+01   -0.2000000000000000E+01    0.3356656815401915E+01
    0.2519516809901736E+01   -0.2000000000000000E+01    0.3120482633132017E+01
    0.2000153144652849E+01   -0.2000000000000000E+01    0.4127941526767214E+01
    0.3039222624309763E+01   -0.2000000000000000E+01    0.8728843884554416E+00
    0.1943909465021303E+01   -0.2000000000000000E+01    0.8563427312614358E+00
    0.4181134289965387E+01   -0.2000000000000000E+01    0.3039806936459394E+01
    0.3427857139900839E+01   -0.2000000000000000E+01    0.1608316206941619E+01
    0.4204276726360096E+01   -0.2000000000000000E+01    0.1992994776168015E+01
    0.3029173563817358E+01   -0.2000000000000000E+01    0.4119574277282996E+01
    0.3439265668129285E+01   -0.2000000000000000E+01    0.3362878032445769E+01
    0.3359002465395521E+01   -0.2000000000000000E+01    0.2495945761348561E+01
    0.0000000000000000E+00   -0.3000000000000000E+01    0.5000000000000000E+01
    0.0000000000000000E+00   -0.3000000000000000E+01    0.3750000000000000E+01
    0.0000000000000000E+00   -0.3000000000000000E+01    0.2500000000000000E+01
    0.0000000000000000E+00   -0.3000000000000000E+01    0.1250000000000000E+01
    0.0000000000000000E+00   -0.3000000000000000E+01    0.0000000000000000E+00
    0.1250000000000000E+01   -0.3000000000000000E+01    0.0000000000000000E+00
    0.2500000000000000E+01   -0.3000000000000000E+01    0.0000000000000000E+00
    0.3750000000000000E+01   -0.3000000000000000E+01    0.0000000000000000E+00
    0.5000000000000000E+01   -0.3000000000000000E+01    0.0000000000000000E+00
    0.5000000000000000E+01   -0.3000000000000000E+01    0.1250000000000000E+01
    0.5000000000000000E+01   -0.3000000000000000E+01    0.2500000000000000E+01
    0.5000000000000000E+01   -0.3000000000000000E+01    0.3750000000000000E+01
    0.5000000000000000E+01   -0.3000000000000000E+01    0.5000000000000000E+01
    0.3750000000000000E+01   -0.3000000000000000E+01    0.5000000000000000E+01
    0.2500000000000000E+01   -0.3000000000000000E+01    0.5000000000000000E+01
    0.1250000000000000E+01   -0.3000000000000000E+01    0.5000000000000000E+01
    0.8087673404641089E+00   -0.3000000000000000E+01    0.3046700411233810E+01
[...]
POINT_DATA 216
SCALARS rho double 1
LOOKUP_TABLE default
   0.9910022063269431E+00
   0.9959633945444016E+00
   0.9574928610004712E+00
   0.1070198453592143E+01
   0.6449064643854749E+00
   0.8972165036115937E+00
   0.8498846695604506E+00
   0.8333237105616053E+00
   0.5501182379674675E+00
   0.9685911217513581E+00
   0.1016696116394603E+01
   0.9948421313331307E+00
   0.9944011470404756E+00
   0.9949516082666209E+00
   0.9891640827505318E+00
   0.9929974130517051E+00
   0.9876014207645928E+00
   0.9865440163294193E+00
   0.9882616860552155E+00
   0.9827793022807434E+00
   0.9510699428212984E+00
   0.9887812096549740E+00
   0.9830961304546467E+00
   0.1004829473957262E+01
   0.9982541893860617E+00
   0.9807113163358160E+00
   0.9831733303361926E+00
   0.9887383975422771E+00
   0.9162396167874655E+00
   0.9663076205538701E+00
   0.9985085584226970E+00
   0.9588485806788254E+00
   0.9858149838414973E+00
   0.9892887536769173E+00
   0.9849105591306412E+00
   0.9959315938949835E+00
   0.9909788192752312E+00
   0.9959429927237001E+00
   0.9572958024935716E+00
   0.1070067132822830E+01
   0.6481863484649582E+00
   0.8985627168074045E+00
   0.8527982476570485E+00
   0.8377360766392470E+00
   0.5527292445515443E+00
   0.9698913746651256E+00
   0.1016914369880106E+01
   0.9948680355455659E+00
   0.9943742825008495E+00
   0.9949269411605830E+00
   0.9891181896034336E+00
   0.9929682612443365E+00
   0.9875401687092483E+00
   0.9864556016951320E+00
   0.9882221049924436E+00
   0.9840943807895431E+00
   0.9509531459050097E+00
   0.9887613384640850E+00
   0.9830242158586087E+00
   0.1004638457719972E+01
   0.9981238948293417E+00
   0.9806668295333349E+00
   0.9831268580396413E+00
   0.9887073058081813E+00
   0.9166296228225819E+00
   0.9665818174499287E+00
   0.9985590426347408E+00
   0.9585687812549906E+00
   0.9858476767743874E+00
   0.9892664008407027E+00
   0.9848812918325018E+00
   0.9959198799761866E+00
   0.9909828255527856E+00
   0.9959474885854898E+00
   0.9573174921280382E+00
   0.1070066994252920E+01
   0.6481944263843863E+00
   0.8985489970928093E+00
   0.8532977801771434E+00
   0.8382909666804619E+00
   0.5529376682697860E+00
   0.9698567631987570E+00
   0.1016882569249953E+01
   0.9948772835083517E+00
   0.9943796730137275E+00
   0.9949456747814550E+00
   0.9891353118365253E+00
   0.9929823655225565E+00
   0.9875632124503646E+00
   0.9864735222611937E+00
   0.9882346114877242E+00
   0.9842482549238666E+00
   0.9509897694886824E+00
   0.9887723382442180E+00
   0.9830578383919476E+00
   0.1004650400072284E+01
   0.9981607860796151E+00
   0.9806860268499775E+00
   0.9831586082953979E+00
   0.9887229493328481E+00
   0.9167725820888876E+00
   0.9665978129609455E+00
   0.9985822824537908E+00
   0.9586000587909761E+00
   0.9858556738549189E+00
   0.9892838345994870E+00
   0.9849024072070265E+00
   0.9959475489810571E+00
   0.9909826876768906E+00
   0.9959472443430355E+00
   0.9573167351845737E+00
   0.1070067152260970E+01
   0.6481944391656150E+00
   0.8985470820279500E+00
   0.8532578236937201E+00
   0.8382574093295817E+00
   0.5529271422293986E+00
   0.9698567127301648E+00
   0.1016884704746164E+01
   0.9948771129672309E+00
   0.9943801081170731E+00
   0.9949455891398535E+00
   0.9891353619766748E+00
   0.9929820345850485E+00
   0.9875628870908990E+00
   0.9864740821263214E+00
   0.9882344021520758E+00
   0.9842435742970338E+00
   0.9509885566396222E+00
   0.9887725205985973E+00
   0.9830558036479827E+00
   0.1004651348971850E+01
   0.9981606451423335E+00
   0.9806856627870441E+00
   0.9831585138090272E+00
   0.9887226752767412E+00
   0.9167694490097993E+00
   0.9666023620679077E+00
   0.9985820669564229E+00
   0.9586022191095069E+00
   0.9858580396788609E+00
   0.9892836981552300E+00
   0.9849023642214059E+00
   0.9959476043643034E+00
   0.9909789557604312E+00
   0.9959432343967679E+00
   0.9572965495036955E+00
   0.1070066965463280E+01
   0.6481862141949430E+00
   0.8985645435875399E+00
   0.8528381557773290E+00
   0.8377700308059625E+00
   0.5527398889803131E+00
   0.9698913815139608E+00
   0.1016912241373100E+01
   0.9948682020820470E+00
   0.9943738472191521E+00
   0.9949270289275599E+00
   0.9891181392187187E+00
   0.9929685896287174E+00
   0.9875404933457402E+00
   0.9864550373175909E+00
   0.9882223128966811E+00
   0.9840990624220717E+00
   0.9509543723237253E+00
   0.9887611581777167E+00
   0.9830262523046874E+00
   0.1004637522190877E+01
   0.9981240289935539E+00
   0.9806671928134281E+00
   0.9831269506740371E+00
   0.9887075829531266E+00
   0.9166327498496855E+00
   0.9665772893001372E+00
   0.9985592538358523E+00
   0.9585666319628050E+00
   0.9858453162510269E+00
   0.9892665408262655E+00
   0.9848813310688457E+00
   0.9959198209624106E+00
   0.9910020670464607E+00
   0.9959631476302299E+00
   0.9574920992343677E+00
   0.1070198593778675E+01
   0.6449063124007454E+00
   0.8972144584897345E+00
   0.8498451355564894E+00
   0.8332910056770919E+00
   0.5501080894824951E+00
   0.9685909968562404E+00
   0.1016698233495510E+01
   0.9948419557621362E+00
   0.9944015822556606E+00
   0.9949515251448097E+00
   0.9891641333634299E+00
   0.9929970794611382E+00
   0.9876010948040064E+00
   0.9865445626823610E+00
   0.9882614754514739E+00
   0.9827746454300172E+00
   0.9510687438923097E+00
   0.9887813959562527E+00
   0.9830941105815263E+00
   0.1004830424017999E+01
   0.9982540331552623E+00
   0.9807109498109816E+00
   0.9831732327574652E+00
   0.9887381270535449E+00
   0.9162365323573846E+00
   0.9663121639145124E+00
   0.9985083279861372E+00
   0.9588507462741781E+00
   0.9858173279298502E+00
   0.9892886227510268E+00
   0.9849105086324180E+00
   0.9959316331208234E+00
SCALARS u double 1
LOOKUP_TABLE default
   0.5093404041391345E+00
   0.5066647602144461E+00
   0.5229252094423219E+00
   0.5099907688876922E+00
   0.0000000000000000E+00
   0.0000000000000000E+00
   0.0000000000000000E+00
   0.0000000000000000E+00
   0.0000000000000000E+00
   0.4953016201037977E+00
   0.4969760829719508E+00
   0.4993945630111911E+00
   0.4956531189841333E+00
   0.5064363860419626E+00
   0.5120371342401192E+00
   0.5129417768141540E+00
   0.5009982503687473E+00
   0.5808531428214166E+00
   0.5121264751033029E+00
   0.4692103898612262E+00
   0.3777135813875624E+00
   0.5022357181604206E+00
   0.5225944347244811E+00
   0.5473649345960931E+00
   0.5390027495164037E+00
   0.5088628165317716E+00
   0.5220144391612834E+00
   0.5082321781450917E+00
   0.3794806517030253E+00
   0.3689531900595848E+00
   0.5163611562576670E+00
   0.5347012779159162E+00
   0.5551820202533191E+00
   0.5084198684620741E+00
   0.5120118482802416E+00
   0.5520425912826921E+00
   0.5093756719973458E+00
   0.5067110258154064E+00
   0.5229124487951099E+00
   0.5107232803199178E+00
   0.0000000000000000E+00
   0.0000000000000000E+00
   0.0000000000000000E+00
   0.0000000000000000E+00
   0.0000000000000000E+00
   0.4965146475908299E+00
   0.4977033661929512E+00
   0.4991729087856178E+00
   0.4956121676348271E+00
   0.5065762569038682E+00
   0.5121554996435155E+00
   0.5130076848173595E+00
   0.5008920806202034E+00
   0.5815913041283373E+00
   0.5121622895232385E+00
   0.4713188448664734E+00
   0.3785160738903753E+00
   0.5020098270723612E+00
   0.5246732771098046E+00
   0.5496631694137074E+00
   0.5392941531550842E+00
   0.5087697521745943E+00
   0.5218355150972364E+00
   0.5082222710124923E+00
   0.3798261700944571E+00
   0.3693364947917206E+00
   0.5162812836275884E+00
   0.5374477591808604E+00
   0.5572166183002681E+00
   0.5083038967946103E+00
   0.5117357448023433E+00
   0.5530192533285604E+00
   0.5093715160723606E+00
   0.5067016495465287E+00
   0.5229019982719516E+00
   0.5106812037384200E+00
   0.0000000000000000E+00
   0.0000000000000000E+00
   0.0000000000000000E+00
   0.0000000000000000E+00
   0.0000000000000000E+00
   0.4965686899642944E+00
   0.4977426942840675E+00
   0.4991710414481635E+00
   0.4956120398376076E+00
   0.5065495246407482E+00
   0.5121261597343948E+00
   0.5129871156414856E+00
   0.5008676541049180E+00
   0.5815351912106684E+00
   0.5121407522767421E+00
   0.4712808743763234E+00
   0.3785290557482142E+00
   0.5019904526976481E+00
   0.5246559670801122E+00
   0.5496112322391699E+00
   0.5392466028958012E+00
   0.5087408186295053E+00
   0.5217982016088282E+00
   0.5081916497238540E+00
   0.3797681509286892E+00
   0.3692832365744741E+00
   0.5162636231154223E+00
   0.5373613493675109E+00
   0.5572028804094653E+00
   0.5082736170696498E+00
   0.5117099346065300E+00
   0.5529611104779268E+00
   0.5093716898693682E+00
   0.5067019069492863E+00
   0.5229027065133934E+00
   0.5106812152335310E+00
   0.0000000000000000E+00
   0.0000000000000000E+00
   0.0000000000000000E+00
   0.0000000000000000E+00
   0.0000000000000000E+00
   0.4965697659203386E+00
   0.4977414699393445E+00
   0.4991718151909170E+00
   0.4956122081921316E+00
   0.5065503501210386E+00
   0.5121271993723657E+00
   0.5129877344363671E+00
   0.5008681527075289E+00
   0.5815352856383703E+00
   0.5121410799079873E+00
   0.4712827503863776E+00
   0.3785293193950570E+00
   0.5019911793465319E+00
   0.5246568897924073E+00
   0.5496117349512253E+00
   0.5392473492167489E+00
   0.5087414338846625E+00
   0.5217990056465498E+00
   0.5081924944081383E+00
   0.3797685348679422E+00
   0.3692831440193045E+00
   0.5162643013972931E+00
   0.5373624691823780E+00
   0.5572030657491842E+00
   0.5082742632946321E+00
   0.5117110261262993E+00
   0.5529617284539372E+00
   0.5093754999864966E+00
   0.5067107720181986E+00
   0.5229117485350545E+00
   0.5107232861917522E+00
   0.0000000000000000E+00
   0.0000000000000000E+00
   0.0000000000000000E+00
   0.0000000000000000E+00
   0.0000000000000000E+00
   0.4965136167609371E+00
   0.4977045739054403E+00
   0.4991721303864034E+00
   0.4956119956794313E+00
   0.5065754295827399E+00
   0.5121544564590020E+00
   0.5130070689079594E+00
   0.5008915835401151E+00
   0.5815912162029988E+00
   0.5121619618630763E+00
   0.4713169711887151E+00
   0.3785157850935017E+00
   0.5020090906324755E+00
   0.5246723454021709E+00
   0.5496626552602658E+00
   0.5392934116137241E+00
   0.5087691335679128E+00
   0.5218347075888774E+00
   0.5082214211131879E+00
   0.3798257868114758E+00
   0.3693365870607436E+00
   0.5162805988810018E+00
   0.5374466332075035E+00
   0.5572164246362270E+00
   0.5083032418969421E+00
   0.5117346446720421E+00
   0.5530186378798047E+00
   0.5093405777957370E+00
   0.5066650213246925E+00
   0.5229259240717160E+00
   0.5099907975927135E+00
   0.0000000000000000E+00
   0.0000000000000000E+00
   0.0000000000000000E+00
   0.0000000000000000E+00
   0.0000000000000000E+00
   0.4953027887781147E+00
   0.4969748510132033E+00
   0.4993953288092396E+00
   0.4956532938072799E+00
   0.5064372260334233E+00
   0.5120381770244716E+00
   0.5129424028920803E+00
   0.5009987549124136E+00
   0.5808532399699894E+00
   0.5121268025766376E+00
   0.4692122533393235E+00
   0.3777138263054922E+00
   0.5022364380135207E+00
   0.5225953418014085E+00
   0.5473654279728539E+00
   0.5390035124604236E+00
   0.5088634309576543E+00
   0.5220152420943523E+00
   0.5082330184210200E+00
   0.3794810618523467E+00
   0.3689531354765132E+00
   0.5163618357502618E+00
   0.5347024003331046E+00
   0.5551822081578621E+00
   0.5084205025975190E+00
   0.5120129338325971E+00
   0.5520432271808878E+00
SCALARS v double 1
LOOKUP_TABLE default
   0.0000000000000000E+00
   0.0000000000000000E+00
   0.0000000000000000E+00
   0.0000000000000000E+00
   0.0000000000000000E+00
   0.0000000000000000E+00
   0.0000000000000000E+00
   0.0000000000000000E+00
   0.0000000000000000E+00
   0.0000000000000000E+00
   0.0000000000000000E+00
   0.0000000000000000E+00
   0.0000000000000000E+00
   0.0000000000000000E+00
   0.0000000000000000E+00
   0.0000000000000000E+00
   0.0000000000000000E+00
   0.0000000000000000E+00
   0.0000000000000000E+00
   0.0000000000000000E+00
   0.0000000000000000E+00
   0.0000000000000000E+00
   0.0000000000000000E+00
   0.0000000000000000E+00
   0.0000000000000000E+00
   0.0000000000000000E+00
   0.0000000000000000E+00
   0.0000000000000000E+00
   0.0000000000000000E+00
   0.0000000000000000E+00
   0.0000000000000000E+00
   0.0000000000000000E+00
   0.0000000000000000E+00
   0.0000000000000000E+00
   0.0000000000000000E+00
   0.0000000000000000E+00
  -0.7192719684599769E-06
   0.1018145242304741E-04
  -0.9180197386528415E-04
   0.3314703221556736E-04
   0.0000000000000000E+00
   0.0000000000000000E+00
   0.0000000000000000E+00
   0.0000000000000000E+00
   0.0000000000000000E+00
   0.5609111195283214E-03
   0.2171358153059167E-03
  -0.4488672282534285E-05
  -0.2758051358887522E-04
  -0.2099875211614768E-04
  -0.2754205746332684E-04
  -0.1332409189345845E-04
  -0.5753928286548632E-04
  -0.3013314137444795E-04
  -0.2131002428396178E-04
  -0.7333002016608202E-04
  -0.2533076095647451E-03
  -0.2316670343612788E-04
  -0.7523270514064722E-04
  -0.8987883232103598E-04
  -0.9133909198555168E-04
  -0.5022470998071869E-04
  -0.6437828061590927E-04
  -0.2516747183511898E-04
  -0.3487620528745663E-03
  -0.9981672092069073E-04
  -0.1374342863041250E-04
  -0.2366948482192512E-03
   0.3088943586018720E-04
  -0.3134118713055915E-04
  -0.3455638427759496E-04
  -0.1161414552920935E-04
   0.1735465481723384E-05
   0.3648896735911595E-05
  -0.3083090276128859E-05
   0.1491471752282866E-04
   0.0000000000000000E+00
   0.0000000000000000E+00
   0.0000000000000000E+00
   0.0000000000000000E+00
   0.0000000000000000E+00
   0.5653087860056435E-04
   0.2337176368642661E-04
   0.3400108951509661E-05
   0.1796897142458632E-05
   0.9652329283538485E-05
   0.7634451730343165E-05
   0.6462717214721290E-05
   0.1898842006224395E-05
   0.7409353525455896E-05
   0.4259260461995487E-05
  -0.1611874673646949E-04
  -0.3090225691889040E-04
   0.5470507044819142E-05
  -0.1068813632485288E-04
  -0.9872028388972100E-05
   0.6735684141860694E-07
   0.1899715075075908E-05
   0.1089113506071450E-05
   0.6451485419023015E-05
  -0.2741265198388023E-04
  -0.2292080624874750E-05
   0.3212059236516419E-05
  -0.3236205645296668E-04
  -0.4476487586041104E-05
   0.5283972305679387E-05
   0.4791283980410521E-05
   0.7696528372269937E-05
  -0.1734713940975213E-05
  -0.3649463589615700E-05
   0.3079986261486831E-05
  -0.1491586320634105E-04
   0.0000000000000000E+00
   0.0000000000000000E+00
   0.0000000000000000E+00
   0.0000000000000000E+00
   0.0000000000000000E+00
  -0.5653289656869581E-04
  -0.2337963486691553E-04
  -0.3401211268072320E-05
  -0.1793391168407412E-05
  -0.9657127883404284E-05
  -0.7636480340444994E-05
  -0.6465479369495771E-05
  -0.1900784873720133E-05
  -0.7415548345645702E-05
  -0.4260323784687435E-05
   0.1614806095482408E-04
   0.3090313656508546E-04
  -0.5463495413099164E-05
   0.1067998168813711E-04
   0.9863801604560706E-05
  -0.7531682932786341E-07
  -0.1905203719914519E-05
  -0.1091246792109922E-05
  -0.6453116994137927E-05
   0.2742586784889420E-04
   0.2295160990303066E-05
  -0.3225451768858346E-05
   0.3236695477418640E-04
   0.4472647946646552E-05
  -0.5282644575994882E-05
  -0.4791197058258012E-05
  -0.7717235464892146E-05
   0.7201467608055013E-06
  -0.1018235624025027E-04
   0.9179918445399924E-04
  -0.3314242211249374E-04
   0.0000000000000000E+00
   0.0000000000000000E+00
   0.0000000000000000E+00
   0.0000000000000000E+00
   0.0000000000000000E+00
  -0.5609146554381187E-03
  -0.2171376318665367E-03
   0.4491101176535635E-05
   0.2758127892515050E-04
   0.2099084286316648E-04
   0.2753851102605634E-04
   0.1332124206319714E-04
   0.5753637687353501E-04
   0.3013012782249438E-04
   0.2130791342827016E-04
   0.7335471392105834E-04
   0.2533035797944424E-03
   0.2317139669517757E-04
   0.7522160702001322E-04
   0.8987031506817803E-04
   0.9133595463597032E-04
   0.5021880691870820E-04
   0.6437808446864722E-04
   0.2516460145249980E-04
   0.3487753891704487E-03
   0.9981360901426071E-04
   0.1373493522734600E-04
   0.2367020214519231E-03
  -0.3088698499689070E-04
   0.3134084938290492E-04
   0.3455729094201454E-04
   0.1159644996249379E-04
   0.0000000000000000E+00
   0.0000000000000000E+00
   0.0000000000000000E+00
   0.0000000000000000E+00
   0.0000000000000000E+00
   0.0000000000000000E+00
   0.0000000000000000E+00
   0.0000000000000000E+00
   0.0000000000000000E+00
   0.0000000000000000E+00
   0.0000000000000000E+00
   0.0000000000000000E+00
   0.0000000000000000E+00
   0.0000000000000000E+00
   0.0000000000000000E+00
   0.0000000000000000E+00
   0.0000000000000000E+00
   0.0000000000000000E+00
   0.0000000000000000E+00
   0.0000000000000000E+00
   0.0000000000000000E+00
   0.0000000000000000E+00
   0.0000000000000000E+00
   0.0000000000000000E+00
   0.0000000000000000E+00
   0.0000000000000000E+00
   0.0000000000000000E+00
   0.0000000000000000E+00
   0.0000000000000000E+00
   0.0000000000000000E+00
   0.0000000000000000E+00
   0.0000000000000000E+00
   0.0000000000000000E+00
   0.0000000000000000E+00
   0.0000000000000000E+00
   0.0000000000000000E+00
SCALARS w double 1
LOOKUP_TABLE default
  -0.3042401052151813E-02
  -0.3198523735301798E-02
   0.1003604996166467E-01
  -0.1402482228201045E-01
   0.0000000000000000E+00
   0.0000000000000000E+00
   0.0000000000000000E+00
   0.0000000000000000E+00
   0.0000000000000000E+00
  -0.1302727439150486E+00
  -0.4443277517481915E-01
  -0.7951420880451336E-02
  -0.8302645919871706E-02
  -0.6086481136774823E-02
  -0.9611971699559648E-02
  -0.7822575601685982E-02
  -0.1094632084251850E-01
   0.1575496059278445E-01
  -0.6724156468338889E-02
  -0.6730152398334698E-01
  -0.5180082447645540E-01
  -0.1455729138243070E-01
  -0.5110599090444960E-02
  -0.7980866823748947E-02
  -0.6748223754120774E-02
  -0.7104533749242441E-02
  -0.7078176900138676E-02
  -0.1369589353553084E-01
   0.1694840950332160E-01
   0.1956770076879319E-02
  -0.2070560869915230E-01
  -0.9824845168097320E-02
  -0.3063309368334512E-01
  -0.1493530310212021E-01
  -0.1645219908897489E-01
  -0.2375787663846502E-01
  -0.3034573876190621E-02
  -0.3203093914367678E-02
   0.9969904238724710E-02
  -0.1423865025412505E-01
   0.0000000000000000E+00
   0.0000000000000000E+00
   0.0000000000000000E+00
   0.0000000000000000E+00
   0.0000000000000000E+00
  -0.1296106490315402E+00
  -0.4397139555799565E-01
  -0.7931752822948104E-02
  -0.8353808570263792E-02
  -0.6101940496297716E-02
  -0.9638689221185697E-02
  -0.7842431527555380E-02
  -0.1111819872255785E-01
   0.1547771633117518E-01
  -0.6783395353163444E-02
  -0.6790908979966337E-01
  -0.5075811650364603E-01
  -0.1469483426548727E-01
  -0.5020893446460431E-02
  -0.8118301636016026E-02
  -0.7014043188516017E-02
  -0.7319549171653052E-02
  -0.7353647013831168E-02
  -0.1377554925075140E-01
   0.1671720825059998E-01
   0.1977504114921853E-02
  -0.2083762186303154E-01
  -0.1014551605957623E-01
  -0.3082556920685888E-01
  -0.1506032507847615E-01
  -0.1666285817768350E-01
  -0.2402650358047125E-01
  -0.3035351760590698E-02
  -0.3199839265732933E-02
   0.9962060646976301E-02
  -0.1419471685317048E-01
   0.0000000000000000E+00
   0.0000000000000000E+00
   0.0000000000000000E+00
   0.0000000000000000E+00
   0.0000000000000000E+00
  -0.1294871035765094E+00
  -0.4391236955723986E-01
  -0.7900138649855037E-02
  -0.8338977726761768E-02
  -0.6082630211028167E-02
  -0.9622722551918509E-02
  -0.7830330332509251E-02
  -0.1111205438546017E-01
   0.1548759234693428E-01
  -0.6771910302814267E-02
  -0.6787195784804817E-01
  -0.5077928797789134E-01
  -0.1465760552882880E-01
  -0.4996917337071559E-02
  -0.8100806024420251E-02
  -0.7004705480272062E-02
  -0.7294715257337935E-02
  -0.7328059591491918E-02
  -0.1374866468508703E-01
   0.1663674876165929E-01
   0.1877595633612988E-02
  -0.2078226667691363E-01
  -0.1010258629411146E-01
  -0.3075242240631962E-01
  -0.1502796683071400E-01
  -0.1662413850715125E-01
  -0.2397513425795746E-01
  -0.3035456376296692E-02
  -0.3199986586627531E-02
   0.9962067178116228E-02
  -0.1419470483502378E-01
   0.0000000000000000E+00
   0.0000000000000000E+00