# vtk DataFile Version 2.0
FUN3D:global_image_vtk
ASCII
DATASET UNSTRUCTURED_GRID
POINTS 216 double
    0.0000000000000000E+00    0.0000000000000000E+00    0.5000000000000000E+01
    0.0000000000000000E+00    0.0000000000000000E+00    0.3750000000000000E+01
    0.0000000000000000E+00    0.0000000000000000E+00    0.2500000000000000E+01
    0.0000000000000000E+00    0.0000000000000000E+00    0.1250000000000000E+01
    0.0000000000000000E+00    0.0000000000000000E+00    0.0000000000000000E+00
    0.1250000000000000E+01    0.0000000000000000E+00    0.0000000000000000E+00
    0.2500000000000000E+01    0.0000000000000000E+00    0.0000000000000000E+00
    0.3750000000000000E+01    0.0000000000000000E+00    0.0000000000000000E+00
    0.5000000000000000E+01    0.0000000000000000E+00    0.0000000000000000E+00
    0.5000000000000000E+01    0.0000000000000000E+00    0.1250000000000000E+01
    0.5000000000000000E+01    0.0000000000000000E+00    0.2500000000000000E+01
    0.5000000000000000E+01    0.0000000000000000E+00    0.3750000000000000E+01
    0.5000000000000000E+01    0.0000000000000000E+00    0.5000000000000000E+01
    0.3750000000000000E+01    0.0000000000000000E+00    0.5000000000000000E+01
    0.2500000000000000E+01    0.0000000000000000E+00    0.5000000000000000E+01
    0.1250000000000000E+01    0.0000000000000000E+00    0.5000000000000000E+01
    0.8087673404641089E+00    0.0000000000000000E+00    0.3046700411233810E+01
    0.7886107149397936E+00    0.0000000000000000E+00    0.1981265415950838E+01
    0.9272772293302283E+00    0.0000000000000000E+00    0.4070287583796232E+01
    0.4070226081761783E+01    0.0000000000000000E+00    0.9540325619275125E+00
    0.9224700799661973E+00    0.0000000000000000E+00    0.9463046427831353E+00
    0.4085981138224748E+01    0.0000000000000000E+00    0.4069983725354533E+01
    0.1559757281943150E+01    0.0000000000000000E+00    0.1635607059547088E+01
    0.2482905500262050E+01    0.0000000000000000E+00    0.1885385149929012E+01
    0.1660890649526405E+01    0.0000000000000000E+00    0.2508737357811018E+01
    0.1598111783087740E+01    0.0000000000000000E+00    0.3356656815401915E+01
    0.2519516809901736E+01    0.0000000000000000E+00    0.3120482633132017E+01
    0.2000153144652849E+01    0.0000000000000000E+00    0.4127941526767214E+01
    0.3039222624309763E+01    0.0000000000000000E+00    0.8728843884554416E+00
    0.1943909465021303E+01    0.0000000000000000E+00    0.8563427312614358E+00
    0.4181134289965387E+01    0.0000000000000000E+00    0.3039806936459394E+01
    0.3427857139900839E+01    0.0000000000000000E+00    0.1608316206941619E+01
    0.4204276726360096E+01    0.0000000000000000E+00    0.1992994776168015E+01
    0.3029173563817358E+01    0.0000000000000000E+00    0.4119574277282996E+01
    0.3439265668129285E+01    0.0000000000000000E+00    0.3362878032445769E+01
    0.3359002465395521E+01    0.0000000000000000E+00    0.2495945761348561E+01
    0.0000000000000000E+00   -0.1000000000000000E+01    0.5000000000000000E+01
    0.0000000000000000E+00   -0.1000000000000000E+01    0.3750000000000000E+01
    0.0000000000000000E+00   -0.1000000000000000E+01    0.2500000000000000E+01
    0.0000000000000000E+00   -0.1000000000000000E+01    0.1250000000000000E+01
    0.0000000000000000E+00   -0.1000000000000000E+01    0.0000000000000000E+00
    0.1250000000000000E+01   -0.1000000000000000E+01    0.0000000000000000E+00
    0.2500000000000000E+01   -0.1000000000000000E+01    0.0000000000000000E+00
    0.3750000000000000E+01   -0.1000000000000000E+01    0.0000000000000000E+00
    0.5000000000000000E+01   -0.1000000000000000E+01    0.0000000000000000E+00
    0.5000000000000000E+01   -0.1000000000000000E+01    0.1250000000000000E+01
    0.5000000000000000E+01   -0.1000000000000000E+01    0.2500000000000000E+01
    0.5000000000000000E+01   -0.1000000000000000E+01    0.3750000000000000E+01
    0.5000000000000000E+01   -0.1000000000000000E+01    0.5000000000000000E+01
    0.3750000000000000E+01   -0.1000000000000000E+01    0.5000000000000000E+01
    0.2500000000000000E+01   -0.1000000000000000E+01    0.5000000000000000E+01
    0.1250000000000000E+01   -0.1000000000000000E+01    0.5000000000000000E+01
    0.8087673404641089E+00   -0.1000000000000000E+01    0.3046700411233810E+01
    0.7886107149397936E+00   -0.1000000000000000E+01    0.1981265415950838E+01
    0.9272772293302283E+00   -0.1000000000000000E+01    0.4070287583796232E+01
    0.4070226081761783E+01   -0.1000000000000000E+01    0.9540325619275125E+00
    0.9224700799661973E+00   -0.1000000000000000E+01    0.9463046427831353E+00
    0.4085981138224748E+01   -0.1000000000000000E+01    0.4069983725354533E+01
    0.1559757281943150E+01   -0.1000000000000000E+01    0.1635607059547088E+01
    0.2482905500262050E+01   -0.1000000000000000E+01    0.1885385149929012E+01
    0.1660890649526405E+01   -0.1000000000000000E+01    0.2508737357811018E+01
    0.1598111783087740E+01   -0.1000000000000000E+01    0.3356656815401915E+01
    0.2519516809901736E+01   -0.1000000000000000E+01    0.3120482633132017E+01
    0.2000153144652849E+01   -0.1000000000000000E+01    0.4127941526767214E+01
    0.3039222624309763E+01   -0.1000000000000000E+01    0.8728843884554416E+00
    0.1943909465021303E+01   -0.1000000000000000E+01    0.8563427312614358E+00
    0.4181134289965387E+01   -0.1000000000000000E+01    0.3039806936459394E+01
    0.3427857139900839E+01   -0.1000000000000000E+01    0.1608316206941619E+01
    0.4204276726360096E+01   -0.1000000000000000E+01    0.1992994776168015E+01
    0.3029173563817358E+01   -0.1000000000000000E+01    0.4119574277282996E+01
    0.3439265668129285E+01   -0.1000000000000000E+01    0.3362878032445769E+01
    0.3359002465395521E+01   -0.1000000000000000E+01    0.2495945761348561E+01
    0.0000000000000000E+00   -0.2000000000000000E+01    0.5000000000000000E+01
    0.0000000000000000E+00   -0.2000000000000000E+01    0.3750000000000000E+01
    0.0000000000000000E+00   -0.2000000000000000E+01    0.2500000000000000E+01
    0.0000000000000000E+00   -0.2000000000000000E+01    0.1250000000000000E+01
    0.0000000000000000E+00   -0.2000000000000000E+01    0.0000000000000000E+00
    0.1250000000000000E+01   -0.2000000000000000E+01    0.0000000000000000E+00
    0.2500000000000000E+01   -0.2000000000000000E+01    0.0000000000000000E+00
    0.3750000000000000E+01   -0.2000000000000000E+01    0.0000000000000000E+00
    0.5000000000000000E+01   -0.2000000000000000E+01    0.0000000000000000E+00
    0.5000000000000000E+01   -0.2000000000000000E+01    0.1250000000000000E+01
    0.5000000000000000E+01   -0.2000000000000000E+01    0.2500000000000000E+01
    0.5000000000000000E+01   -0.2000000000000000E+01    0.3750000000000000E+01
    0.5000000000000000E+01   -0.2000000000000000E+01    0.5000000000000000E+01
    0.3750000000000000E+01   -0.2000000000000000E+01    0.5000000000000000E+01
    0.2500000000000000E+01   -0.2000000000000000E+01    0.5000000000000000E+01
    0.1250000000000000E+01   -0.2000000000000000E+01    0.5000000000000000E+01
    0.8087673404641089E+00   -0.2000000000000000E+01    0.3046700411233810E+01
    0.7886107149397936E+00   -0.2000000000000000E+01    0.1981265415950838E+01
    0.9272772293302283E+00   -0.2000000000000000E+01    0.4070287583796232E+01
    0.4070226081761783E+01   -0.2000000000000000E+01    0.9540325619275125E+00
    0.9224700799661973E+00   -0.2000000000000000E+01    0.9463046427831353E+00
    0.4085981138224748E+01   -0.2000000000000000E+01    0.4069983725354533E+01
    0.1559757281943150E+01   -0.2000000000000000E+01    0.1635607059547088E+01
    0.2482905500262050E+01   -0.2000000000000000E+01    0.1885385149929012E+01
    0.1660890649526405E+01   -0.2000000000000000E+01    0.2508737357811018E+01
    0.1598111783087740E+01   -0.2000000000000000E+01    0.3356656815401915E+01
    0.2519516809901736E+01   -0.2000000000000000E+01    0.3120482633132017E+01
    0.2000153144652849E+01   -0.2000000000000000E+01    0.4127941526767214E+01
    0.3039222624309763E+01   -0.2000000000000000E+01    0.8728843884554416E+00
    0.1943909465021303E+01   -0.2000000000000000E+01    0.8563427312614358E+00
    0.4181134289965387E+01   -0.2000000000000000E+01    0.3039806936459394E+01
    0.3427857139900839E+01   -0.2000000000000000E+01    0.1608316206941619E+01
    0.4204276726360096E+01   -0.2000000000000000E+01    0.1992994776168015E+01
    0.3029173563817358E+01   -0.2000000000000000E+01    0.4119574277282996E+01
    0.3439265668129285E+01   -0.2000000000000000E+01    0.3362878032445769E+01
    0.3359002465395521E+01   -0.2000000000000000E+01    0.2495945761348561E+01
    0.0000000000000000E+00   -0.3000000000000000E+01    0.5000000000000000E+01
    0.0000000000000000E+00   -0.3000000000000000E+01    0.3750000000000000E+01
    0.0000000000000000E+00   -0.3000000000000000E+01    0.2500000000000000E+01
    0.0000000000000000E+00   -0.3000000000000000E+01    0.1250000000000000E+01
    0.0000000000000000E+00   -0.3000000000000000E+01    0.0000000000000000E+00
    0.1250000000000000E+01   -0.3000000000000000E+01    0.0000000000000000E+00
    0.2500000000000000E+01   -0.3000000000000000E+01    0.0000000000000000E+00
    0.3750000000000000E+01   -0.3000000000000000E+01    0.0000000000000000E+00
    0.5000000000000000E+01   -0.3000000000000000E+01    0.0000000000000000E+00
    0.5000000000000000E+01   -0.3000000000000000E+01    0.1250000000000000E+01
    0.5000000000000000E+01   -0.3000000000000000E+01    0.2500000000000000E+01
    0.5000000000000000E+01   -0.3000000000000000E+01    0.3750000000000000E+01
    0.5000000000000000E+01   -0.3000000000000000E+01    0.5000000000000000E+01
    0.3750000000000000E+01   -0.3000000000000000E+01    0.5000000000000000E+01
    0.2500000000000000E+01   -0.3000000000000000E+01    0.5000000000000000E+01
    0.1250000000000000E+01   -0.3000000000000000E+01    0.5000000000000000E+01
    0.8087673404641089E+00   -0.3000000000000000E+01    0.3046700411233810E+01
[...]
POINT_DATA 216
SCALARS rho double 1
LOOKUP_TABLE default
   0.9904493787006344E+00
   0.9956296981220609E+00
   0.9572786358497156E+00
   0.1071765066815641E+01
   0.6433860114546482E+00
   0.9180915759809127E+00
   0.8966195405171618E+00
   0.8797104687941923E+00
   0.5638027635440162E+00
   0.9641555157511184E+00
   0.1013801766877896E+01
   0.9961988708712175E+00
   0.9931568590232928E+00
   0.9958643765063349E+00
   0.9901844804244122E+00
   0.9930928858486705E+00
   0.9870629652953797E+00
   0.9861886780017209E+00
   0.9883622971746316E+00
   0.9868945537631824E+00
   0.9481377896662463E+00
   0.9884197282095283E+00
   0.9831548281053758E+00
   0.1002589946525501E+01
   0.9987856734394929E+00
   0.9804007890377491E+00
   0.9836899086282972E+00
   0.9877009748066051E+00
   0.9186984187150352E+00
   0.9620310077329877E+00
   0.9991382037929446E+00
   0.9548644368264937E+00
   0.9817147239354710E+00
   0.9883749792707682E+00
   0.9849030231348450E+00
   0.9954564966576290E+00
   0.9904252233241618E+00
   0.9955924974067071E+00
   0.9570576681305895E+00
   0.1071533008113221E+01
   0.6461195656461476E+00
   0.9188042855617868E+00
   0.8979046039420356E+00
   0.8814915296472073E+00
   0.5657889502877264E+00
   0.9656303378732010E+00
   0.1014160730073782E+01
   0.9961746249866036E+00
   0.9931406001554822E+00
   0.9958451552146351E+00
   0.9901452019872035E+00
   0.9930413521089100E+00
   0.9869974621907812E+00
   0.9860542532750775E+00
   0.9883146389876559E+00
   0.9880452566278261E+00
   0.9481007281474169E+00
   0.9883961133310453E+00
   0.9830778557909507E+00
   0.1002473734307857E+01
   0.9986024941507372E+00
   0.9803585549423234E+00
   0.9836115725690145E+00
   0.9876687625455562E+00
   0.9191643680454017E+00
   0.9625084333311893E+00
   0.9991423204594453E+00
   0.9548773959890843E+00
   0.9819877489803303E+00
   0.9883422840137230E+00
   0.9848555409177706E+00
   0.9954380678452271E+00
   0.9904390527892175E+00
   0.9956007818831972E+00
   0.9570982861243948E+00
   0.1071543681394385E+01
   0.6463995577413695E+00
   0.9188126845221161E+00
   0.8983304565724561E+00
   0.8819342771662492E+00
   0.5661236843046705E+00
   0.9655676552115565E+00
   0.1014081095207992E+01
   0.9961879098363977E+00
   0.9931625105273509E+00
   0.9958493674250763E+00
   0.9901507149964263E+00
   0.9930588661913631E+00
   0.9870328989499918E+00
   0.9860931207967838E+00
   0.9883308148590214E+00
   0.9881725389745328E+00
   0.9481406854504357E+00
   0.9884246744307021E+00
   0.9831104354150891E+00
   0.1002454190952928E+01
   0.9986578163001837E+00
   0.9803910458305963E+00
   0.9836660211062865E+00
   0.9876936230155391E+00
   0.9193192419083334E+00
   0.9625270659454229E+00
   0.9991558562624137E+00
   0.9548890890181730E+00
   0.9819561233006853E+00
   0.9883716387468456E+00
   0.9849020908350057E+00
   0.9954432462095002E+00
   0.9904381833467129E+00
   0.9955981280289331E+00
   0.9570890611162753E+00
   0.1071543572987885E+01
   0.6463262579106428E+00
   0.9188058148536161E+00
   0.8982182905684295E+00
   0.8818785394831730E+00
   0.5660746559615905E+00
   0.9655828229632489E+00
   0.1014099381312814E+01
   0.9961929212658599E+00
   0.9931600528556856E+00
   0.9958432271189908E+00
   0.9901478387796521E+00
   0.9930556368911772E+00
   0.9870269215819938E+00
   0.9860877083008946E+00
   0.9883276271658127E+00
   0.9881704841201225E+00
   0.9481376653709334E+00
   0.9884235477158902E+00
   0.9831037217120273E+00
   0.1002464784706107E+01
   0.9986530257575724E+00
   0.9803837518175467E+00
   0.9836607345898496E+00
   0.9876880614999194E+00
   0.9193004144544903E+00
   0.9625380165067234E+00
   0.9991601980160095E+00
   0.9548930186480359E+00
   0.9819701462477215E+00
   0.9883672249275682E+00
   0.9848966869968490E+00
   0.9954484473538379E+00
   0.9904260937493775E+00
   0.9955951430544456E+00
   0.9570669051301416E+00
   0.1071533086080249E+01
   0.6461930961781447E+00
   0.9188110436724316E+00
   0.8980168395436620E+00
   0.8815473973084110E+00
   0.5658381305881305E+00
   0.9656151608583524E+00
   0.1014142385409307E+01
   0.9961696122667136E+00
   0.9931430794299647E+00
   0.9958512748114507E+00
   0.9901480570218419E+00
   0.9930445761773160E+00
   0.9870034379109809E+00
   0.9860596698478824E+00
   0.9883178251063753E+00
   0.9880473547076754E+00
   0.9481037443604589E+00
   0.9883972606844601E+00
   0.9830845718840050E+00
   0.1002463120084595E+01
   0.9986072872986187E+00
   0.9803658517073878E+00
   0.9836168788883484E+00
   0.9876743305814580E+00
   0.9191832482849928E+00
   0.9624974763913743E+00
   0.9991379646091409E+00
   0.9548734601226988E+00
   0.9819736934517408E+00
   0.9883467082245821E+00
   0.9848609675310083E+00
   0.9954328496119249E+00
   0.9904485005675311E+00
   0.9956270374009230E+00
   0.9572694236519609E+00
   0.1071764776146397E+01
   0.6433125702669392E+00
   0.9180847480290633E+00
   0.8965074553195100E+00
   0.8796547584736818E+00
   0.5637541367135103E+00
   0.9641706195356325E+00
   0.1013820147367233E+01
   0.9962038227260614E+00
   0.9931543949434053E+00
   0.9958582845403022E+00
   0.9901816199683806E+00
   0.9930896437707117E+00
   0.9870569827095906E+00
   0.9861832241722142E+00
   0.9883591094116686E+00
   0.9868923900524179E+00
   0.9481348504353897E+00
   0.9884185787718773E+00
   0.9831481494495651E+00
   0.1002600608291876E+01
   0.9987808359386442E+00
   0.9803934989187455E+00
   0.9836846054678806E+00
   0.9876954229438789E+00
   0.9186797041339878E+00
   0.9620421736651195E+00
   0.9991425059031027E+00
   0.9548685369708156E+00
   0.9817288780036181E+00
   0.9883705706461638E+00
   0.9848975858867242E+00
   0.9954617001477690E+00
SCALARS u double 1
LOOKUP_TABLE default
   0.5098409662368382E+00
   0.5068245468068115E+00
   0.5234680363463814E+00
   0.5090807271782533E+00
   0.0000000000000000E+00
   0.0000000000000000E+00
   0.0000000000000000E+00
   0.0000000000000000E+00
   0.0000000000000000E+00
   0.4994207623268271E+00
   0.4987249159786445E+00
   0.4979876464259996E+00
   0.4972070369106297E+00
   0.5059477038095385E+00
   0.5106818852711004E+00
   0.5118918337530087E+00
   0.5020789768585902E+00
   0.5801980787365454E+00
   0.5122873658272359E+00
   0.4700693765707131E+00
   0.3796079938351876E+00
   0.5023156294816505E+00
   0.5220446596787980E+00
   0.5463555961342088E+00
   0.5387135212084972E+00
   0.5099980978325659E+00
   0.5230964627208678E+00
   0.5089444132841704E+00
   0.3816543136057465E+00
   0.3702021911423158E+00
   0.5169441240320798E+00
   0.5341430617232039E+00
   0.5553479424468263E+00
   0.5085636962479810E+00
   0.5136104287652106E+00
   0.5513678681403470E+00
   0.5098743465767603E+00
   0.5068767672111946E+00
   0.5234852384293848E+00
   0.5098748786757042E+00
   0.0000000000000000E+00
   0.0000000000000000E+00
   0.0000000000000000E+00
   0.0000000000000000E+00
   0.0000000000000000E+00
   0.5005876453807225E+00
   0.4992603171022556E+00
   0.4978385461427084E+00
   0.4971393688997531E+00
   0.5060421320889814E+00
   0.5108118215823307E+00
   0.5119718605539579E+00
   0.5020159734122185E+00
   0.5809695848759242E+00
   0.5123348570185254E+00
   0.4724561691499252E+00
   0.3804042202346606E+00
   0.5021267327951715E+00
   0.5240977392108483E+00
   0.5485448180661624E+00
   0.5390164579379391E+00
   0.5099495684188301E+00
   0.5229669661898269E+00
   0.5089653930048473E+00
   0.3823099413166879E+00
   0.3708014881030416E+00
   0.5168657282867999E+00
   0.5368692974690286E+00
   0.5571883090710511E+00
   0.5084908131703268E+00
   0.5133905540079653E+00
   0.5522334291678277E+00
   0.5098645741087456E+00
   0.5068657379771137E+00
   0.5234602975786365E+00
   0.5097975596784716E+00
   0.0000000000000000E+00
   0.0000000000000000E+00
   0.0000000000000000E+00
   0.0000000000000000E+00
   0.0000000000000000E+00
   0.5006522753725390E+00
   0.4993518972121796E+00
   0.4978206298827190E+00
   0.4971256434547162E+00
   0.5060155220871922E+00
   0.5107715999990466E+00
   0.5119457262574578E+00
   0.5019768189229782E+00
   0.5808663055276438E+00
   0.5123032281311207E+00
   0.4724028030945419E+00
   0.3804565782688518E+00
   0.5020919087197467E+00
   0.5240650950731741E+00
   0.5485022274884064E+00
   0.5389379444313032E+00
   0.5099028800566924E+00
   0.5229011815902701E+00
   0.5089188371074241E+00
   0.3822397929862836E+00
   0.3707465321299450E+00
   0.5168264356639478E+00
   0.5368001093015289E+00
   0.5572289090441277E+00
   0.5084447720928129E+00
   0.5133352812443249E+00
   0.5521786707357633E+00
   0.5098642368472932E+00
   0.5068676942008067E+00
   0.5234675667194171E+00
   0.5098062897450195E+00
   0.0000000000000000E+00
   0.0000000000000000E+00
   0.0000000000000000E+00
   0.0000000000000000E+00
   0.0000000000000000E+00
   0.5006527531242401E+00
   0.4993421595687185E+00
   0.4978255612333112E+00
   0.4971352407856261E+00
   0.5060391750160558E+00
   0.5107914862166578E+00
   0.5119494441471407E+00
   0.5019854576595747E+00
   0.5808816908678187E+00
   0.5123086977592435E+00
   0.4724205676384248E+00
   0.3804405935248735E+00
   0.5021060788515423E+00
   0.5240754850130571E+00
   0.5485096673566022E+00
   0.5389511166420536E+00
   0.5099134110221418E+00
   0.5229111325297146E+00
   0.5089292594246437E+00
   0.3822474331246363E+00
   0.3707474903770868E+00
   0.5168354217583574E+00
   0.5368148309954452E+00
   0.5572291972330448E+00
   0.5084574094095136E+00
   0.5133470285440199E+00
   0.5521820171323526E+00
   0.5098746816003941E+00
   0.5068748186464599E+00
   0.5234779717781737E+00
   0.5098661492138673E+00
   0.0000000000000000E+00
   0.0000000000000000E+00
   0.0000000000000000E+00
   0.0000000000000000E+00
   0.0000000000000000E+00
   0.5005871379416059E+00
   0.4992700521225286E+00
   0.4978335909146122E+00
   0.4971297422616465E+00
   0.5060185008328471E+00
   0.5107919483999851E+00
   0.5119681467542105E+00
   0.5020073527561236E+00
   0.5809541650822555E+00
   0.5123293847302102E+00
   0.4724384075377806E+00
   0.3804202437787542E+00
   0.5021125527598496E+00
   0.5240873267167414E+00
   0.5485373521176928E+00
   0.5390032692087668E+00
   0.5099390391816671E+00
   0.5229569961866070E+00
   0.5089549643528389E+00
   0.3823022411737116E+00
   0.3708005113258271E+00
   0.5168567089988592E+00
   0.5368545248924653E+00
   0.5571879840168155E+00
   0.5084781706544433E+00
   0.5133787765373297E+00
   0.5522300408951226E+00
   0.5098406237533158E+00
   0.5068265129781361E+00
   0.5234753369635121E+00
   0.5090893660265339E+00
   0.0000000000000000E+00
   0.0000000000000000E+00
   0.0000000000000000E+00
   0.0000000000000000E+00
   0.0000000000000000E+00
   0.4994212993637058E+00
   0.4987150789949548E+00
   0.4979925924484249E+00
   0.4972166405091110E+00
   0.5059713637775703E+00
   0.5107018106070699E+00
   0.5118955854137968E+00
   0.5020876383136037E+00
   0.5802133621762990E+00
   0.5122928423515765E+00
   0.4700869888484605E+00
   0.3795922878108926E+00
   0.5023297764076212E+00
   0.5220550427881935E+00
   0.5463630100899551E+00
   0.5387266776516824E+00
   0.5100086161263736E+00
   0.5231063825960617E+00
   0.5089548328487472E+00
   0.3816623190247516E+00
   0.3702034483933224E+00
   0.5169530938824849E+00
   0.5341579059916721E+00
   0.5553482660553337E+00
   0.5085763070119866E+00
   0.5136221404416460E+00
   0.5513711809787352E+00
SCALARS v double 1
LOOKUP_TABLE default
   0.0000000000000000E+00
   0.0000000000000000E+00
   0.0000000000000000E+00
   0.0000000000000000E+00
   0.0000000000000000E+00
   0.0000000000000000E+00
   0.0000000000000000E+00
   0.0000000000000000E+00
   0.0000000000000000E+00
   0.0000000000000000E+00
   0.0000000000000000E+00
   0.0000000000000000E+00
   0.0000000000000000E+00
   0.0000000000000000E+00
   0.0000000000000000E+00
   0.0000000000000000E+00
   0.0000000000000000E+00
   0.0000000000000000E+00
   0.0000000000000000E+00
   0.0000000000000000E+00
   0.0000000000000000E+00
   0.0000000000000000E+00
   0.0000000000000000E+00
   0.0000000000000000E+00
   0.0000000000000000E+00
   0.0000000000000000E+00
   0.0000000000000000E+00
   0.0000000000000000E+00
   0.0000000000000000E+00
   0.0000000000000000E+00
   0.0000000000000000E+00
   0.0000000000000000E+00
   0.0000000000000000E+00
   0.0000000000000000E+00
   0.0000000000000000E+00
   0.0000000000000000E+00
   0.3071356860308173E-05
   0.2940673128085663E-05
  -0.8769597322333621E-04
   0.3899079478026609E-05
   0.0000000000000000E+00
   0.0000000000000000E+00
   0.0000000000000000E+00
   0.0000000000000000E+00
   0.0000000000000000E+00
   0.6292769770829346E-03
   0.2384090310663515E-03
  -0.1301834689104404E-04
  -0.1530924591951352E-04
  -0.1557591103062681E-04
  -0.2908938912834038E-04
  -0.2615543852766025E-04
  -0.5968139630750722E-04
  -0.4152122584535578E-04
  -0.2272940737566542E-04
  -0.2304691057186494E-04
  -0.2869395484744502E-03
  -0.2167134328344289E-04
  -0.1031199386320814E-03
  -0.9840201773608410E-04
  -0.1008476790095179E-03
  -0.4854166579809884E-04
  -0.6680747027553886E-04
  -0.2599055809093397E-04
  -0.3430196641779880E-03
  -0.1154976154319431E-03
  -0.9771682334673120E-05
  -0.2292064421712723E-03
   0.4253913073332383E-04
  -0.2997885571229649E-04
  -0.3378782480378147E-04
  -0.1586249762613346E-04
   0.4376362969322988E-05
   0.1269750013482190E-05
  -0.4525759596718550E-06
   0.1698348033447140E-04
   0.0000000000000000E+00
   0.0000000000000000E+00
   0.0000000000000000E+00
   0.0000000000000000E+00
   0.0000000000000000E+00
   0.6899445793521615E-04
   0.1758825712010970E-04
   0.9726366221301109E-06
   0.1294455593272119E-04
   0.1202213946001416E-04
   0.4394697282156925E-05
   0.2443440807520703E-05
   0.6728951303207766E-05
   0.2047024201499140E-04
   0.6574214230513563E-05
  -0.2350757313351756E-04
  -0.3061450521980604E-04
   0.8908359766465962E-05
  -0.2352250461444922E-05
  -0.1122308013504696E-04
   0.8683936495039136E-05
   0.9929834484974502E-05
   0.8268596542524257E-05
   0.1236994390768695E-04
  -0.4131006456426481E-04
  -0.1251067287352016E-04
  -0.6367082259712451E-06
  -0.4378670268144063E-04
  -0.1329917841854022E-04
   0.1164955934570582E-04
   0.9833131120921016E-05
   0.4227117367922395E-05
  -0.4374205357980995E-05
  -0.1277360238516237E-05
   0.4617950418824438E-06
  -0.1698970965449885E-04
   0.0000000000000000E+00
   0.0000000000000000E+00
   0.0000000000000000E+00
   0.0000000000000000E+00
   0.0000000000000000E+00
  -0.6895037469969268E-04
  -0.1761242342895905E-04
  -0.9552372371554359E-06
  -0.1288506854797898E-04
  -0.1200078642528426E-04
  -0.4402683895342019E-05
  -0.2454813498879610E-05
  -0.6721274254066342E-05
  -0.2046176030817325E-04
  -0.6576152570209580E-05
   0.2357427681870219E-04
   0.3058180435633452E-04
  -0.8875652323100092E-05
   0.2354731834318453E-05
   0.1121303306523931E-04
  -0.8675428996828886E-05
  -0.9918516836399713E-05
  -0.8241647338950928E-05
  -0.1236675929675533E-04
   0.4132770268402911E-04
   0.1250282032515903E-04
   0.6406595853526131E-06
   0.4377805027200407E-04
   0.1327933261098359E-04
  -0.1163988287012605E-04
  -0.9795821558034556E-05
  -0.4236202532988967E-05
  -0.3072177111600427E-05
  -0.2943047256275801E-05
   0.8771264488532453E-04
  -0.3952399368347720E-05
   0.0000000000000000E+00
   0.0000000000000000E+00
   0.0000000000000000E+00
   0.0000000000000000E+00
   0.0000000000000000E+00
  -0.6292546064890097E-03
  -0.2383732872161149E-03
   0.1302344781232388E-04
   0.1532430519018890E-04
   0.1558921738092913E-04
   0.2909362873889184E-04
   0.2614861965546010E-04
   0.5968391796770943E-04
   0.4148770003510046E-04
   0.2272627078544546E-04
   0.2317162873192225E-04
   0.2868872714569064E-03
   0.2168622941989404E-04
   0.1030885983233312E-03
   0.9837795031019466E-04
   0.1008301905049496E-03
   0.4853902164004300E-04
   0.6681438422819802E-04
   0.2598274560573663E-04
   0.3430958055304091E-03
   0.1155070244491137E-03
   0.9766110472843939E-05
   0.2292558637147049E-03
  -0.4250959874449560E-04
   0.2997453175814826E-04
   0.3380720484916665E-04
   0.1584183118593894E-04
   0.0000000000000000E+00
   0.0000000000000000E+00
   0.0000000000000000E+00
   0.0000000000000000E+00
   0.0000000000000000E+00
   0.0000000000000000E+00
   0.0000000000000000E+00
   0.0000000000000000E+00
   0.0000000000000000E+00
   0.0000000000000000E+00
   0.0000000000000000E+00
   0.0000000000000000E+00
   0.0000000000000000E+00
   0.0000000000000000E+00
   0.0000000000000000E+00
   0.0000000000000000E+00
   0.0000000000000000E+00
   0.0000000000000000E+00
   0.0000000000000000E+00
   0.0000000000000000E+00
   0.0000000000000000E+00
   0.0000000000000000E+00
   0.0000000000000000E+00
   0.0000000000000000E+00
   0.0000000000000000E+00
   0.0000000000000000E+00
   0.0000000000000000E+00
   0.0000000000000000E+00
   0.0000000000000000E+00
   0.0000000000000000E+00
   0.0000000000000000E+00
   0.0000000000000000E+00
   0.0000000000000000E+00
   0.0000000000000000E+00
   0.0000000000000000E+00
   0.0000000000000000E+00
SCALARS w double 1
LOOKUP_TABLE default
  -0.3401682630083431E-02
  -0.3190533001776863E-02
   0.1061713134468891E-01
  -0.1449140223381185E-01
   0.0000000000000000E+00
   0.0000000000000000E+00
   0.0000000000000000E+00
   0.0000000000000000E+00
   0.0000000000000000E+00
  -0.1271106904861940E+00
  -0.4612589735023846E-01
  -0.8525349567378691E-02
  -0.8344544666291026E-02
  -0.6184813430127819E-02
  -0.8997938109140487E-02
  -0.7910916251671861E-02
  -0.1070293788447911E-01
   0.1539358980849937E-01
  -0.7100821413451260E-02
  -0.6495689560862722E-01
  -0.5191664732424660E-01
  -0.1398910576856748E-01
  -0.5570850682450825E-02
  -0.8251493804615479E-02
  -0.6881931927943522E-02
  -0.7309301339540941E-02
  -0.7516323001811400E-02
  -0.1440141938972765E-01
   0.1619427740140462E-01
   0.1392402348870047E-02
  -0.2141700237510809E-01
  -0.1062277652453472E-01
  -0.3089823921572183E-01
  -0.1546140918575895E-01
  -0.1698489742294788E-01
  -0.2368144615621233E-01
  -0.3395776402798427E-02
  -0.3198248388696280E-02
   0.1054876956596996E-01
  -0.1474477609802654E-01
   0.0000000000000000E+00
   0.0000000000000000E+00
   0.0000000000000000E+00
   0.0000000000000000E+00
   0.0000000000000000E+00
  -0.1264904552339009E+00
  -0.4563470888571419E-01
  -0.8477569354630954E-02
  -0.8402643245860342E-02
  -0.6196689739180221E-02
  -0.9020595788991505E-02
  -0.7950764765096282E-02
  -0.1088262301226783E-01
   0.1508851174300205E-01
  -0.7164319617776228E-02
  -0.6562308960959023E-01
  -0.5108658252572677E-01
  -0.1415272358110529E-01
  -0.5621625279593893E-02
  -0.8502072525369459E-02
  -0.7182700398401597E-02
  -0.7535666694835374E-02
  -0.7814379356431410E-02
  -0.1450223176193862E-01
   0.1596857523929741E-01
   0.1340369704136030E-02
  -0.2156169652776968E-01
  -0.1100967454544640E-01
  -0.3109370360003326E-01
  -0.1561561255098128E-01
  -0.1723231435593471E-01
  -0.2401590310955711E-01
  -0.3388156934762905E-02
  -0.3196082977006496E-02
   0.1053526805073987E-01
  -0.1467870582306773E-01
   0.0000000000000000E+00
   0.0000000000000000E+00
   0.0000000000000000E+00
   0.0000000000000000E+00
   0.0000000000000000E+00
  -0.1263454697590662E+00
  -0.4556358877181248E-01
  -0.8449667156560219E-02
  -0.8372488592233331E-02
  -0.6180858023299153E-02
  -0.9015108398605334E-02
  -0.7939427076769196E-02
  -0.1086968762094525E-01
   0.1511067158635093E-01
  -0.7149835988026786E-02
  -0.6556648732952108E-01
  -0.5101261543515970E-01
  -0.1409678049087576E-01
  -0.5543462521601972E-02
  -0.8436961106611686E-02
  -0.7140441801796058E-02
  -0.7500128180181321E-02
  -0.7762491372143972E-02
  -0.1446346402491481E-01
   0.1590475781216973E-01
   0.1271571531599650E-02
  -0.2148811094725902E-01
  -0.1093745523528756E-01
  -0.3101118381211820E-01
  -0.1556043007484449E-01
  -0.1715923238451974E-01
  -0.2392968838582765E-01
  -0.3388726646050788E-02
  -0.3198438145842620E-02
   0.1053718656242678E-01
  -0.1468549312084349E-01
   0.0000000000000000E+00
   0.0000000000000000E+00