# vtk DataFile Version 2.0
FUN3D:global_image_vtk
ASCII
DATASET UNSTRUCTURED_GRID
POINTS 350 double
    0.5000000000000000E+01    0.0000000000000000E+00    0.5000000000000000E+01
    0.4000000000000000E+01    0.0000000000000000E+00    0.5000000000000000E+01
    0.3000000000000000E+01    0.0000000000000000E+00    0.5000000000000000E+01
    0.2000000000000000E+01    0.0000000000000000E+00    0.5000000000000000E+01
    0.9999999999999998E+00    0.0000000000000000E+00    0.5000000000000000E+01
    0.0000000000000000E+00    0.0000000000000000E+00    0.5000000000000000E+01
    0.0000000000000000E+00    0.0000000000000000E+00    0.4000000000000000E+01
    0.0000000000000000E+00    0.0000000000000000E+00    0.3000000000000000E+01
    0.0000000000000000E+00    0.0000000000000000E+00    0.2000000000000000E+01
    0.0000000000000000E+00    0.0000000000000000E+00    0.9999999999999998E+00
    0.0000000000000000E+00    0.0000000000000000E+00    0.0000000000000000E+00
    0.1000000000000000E+01    0.0000000000000000E+00    0.0000000000000000E+00
    0.2000000000000000E+01    0.0000000000000000E+00    0.0000000000000000E+00
    0.3000000000000000E+01    0.0000000000000000E+00    0.0000000000000000E+00
    0.4000000000000000E+01    0.0000000000000000E+00    0.0000000000000000E+00
    0.5000000000000000E+01    0.0000000000000000E+00    0.0000000000000000E+00
    0.5000000000000000E+01    0.0000000000000000E+00    0.1000000000000000E+01
    0.5000000000000000E+01    0.0000000000000000E+00    0.2000000000000000E+01
    0.5000000000000000E+01    0.0000000000000000E+00    0.3000000000000000E+01
    0.5000000000000000E+01    0.0000000000000000E+00    0.4000000000000000E+01
    0.4322050724693945E+01    0.0000000000000000E+00    0.4272847764579289E+01
    0.4395933514933383E+01    0.0000000000000000E+00    0.6968157305690375E+00
    0.4822566552045414E+00    0.0000000000000000E+00    0.4869914123714657E+00
    0.6915840874870021E+00    0.0000000000000000E+00    0.4412138888481547E+01
    0.3399851674277183E+01    0.0000000000000000E+00    0.4097916069546335E+01
    0.2387722604716090E+01    0.0000000000000000E+00    0.4289612581570788E+01
    0.2530539425941974E+01    0.0000000000000000E+00    0.3425796000045182E+01
    0.4218243643927281E+01    0.0000000000000000E+00    0.1577295032585114E+01
    0.4374706835472756E+01    0.0000000000000000E+00    0.2456049093849535E+01
    0.3551860412513510E+01    0.0000000000000000E+00    0.2339930221808592E+01
    0.2949794352503393E+01    0.0000000000000000E+00    0.5481475950050476E+00
    0.7861633687955188E+00    0.0000000000000000E+00    0.2248355130517770E+01
    0.5798833877919640E+00    0.0000000000000000E+00    0.2968095534677868E+01
    0.9567989459488916E+00    0.0000000000000000E+00    0.9597666531489262E+00
    0.1484741644122566E+01    0.0000000000000000E+00    0.4363965165706898E+01
    0.1026777559850325E+01    0.0000000000000000E+00    0.3706650893855072E+01
    0.2039106473515760E+01    0.0000000000000000E+00    0.1998969209862488E+01
    0.1300624340922514E+01    0.0000000000000000E+00    0.1814065253577793E+01
    0.1818986365136347E+01    0.0000000000000000E+00    0.1286729705298721E+01
    0.3653583824847581E+01    0.0000000000000000E+00    0.9901573836014240E+00
    0.4143524820619449E+01    0.0000000000000000E+00    0.3349542163936307E+01
    0.1820064053502506E+01    0.0000000000000000E+00    0.3699731047579209E+01
    0.1584392186197914E+01    0.0000000000000000E+00    0.2795974726684905E+01
    0.1600595232801024E+01    0.0000000000000000E+00    0.6068725132371939E+00
    0.2227190852919879E+01    0.0000000000000000E+00    0.7878662077383224E+00
    0.6087173311333847E+00    0.0000000000000000E+00    0.1604437407448898E+01
    0.2791514824717063E+01    0.0000000000000000E+00    0.1521675228311488E+01
    0.2652084981436515E+01    0.0000000000000000E+00    0.2569083733163254E+01
    0.3287666143370331E+01    0.0000000000000000E+00    0.3173897562080839E+01
    0.3566016613004364E+01    0.0000000000000000E+00    0.1597010715137857E+01
    0.5000000000000000E+01   -0.8333333333333334E+00    0.5000000000000000E+01
    0.4000000000000000E+01   -0.8333333333333334E+00    0.5000000000000000E+01
    0.3000000000000000E+01   -0.8333333333333334E+00    0.5000000000000000E+01
    0.2000000000000000E+01   -0.8333333333333334E+00    0.5000000000000000E+01
    0.9999999999999998E+00   -0.8333333333333334E+00    0.5000000000000000E+01
    0.0000000000000000E+00   -0.8333333333333334E+00    0.5000000000000000E+01
    0.0000000000000000E+00   -0.8333333333333334E+00    0.4000000000000000E+01
    0.0000000000000000E+00   -0.8333333333333334E+00    0.3000000000000000E+01
    0.0000000000000000E+00   -0.8333333333333334E+00    0.2000000000000000E+01
    0.0000000000000000E+00   -0.8333333333333334E+00    0.9999999999999998E+00
    0.0000000000000000E+00   -0.8333333333333334E+00    0.0000000000000000E+00
    0.1000000000000000E+01   -0.8333333333333334E+00    0.0000000000000000E+00
    0.2000000000000000E+01   -0.8333333333333334E+00    0.0000000000000000E+00
    0.3000000000000000E+01   -0.8333333333333334E+00    0.0000000000000000E+00
    0.4000000000000000E+01   -0.8333333333333334E+00    0.0000000000000000E+00
    0.5000000000000000E+01   -0.8333333333333334E+00    0.0000000000000000E+00
    0.5000000000000000E+01   -0.8333333333333334E+00    0.1000000000000000E+01
    0.5000000000000000E+01   -0.8333333333333334E+00    0.2000000000000000E+01
    0.5000000000000000E+01   -0.8333333333333334E+00    0.3000000000000000E+01
    0.5000000000000000E+01   -0.8333333333333334E+00    0.4000000000000000E+01
    0.4322050724693945E+01   -0.8333333333333334E+00    0.4272847764579289E+01
    0.4395933514933383E+01   -0.8333333333333334E+00    0.6968157305690375E+00
    0.4822566552045414E+00   -0.8333333333333334E+00    0.4869914123714657E+00
    0.6915840874870021E+00   -0.8333333333333334E+00    0.4412138888481547E+01
    0.3399851674277183E+01   -0.8333333333333334E+00    0.4097916069546335E+01
    0.2387722604716090E+01   -0.8333333333333334E+00    0.4289612581570788E+01
    0.2530539425941974E+01   -0.8333333333333334E+00    0.3425796000045182E+01
    0.4218243643927281E+01   -0.8333333333333334E+00    0.1577295032585114E+01
    0.4374706835472756E+01   -0.8333333333333334E+00    0.2456049093849535E+01
    0.3551860412513510E+01   -0.8333333333333334E+00    0.2339930221808592E+01
    0.2949794352503393E+01   -0.8333333333333334E+00    0.5481475950050476E+00
    0.7861633687955188E+00   -0.8333333333333334E+00    0.2248355130517770E+01
    0.5798833877919640E+00   -0.8333333333333334E+00    0.2968095534677868E+01
    0.9567989459488916E+00   -0.8333333333333334E+00    0.9597666531489262E+00
    0.1484741644122566E+01   -0.8333333333333334E+00    0.4363965165706898E+01
    0.1026777559850325E+01   -0.8333333333333334E+00    0.3706650893855072E+01
    0.2039106473515760E+01   -0.8333333333333334E+00    0.1998969209862488E+01
    0.1300624340922514E+01   -0.8333333333333334E+00    0.1814065253577793E+01
    0.1818986365136347E+01   -0.8333333333333334E+00    0.1286729705298721E+01
    0.3653583824847581E+01   -0.8333333333333334E+00    0.9901573836014240E+00
    0.4143524820619449E+01   -0.8333333333333334E+00    0.3349542163936307E+01
    0.1820064053502506E+01   -0.8333333333333334E+00    0.3699731047579209E+01
    0.1584392186197914E+01   -0.8333333333333334E+00    0.2795974726684905E+01
    0.1600595232801024E+01   -0.8333333333333334E+00    0.6068725132371939E+00
    0.2227190852919879E+01   -0.8333333333333334E+00    0.7878662077383224E+00
    0.6087173311333847E+00   -0.8333333333333334E+00    0.1604437407448898E+01
    0.2791514824717063E+01   -0.8333333333333334E+00    0.1521675228311488E+01
    0.2652084981436515E+01   -0.8333333333333334E+00    0.2569083733163254E+01
    0.3287666143370331E+01   -0.8333333333333334E+00    0.3173897562080839E+01
    0.3566016613004364E+01   -0.8333333333333334E+00    0.1597010715137857E+01
    0.5000000000000000E+01   -0.1666666666666667E+01    0.5000000000000000E+01
    0.4000000000000000E+01   -0.1666666666666667E+01    0.5000000000000000E+01
    0.3000000000000000E+01   -0.1666666666666667E+01    0.5000000000000000E+01
    0.2000000000000000E+01   -0.1666666666666667E+01    0.5000000000000000E+01
    0.9999999999999998E+00   -0.1666666666666667E+01    0.5000000000000000E+01
    0.0000000000000000E+00   -0.1666666666666667E+01    0.5000000000000000E+01
    0.0000000000000000E+00   -0.1666666666666667E+01    0.4000000000000000E+01
    0.0000000000000000E+00   -0.1666666666666667E+01    0.3000000000000000E+01
    0.0000000000000000E+00   -0.1666666666666667E+01    0.2000000000000000E+01
    0.0000000000000000E+00   -0.1666666666666667E+01    0.9999999999999998E+00
    0.0000000000000000E+00   -0.1666666666666667E+01    0.0000000000000000E+00
    0.1000000000000000E+01   -0.1666666666666667E+01    0.0000000000000000E+00
    0.2000000000000000E+01   -0.1666666666666667E+01    0.0000000000000000E+00
    0.3000000000000000E+01   -0.1666666666666667E+01    0.0000000000000000E+00
    0.4000000000000000E+01   -0.1666666666666667E+01    0.0000000000000000E+00
    0.5000000000000000E+01   -0.1666666666666667E+01    0.0000000000000000E+00
    0.5000000000000000E+01   -0.1666666666666667E+01    0.1000000000000000E+01
    0.5000000000000000E+01   -0.1666666666666667E+01    0.2000000000000000E+01
    0.5000000000000000E+01   -0.1666666666666667E+01    0.3000000000000000E+01
    0.5000000000000000E+01   -0.1666666666666667E+01    0.4000000000000000E+01
    0.4322050724693945E+01   -0.1666666666666667E+01    0.4272847764579289E+01
    0.4395933514933383E+01   -0.1666666666666667E+01    0.6968157305690375E+00
    0.4822566552045414E+00   -0.1666666666666667E+01    0.4869914123714657E+00
    0.6915840874870021E+00   -0.1666666666666667E+01    0.4412138888481547E+01
    0.3399851674277183E+01   -0.1666666666666667E+01    0.4097916069546335E+01
[...]
POINT_DATA 350
SCALARS rho double 1
LOOKUP_TABLE default
   0.1002345897014196E+01
   0.1001879768396573E+01
   0.1002019963467190E+01
   0.1005527397374693E+01
   0.1004665434530875E+01
   0.1003820654171689E+01
   0.1005548698715933E+01
   0.1007788253535819E+01
   0.1034867809045525E+01
   0.1007249806166669E+01
   0.1502985015597083E+01
   0.9223351478218895E+00
   0.9841315668516443E+00
   0.9862426114863783E+00
   0.9800979178463467E+00
   0.8204247031891854E+00
   0.9832349875179467E+00
   0.1019028252562309E+01
   0.1005105460940324E+01
   0.1002110880346687E+01
   0.1003082646794581E+01
   0.9962327168578959E+00
   0.1098402844791313E+01
   0.1004979560379242E+01
   0.1003105983595316E+01
   0.1003019773900443E+01
   0.1004612735770811E+01
   0.9992006804574021E+00
   0.1004602121567208E+01
   0.9964429850230976E+00
   0.1002836937208944E+01
   0.1012498750284573E+01
   0.1007528652766416E+01
   0.1068112441417716E+01
   0.1004638761484548E+01
   0.1007271051133414E+01
   0.9975378071238689E+00
   0.9935061414065618E+00
   0.1001874327997835E+01
   0.9847222160072836E+00
   0.1003691835737523E+01
   0.1003893998798393E+01
   0.1010037372536390E+01
   0.9755440284444183E+00
   0.1019513027594877E+01
   0.1002666094918279E+01
   0.1008299282228945E+01
   0.9960704574568778E+00
   0.1000964502830987E+01
   0.1003366492644891E+01
   0.1002308664031413E+01
   0.1001736885759681E+01
   0.1001846098739300E+01
   0.1005451833388672E+01
   0.1004599448709022E+01
   0.1003796828197178E+01
   0.1005452240549013E+01
   0.1007546578691439E+01
   0.1034545304079654E+01
   0.1004075690231054E+01
   0.1504710965651933E+01
   0.9195270091579081E+00
   0.9838324637888797E+00
   0.9870807731707371E+00
   0.9803375972954157E+00
   0.8215262202079138E+00
   0.9885266787316728E+00
   0.1020625144924829E+01
   0.1004986938103757E+01
   0.1002017352741770E+01
   0.1003005547327483E+01
   0.1000055034879381E+01
   0.1098953960154782E+01
   0.1004912394172194E+01
   0.1003020346326694E+01
   0.1002862488337870E+01
   0.1004555309443090E+01
   0.1000636380806191E+01
   0.1004822298193242E+01
   0.9964147411910207E+00
   0.1005259266433928E+01
   0.1012157794718629E+01
   0.1007332180330787E+01
   0.1068543290914638E+01
   0.1004527062427422E+01
   0.1007101265758219E+01
   0.9969186397218388E+00
   0.9928318608171791E+00
   0.1001871730535719E+01
   0.9868600070278395E+00
   0.1003676509492798E+01
   0.1003692764715816E+01
   0.1009954787074750E+01
   0.9763461143720635E+00
   0.1021433867906786E+01
   0.1001439098258073E+01
   0.1008576083965087E+01
   0.9957942223599778E+00
   0.1000897074419865E+01
   0.1003900093544724E+01
   0.1002331995943633E+01
   0.1001804444338047E+01
   0.1001934167678101E+01
   0.1005526561201271E+01
   0.1004646620311744E+01
   0.1003817419363187E+01
   0.1005494327735607E+01
   0.1007609033088391E+01
   0.1034683222679259E+01
   0.1004035170003943E+01
   0.1505247579737310E+01
   0.9191749889980824E+00
   0.9840556375991124E+00
   0.9873541075771556E+00
   0.9804627376529541E+00
   0.8218437799473878E+00
   0.9885175353684820E+00
   0.1020603631694413E+01
   0.1005007966084096E+01
   0.1002049475867565E+01
   0.1003050083572791E+01
   0.1000035144943826E+01
   0.1099532241130883E+01
   0.1004961479872607E+01
   0.1003087521768045E+01
   0.1002946146323126E+01
   0.1004646249006172E+01
   0.1000728911812296E+01
   0.1004828847561274E+01
   0.9964523549689972E+00
   0.1005379464315628E+01
   0.1012328165301772E+01
   0.1007433480083316E+01
   0.1068972847899236E+01
   0.1004598404613907E+01
   0.1007188384501595E+01
   0.9970696775438609E+00
   0.9929725571832265E+00
   0.1002092139532862E+01
   0.9869842761689266E+00
   0.1003721418587639E+01
   0.1003795657750921E+01
   0.1010084371930308E+01
   0.9766681284388669E+00
   0.1021664023722485E+01
   0.1001647514117005E+01
   0.1008734858458209E+01
   0.9958776276283092E+00
   0.1000963310706636E+01
   0.1003938818723525E+01
   0.1002316387024180E+01
   0.1001779381022670E+01
   0.1001891410494867E+01
   0.1005473222919240E+01
   0.1004605305125899E+01
   0.1003798070898941E+01
   0.1005456725721914E+01
   0.1007541707296173E+01
   0.1034567871810542E+01
   0.1003852915967110E+01
   0.1505136597766995E+01
   0.9191634699845415E+00
   0.9841234066974290E+00
   0.9874240239884440E+00
   0.9806054047317675E+00
   0.8218303393757567E+00
   0.9887438103273684E+00
   0.1020653593872420E+01
   0.1004994763405697E+01
   0.1002024043697467E+01
   0.1003032440967101E+01
   0.1000230471564588E+01
   0.1099226488157230E+01
   0.1004922116363528E+01
   0.1003059090546659E+01
   0.1002898888521013E+01
   0.1004610605978629E+01
   0.1000813712211025E+01
   0.1004890773004419E+01
   0.9965156609225426E+00
   0.1005401411698239E+01
   0.1012215274223554E+01
   0.1007355777006393E+01
   0.1068879274381989E+01
   0.1004547392035012E+01
   0.1007126730078863E+01
   0.9970506348675048E+00
   0.9929142390354969E+00
   0.1002067157633471E+01
   0.9870472412396532E+00
   0.1003721226723670E+01
   0.1003735315624315E+01
   0.1010021055874137E+01
   0.9765768745516987E+00
   0.1021715956857517E+01
   0.1001527563848989E+01
   0.1008779977742636E+01
   0.9958717230201054E+00
   0.1000954150316200E+01
   0.1004047887033955E+01
   0.1002331994778266E+01
   0.1001804443421479E+01
   0.1001934166588389E+01
   0.1005526561607815E+01
   0.1004646620499328E+01
   0.1003817419305677E+01
   0.1005494327752215E+01
   0.1007609032726810E+01
   0.1034683221615853E+01
   0.1004035167806238E+01
   0.1505247575029928E+01
   0.9191750032262037E+00
   0.9840556375191641E+00
   0.9873540933950308E+00
   0.9804627634246097E+00
   0.8218438075359243E+00
   0.9885175618123218E+00
   0.1020603629591057E+01
   0.1005007966938942E+01
   0.1002049476192630E+01
   0.1003050083540923E+01
   0.1000035154961625E+01
   0.1099532237112352E+01
   0.1004961479794959E+01
   0.1003087519572475E+01
   0.1002946145513634E+01
   0.1004646247798171E+01
   0.1000728915314599E+01
   0.1004828845037515E+01
   0.9964523563246593E+00
   0.1005379461994212E+01
   0.1012328166770552E+01
   0.1007433479190487E+01
   0.1068972850790772E+01
   0.1004598404406385E+01
   0.1007188383925939E+01
   0.9970696811641940E+00
   0.9929725545369130E+00
   0.1002092142004484E+01
   0.9869842720002059E+00
   0.1003721417724989E+01
   0.1003795657238661E+01
   0.1010084369705500E+01
   0.9766681372307917E+00
   0.1021664029753670E+01
   0.1001647514597714E+01
   0.1008734853095997E+01
   0.9958776231101443E+00
   0.1000963308901139E+01
   0.1003938812344066E+01
   0.1002308666827555E+01
   0.1001736887013911E+01
   0.1001846092738354E+01
   0.1005451834461478E+01
   0.1004599449250285E+01
   0.1003796829069697E+01
   0.1005452241482516E+01
   0.1007546579087561E+01
   0.1034545317665426E+01
   0.1004075685233238E+01
   0.1504710880631706E+01
   0.9195270506224354E+00
   0.9838324451015460E+00
   0.9870806510380601E+00
   0.9803377704821574E+00
   0.8215264171226357E+00
   0.9885267544235447E+00
   0.1020625119413364E+01
   0.1004986921657180E+01
   0.1002017345821387E+01
   0.1003005552397261E+01
   0.1000055156913027E+01
   0.1098953996783057E+01
   0.1004912394740258E+01
   0.1003020346956789E+01
   0.1002862486460806E+01
   0.1004555314201168E+01
   0.1000636386746849E+01
   0.1004822291115606E+01
   0.9964147452734059E+00
   0.1005259378545180E+01
   0.1012157809861411E+01
   0.1007332181478098E+01
   0.1068543296765615E+01
   0.1004527062049521E+01
   0.1007101265865622E+01
   0.9969186555198799E+00
   0.9928318396525524E+00
   0.1001871742462779E+01
   0.9868600655388570E+00
   0.1003676509312248E+01
   0.1003692767298834E+01
   0.1009954789521430E+01
   0.9763461383043601E+00
   0.1021433883795738E+01
   0.1001439093408554E+01
   0.1008576061173246E+01
   0.9957942197697551E+00
   0.1000897081507336E+01
   0.1003900076792745E+01
   0.1002345901759217E+01
   0.1001879769010512E+01
   0.1002019950341588E+01
   0.1005527399010244E+01
   0.1004665434873243E+01
   0.1003820655591367E+01
   0.1005548699257352E+01
   0.1007788252231624E+01
   0.1034867818419558E+01
   0.1007249747852278E+01
   0.1502984794349854E+01
   0.9223352535938356E+00
   0.9841315970450847E+00
   0.9862423900141309E+00
   0.9800982116633945E+00
   0.8204252716952436E+00
   0.9832351661285603E+00
   0.1019028207233841E+01
   0.1005105434158451E+01
   0.1002110869774845E+01
   0.1003082654152750E+01
   0.9962329670277501E+00
   0.1098402876504093E+01
   0.1004979561604633E+01
   0.1003105981961552E+01
   0.1003019767471816E+01
   0.1004612733709390E+01
   0.9992006679969552E+00
   0.1004602094811847E+01
   0.9964429724930118E+00
   0.1002837158940840E+01
   0.1012498775804159E+01
   0.1007528657049467E+01
   0.1068112424494291E+01
   0.1004638759852705E+01
   0.1007271052029477E+01
   0.9975378176211991E+00
   0.9935060890947471E+00
   0.1001874322506008E+01
   0.9847223298216530E+00
   0.1003691827352164E+01
   0.1003893999397585E+01
   0.1010037370204597E+01
   0.9755440771632138E+00
   0.1019513047023266E+01
   0.1002666068683528E+01
   0.1008299220847970E+01
   0.9960704417901673E+00
   0.1000964507885308E+01
   0.1003366461691986E+01
SCALARS u double 1
LOOKUP_TABLE default
   0.5001903513386459E+00
   0.4995729231936298E+00
   0.4999023664185694E+00
   0.4941963639325082E+00
   0.4930709296302959E+00
   0.4957941594692470E+00
   0.4948938723388771E+00
   0.4919445324494022E+00
   0.4684429945173520E+00
   0.4836350932280459E+00
   0.0000000000000000E+00
   0.0000000000000000E+00
   0.0000000000000000E+00
   0.0000000000000000E+00
   0.0000000000000000E+00
   0.0000000000000000E+00
   0.4774333877170370E+00
   0.5239585955350996E+00
   0.5120302028202572E+00
   0.4993814012753545E+00
   0.4978343115262019E+00
   0.3977763713101248E+00
   0.4468212576474510E+00
   0.4946763465801299E+00
   0.4979244061597919E+00
   0.4985491238174121E+00
   0.4985810800862746E+00
   0.5703841006598405E+00
   0.5373692736981698E+00
   0.5497326065225676E+00
   0.3071935520100064E+00
   0.4888242732894111E+00
   0.4922300292239865E+00
   0.5320674083422590E+00
   0.4953604584416379E+00
   0.4937305065925843E+00
   0.5475470521343087E+00
   0.5379284081788042E+00
   0.5857643836584864E+00
   0.4660371033033081E+00
   0.5001742122149759E+00
   0.4975501331703555E+00
   0.4935387279488173E+00
   0.3775589378714629E+00
   0.4133887978464296E+00
   0.4931090864246709E+00
   0.5713888354607375E+00
   0.5222725752434223E+00
   0.5016762663935053E+00
   0.5840901239181809E+00
   0.5004219354364288E+00
   0.5000229432859333E+00
   0.5001799250846806E+00
   0.4943237307723683E+00
   0.4931400421560292E+00
   0.4958267648577585E+00
   0.4949609657006402E+00
   0.4921484377395922E+00
   0.4689255166707010E+00
   0.4851819965852552E+00
   0.0000000000000000E+00
   0.0000000000000000E+00
   0.0000000000000000E+00
   0.0000000000000000E+00
   0.0000000000000000E+00
   0.0000000000000000E+00
   0.4810499137793308E+00
   0.5252903936919506E+00
   0.5115547002082548E+00
   0.4990879102518069E+00
   0.4980102895103927E+00
   0.4058482328494633E+00
   0.4503629164886643E+00
   0.4947535457474973E+00
   0.4981602143021094E+00
   0.4988046358784503E+00
   0.4987124672742124E+00
   0.5759705120339934E+00
   0.5369676418436604E+00
   0.5496323851770480E+00
   0.3136822904467717E+00
   0.4888737796221954E+00
   0.4925389057313761E+00
   0.5378079285247072E+00
   0.4955451371824203E+00
   0.4939876070596197E+00
   0.5476091110787107E+00
   0.5383100197152186E+00
   0.5916601283348309E+00
   0.4770327215822521E+00
   0.4990577550962413E+00
   0.4978093902881743E+00
   0.4934548916817061E+00
   0.3849904148867442E+00
   0.4236899138047467E+00
   0.4932857677390295E+00
   0.5769907070890307E+00
   0.5212385281504915E+00
   0.5006802512927711E+00
   0.5886212205433241E+00
   0.5004054436006790E+00
   0.4998707811212230E+00
   0.5000013054277856E+00
   0.4942011536297842E+00
   0.4930681681867659E+00
   0.4958047277530227E+00
   0.4949263951488624E+00
   0.4920860689707259E+00
   0.4687734452071088E+00
   0.4849938945745820E+00
   0.0000000000000000E+00
   0.0000000000000000E+00
   0.0000000000000000E+00
   0.0000000000000000E+00
   0.0000000000000000E+00
   0.0000000000000000E+00
   0.4812161106503002E+00
   0.5255232837541409E+00
   0.5116200637181548E+00
   0.4991001239598430E+00
   0.4979565690260830E+00
   0.4062230750060117E+00
   0.4503537520721785E+00
   0.4946890620296030E+00
   0.4980592780415694E+00
   0.4986621404364263E+00
   0.4985826993513084E+00
   0.5763601726949968E+00
   0.5371327487122340E+00
   0.5496985198805711E+00
   0.3141251132183753E+00
   0.4886361036473152E+00
   0.4923953808622010E+00
   0.5376562934718212E+00
   0.4954285457585791E+00
   0.4938546353340350E+00
   0.5474544307518173E+00
   0.5380889860993393E+00
   0.5916532183738324E+00
   0.4775149372088212E+00
   0.4990697568872749E+00
   0.4976496566122912E+00
   0.4932683746422911E+00
   0.3849610774157043E+00
   0.4240057663445012E+00
   0.4928735691950370E+00
   0.5771247510203774E+00
   0.5211567937155968E+00
   0.5006320625169336E+00
   0.5888267360082025E+00
   0.5003968430088103E+00
   0.4999073904369468E+00
   0.5000951492525930E+00
   0.4942980739389107E+00
   0.4931310977966072E+00
   0.4958250722946669E+00
   0.4949639151063617E+00
   0.4921520632789967E+00
   0.4689155182991693E+00
   0.4851718964208280E+00
   0.0000000000000000E+00
   0.0000000000000000E+00
   0.0000000000000000E+00
   0.0000000000000000E+00
   0.0000000000000000E+00
   0.0000000000000000E+00
   0.4809271902868490E+00
   0.5253162703380727E+00
   0.5115672800589163E+00
   0.4990883016994448E+00
   0.4979387140178957E+00
   0.4058095526530198E+00
   0.4503554759436936E+00
   0.4947429838460233E+00
   0.4980672880642819E+00
   0.4987313120342491E+00
   0.4985928046976003E+00
   0.5758302092889802E+00
   0.5368857066465752E+00
   0.5494663556359692E+00
   0.3137921803961810E+00
   0.4887437607160089E+00
   0.4924932187885275E+00
   0.5375641463047469E+00
   0.4955073616246725E+00
   0.4939382714763370E+00
   0.5473494889789191E+00
   0.5380658735616981E+00
   0.5914196566285470E+00
   0.4770271526432112E+00
   0.4989938641731351E+00
   0.4977204192370452E+00
   0.4933138562851629E+00
   0.3847026475192530E+00
   0.4235667797489505E+00
   0.4929556190591318E+00
   0.5767775293027558E+00
   0.5210648515973609E+00
   0.5005611380990754E+00
   0.5884232278465202E+00
   0.5004054429637995E+00
   0.4998707758599450E+00
   0.5000013079883850E+00
   0.4942011548886622E+00
   0.4930681680001369E+00
   0.4958047279833350E+00
   0.4949263952715167E+00
   0.4920860694897973E+00
   0.4687734436674736E+00
   0.4849938994193088E+00
   0.0000000000000000E+00
   0.0000000000000000E+00
   0.0000000000000000E+00
   0.0000000000000000E+00
   0.0000000000000000E+00
   0.0000000000000000E+00
   0.4812160975474991E+00
   0.5255232936762353E+00
   0.5116200720302695E+00
   0.4991001266296970E+00
   0.4979565694790700E+00
   0.4062230685280989E+00
   0.4503537493057480E+00
   0.4946890625667316E+00
   0.4980592806985475E+00
   0.4986621436924253E+00
   0.4985827040820217E+00
   0.5763601663656069E+00
   0.5371327642600208E+00
   0.5496985321625015E+00
   0.3141251139840802E+00
   0.4886361095679311E+00
   0.4923953803820011E+00
   0.5376562900792359E+00
   0.4954285462859393E+00
   0.4938546355906678E+00
   0.5474544369884660E+00
   0.5380889929146949E+00
   0.5916532152916938E+00
   0.4775149352595588E+00
   0.4990697671432147E+00
   0.4976496565282040E+00
   0.4932683818582356E+00
   0.3849610655601593E+00
   0.4240057548421685E+00
   0.4928735746657220E+00
   0.5771247588576706E+00
   0.5211568111211321E+00
   0.5006320751901148E+00
   0.5888267494499096E+00
   0.5004219397008761E+00
   0.5000229507313084E+00
   0.5001799384832472E+00
   0.4943237343856470E+00
   0.4931400419864111E+00
   0.4958267638068447E+00
   0.4949609647008156E+00
   0.4921484351706066E+00
   0.4689255282707986E+00
   0.4851819824227942E+00
   0.0000000000000000E+00
   0.0000000000000000E+00
   0.0000000000000000E+00
   0.0000000000000000E+00
   0.0000000000000000E+00
   0.0000000000000000E+00
   0.4810498519970430E+00
   0.5252903814679972E+00
   0.5115546952794544E+00
   0.4990879206410547E+00
   0.4980102909318816E+00
   0.4058482052757179E+00
   0.4503629387809071E+00
   0.4947535443894555E+00
   0.4981602150739809E+00
   0.4988046330358810E+00
   0.4987124602050389E+00
   0.5759704637936066E+00
   0.5369675835218288E+00
   0.5496323575375911E+00
   0.3136822146464875E+00
   0.4888737696577581E+00
   0.4925389024354991E+00
   0.5378078898149606E+00
   0.4955451351835691E+00
   0.4939876033623094E+00
   0.5476091190480116E+00
   0.5383100209525203E+00
   0.5916601125687845E+00
   0.4770326644190296E+00
   0.4990577365119855E+00
   0.4978093861166061E+00
   0.4934548870120502E+00
   0.3849904107485399E+00
   0.4236898566257255E+00
   0.4932857357072168E+00
   0.5769907272374502E+00
   0.5212384912920482E+00
   0.5006802187267715E+00
   0.5886212750644987E+00
   0.5001903574323536E+00
   0.4995729471114229E+00
   0.4999024029136340E+00
   0.4941963843965406E+00
   0.4930709320035007E+00
   0.4957941569771765E+00
   0.4948938678705131E+00
   0.4919445260250793E+00
   0.4684430527558364E+00
   0.4836351268219738E+00
   0.0000000000000000E+00
   0.0000000000000000E+00
   0.0000000000000000E+00
   0.0000000000000000E+00
   0.0000000000000000E+00
   0.0000000000000000E+00
   0.4774334028742962E+00
   0.5239586209576454E+00
   0.5120302478526622E+00
   0.4993814418689719E+00
   0.4978343338259555E+00
   0.3977765000613764E+00
   0.4468213629082929E+00
   0.4946763416144021E+00
   0.4979244313808915E+00
   0.4985491271580250E+00
   0.4985811114025144E+00
   0.5703840796250715E+00
   0.5373692490079029E+00
   0.5497326447248723E+00
   0.3071934482166220E+00
   0.4888242842730338E+00
   0.4922300366043184E+00
   0.5320673965248029E+00
   0.4953604608952008E+00
   0.4937305043085525E+00
   0.5475471475431687E+00
   0.5379284778157176E+00
   0.5857644029878963E+00
   0.4660370953508278E+00
   0.5001742536294083E+00
   0.4975501428364775E+00
   0.4935387648211835E+00
   0.3775589590958646E+00
   0.4133886898456113E+00
   0.4931090843142499E+00
   0.5713889120251848E+00
   0.5222725938851650E+00
   0.5016762917996266E+00
   0.5840902672002809E+00
SCALARS v double 1
LOOKUP_TABLE default
   0.0000000000000000E+00
   0.0000000000000000E+00
   0.0000000000000000E+00
   0.0000000000000000E+00
   0.0000000000000000E+00
   0.0000000000000000E+00
   0.0000000000000000E+00
   0.0000000000000000E+00
   0.0000000000000000E+00
   0.0000000000000000E+00
   0.0000000000000000E+00
   0.0000000000000000E+00
   0.0000000000000000E+00
   0.0000000000000000E+00
   0.0000000000000000E+00
   0.0000000000000000E+00
   0.0000000000000000E+00
   0.0000000000000000E+00
   0.0000000000000000E+00
   0.0000000000000000E+00
   0.0000000000000000E+00
   0.0000000000000000E+00
   0.0000000000000000E+00
   0.0000000000000000E+00
   0.0000000000000000E+00
   0.0000000000000000E+00
   0.0000000000000000E+00
   0.0000000000000000E+00
   0.0000000000000000E+00
   0.0000000000000000E+00
   0.0000000000000000E+00
   0.0000000000000000E+00
   0.0000000000000000E+00
   0.0000000000000000E+00
   0.0000000000000000E+00
   0.0000000000000000E+00
   0.0000000000000000E+00
   0.0000000000000000E+00
   0.0000000000000000E+00
   0.0000000000000000E+00
   0.0000000000000000E+00
   0.0000000000000000E+00
   0.0000000000000000E+00
   0.0000000000000000E+00
   0.0000000000000000E+00
   0.0000000000000000E+00
   0.0000000000000000E+00
   0.0000000000000000E+00
   0.0000000000000000E+00
   0.0000000000000000E+00
  -0.4471403577774472E-04
  -0.8868771324482755E-04
  -0.7715725008945283E-04
  -0.1113565726301116E-04
  -0.1452300049486582E-04
   0.6809083666805460E-05
  -0.1892682883463894E-04
  -0.3454941386811682E-04
   0.1138676826542456E-04
  -0.1082905309330555E-02
   0.0000000000000000E+00
   0.0000000000000000E+00
   0.0000000000000000E+00