# vtk DataFile Version 2.0
FUN3D:global_image_vtk
ASCII
DATASET UNSTRUCTURED_GRID
POINTS 216 double
    0.0000000000000000E+00    0.0000000000000000E+00    0.5000000000000000E+01
    0.0000000000000000E+00    0.0000000000000000E+00    0.3750000000000000E+01
    0.0000000000000000E+00    0.0000000000000000E+00    0.2500000000000000E+01
    0.0000000000000000E+00    0.0000000000000000E+00    0.1250000000000000E+01
    0.0000000000000000E+00    0.0000000000000000E+00    0.0000000000000000E+00
    0.1250000000000000E+01    0.0000000000000000E+00    0.0000000000000000E+00
    0.2500000000000000E+01    0.0000000000000000E+00    0.0000000000000000E+00
    0.3750000000000000E+01    0.0000000000000000E+00    0.0000000000000000E+00
    0.5000000000000000E+01    0.0000000000000000E+00    0.0000000000000000E+00
    0.5000000000000000E+01    0.0000000000000000E+00    0.1250000000000000E+01
    0.5000000000000000E+01    0.0000000000000000E+00    0.2500000000000000E+01
    0.5000000000000000E+01    0.0000000000000000E+00    0.3750000000000000E+01
    0.5000000000000000E+01    0.0000000000000000E+00    0.5000000000000000E+01
    0.3750000000000000E+01    0.0000000000000000E+00    0.5000000000000000E+01
    0.2500000000000000E+01    0.0000000000000000E+00    0.5000000000000000E+01
    0.1250000000000000E+01    0.0000000000000000E+00    0.5000000000000000E+01
    0.8087673404641089E+00    0.0000000000000000E+00    0.3046700411233810E+01
    0.7886107149397936E+00    0.0000000000000000E+00    0.1981265415950838E+01
    0.9272772293302283E+00    0.0000000000000000E+00    0.4070287583796232E+01
    0.4070226081761783E+01    0.0000000000000000E+00    0.9540325619275125E+00
    0.9224700799661973E+00    0.0000000000000000E+00    0.9463046427831353E+00
    0.4085981138224748E+01    0.0000000000000000E+00    0.4069983725354533E+01
    0.1559757281943150E+01    0.0000000000000000E+00    0.1635607059547088E+01
    0.2482905500262050E+01    0.0000000000000000E+00    0.1885385149929012E+01
    0.1660890649526405E+01    0.0000000000000000E+00    0.2508737357811018E+01
    0.1598111783087740E+01    0.0000000000000000E+00    0.3356656815401915E+01
    0.2519516809901736E+01    0.0000000000000000E+00    0.3120482633132017E+01
    0.2000153144652849E+01    0.0000000000000000E+00    0.4127941526767214E+01
    0.3039222624309763E+01    0.0000000000000000E+00    0.8728843884554416E+00
    0.1943909465021303E+01    0.0000000000000000E+00    0.8563427312614358E+00
    0.4181134289965387E+01    0.0000000000000000E+00    0.3039806936459394E+01
    0.3427857139900839E+01    0.0000000000000000E+00    0.1608316206941619E+01
    0.4204276726360096E+01    0.0000000000000000E+00    0.1992994776168015E+01
    0.3029173563817358E+01    0.0000000000000000E+00    0.4119574277282996E+01
    0.3439265668129285E+01    0.0000000000000000E+00    0.3362878032445769E+01
    0.3359002465395521E+01    0.0000000000000000E+00    0.2495945761348561E+01
    0.0000000000000000E+00   -0.1000000000000000E+01    0.5000000000000000E+01
    0.0000000000000000E+00   -0.1000000000000000E+01    0.3750000000000000E+01
    0.0000000000000000E+00   -0.1000000000000000E+01    0.2500000000000000E+01
    0.0000000000000000E+00   -0.1000000000000000E+01    0.1250000000000000E+01
    0.0000000000000000E+00   -0.1000000000000000E+01    0.0000000000000000E+00
    0.1250000000000000E+01   -0.1000000000000000E+01    0.0000000000000000E+00
    0.2500000000000000E+01   -0.1000000000000000E+01    0.0000000000000000E+00
    0.3750000000000000E+01   -0.1000000000000000E+01    0.0000000000000000E+00
    0.5000000000000000E+01   -0.1000000000000000E+01    0.0000000000000000E+00
    0.5000000000000000E+01   -0.1000000000000000E+01    0.1250000000000000E+01
    0.5000000000000000E+01   -0.1000000000000000E+01    0.2500000000000000E+01
    0.5000000000000000E+01   -0.1000000000000000E+01    0.3750000000000000E+01
    0.5000000000000000E+01   -0.1000000000000000E+01    0.5000000000000000E+01
    0.3750000000000000E+01   -0.1000000000000000E+01    0.5000000000000000E+01
    0.2500000000000000E+01   -0.1000000000000000E+01    0.5000000000000000E+01
    0.1250000000000000E+01   -0.1000000000000000E+01    0.5000000000000000E+01
    0.8087673404641089E+00   -0.1000000000000000E+01    0.3046700411233810E+01
    0.7886107149397936E+00   -0.1000000000000000E+01    0.1981265415950838E+01
    0.9272772293302283E+00   -0.1000000000000000E+01    0.4070287583796232E+01
    0.4070226081761783E+01   -0.1000000000000000E+01    0.9540325619275125E+00
    0.9224700799661973E+00   -0.1000000000000000E+01    0.9463046427831353E+00
    0.4085981138224748E+01   -0.1000000000000000E+01    0.4069983725354533E+01
    0.1559757281943150E+01   -0.1000000000000000E+01    0.1635607059547088E+01
    0.2482905500262050E+01   -0.1000000000000000E+01    0.1885385149929012E+01
    0.1660890649526405E+01   -0.1000000000000000E+01    0.2508737357811018E+01
    0.1598111783087740E+01   -0.1000000000000000E+01    0.3356656815401915E+01
    0.2519516809901736E+01   -0.1000000000000000E+01    0.3120482633132017E+01
    0.2000153144652849E+01   -0.1000000000000000E+01    0.4127941526767214E+01
    0.3039222624309763E+01   -0.1000000000000000E+01    0.8728843884554416E+00
    0.1943909465021303E+01   -0.1000000000000000E+01    0.8563427312614358E+00
    0.4181134289965387E+01   -0.1000000000000000E+01    0.3039806936459394E+01
    0.3427857139900839E+01   -0.1000000000000000E+01    0.1608316206941619E+01
    0.4204276726360096E+01   -0.1000000000000000E+01    0.1992994776168015E+01
    0.3029173563817358E+01   -0.1000000000000000E+01    0.4119574277282996E+01
    0.3439265668129285E+01   -0.1000000000000000E+01    0.3362878032445769E+01
    0.3359002465395521E+01   -0.1000000000000000E+01    0.2495945761348561E+01
    0.0000000000000000E+00   -0.2000000000000000E+01    0.5000000000000000E+01
    0.0000000000000000E+00   -0.2000000000000000E+01    0.3750000000000000E+01
    0.0000000000000000E+00   -0.2000000000000000E+01    0.2500000000000000E+01
    0.0000000000000000E+00   -0.2000000000000000E+01    0.1250000000000000E+01
    0.0000000000000000E+00   -0.2000000000000000E+01    0.0000000000000000E+00
    0.1250000000000000E+01   -0.2000000000000000E+01    0.0000000000000000E+00
    0.2500000000000000E+01   -0.2000000000000000E+01    0.0000000000000000E+00
    0.3750000000000000E+01   -0.2000000000000000E+01    0.0000000000000000E+00
    0.5000000000000000E+01   -0.2000000000000000E+01    0.0000000000000000E+00
    0.5000000000000000E+01   -0.2000000000000000E+01    0.1250000000000000E+01
    0.5000000000000000E+01   -0.2000000000000000E+01    0.2500000000000000E+01
    0.5000000000000000E+01   -0.2000000000000000E+01    0.3750000000000000E+01
    0.5000000000000000E+01   -0.2000000000000000E+01    0.5000000000000000E+01
    0.3750000000000000E+01   -0.2000000000000000E+01    0.5000000000000000E+01
    0.2500000000000000E+01   -0.2000000000000000E+01    0.5000000000000000E+01
    0.1250000000000000E+01   -0.2000000000000000E+01    0.5000000000000000E+01
    0.8087673404641089E+00   -0.2000000000000000E+01    0.3046700411233810E+01
    0.7886107149397936E+00   -0.2000000000000000E+01    0.1981265415950838E+01
    0.9272772293302283E+00   -0.2000000000000000E+01    0.4070287583796232E+01
    0.4070226081761783E+01   -0.2000000000000000E+01    0.9540325619275125E+00
    0.9224700799661973E+00   -0.2000000000000000E+01    0.9463046427831353E+00
    0.4085981138224748E+01   -0.2000000000000000E+01    0.4069983725354533E+01
    0.1559757281943150E+01   -0.2000000000000000E+01    0.1635607059547088E+01
    0.2482905500262050E+01   -0.2000000000000000E+01    0.1885385149929012E+01
    0.1660890649526405E+01   -0.2000000000000000E+01    0.2508737357811018E+01
    0.1598111783087740E+01   -0.2000000000000000E+01    0.3356656815401915E+01
    0.2519516809901736E+01   -0.2000000000000000E+01    0.3120482633132017E+01
    0.2000153144652849E+01   -0.2000000000000000E+01    0.4127941526767214E+01
    0.3039222624309763E+01   -0.2000000000000000E+01    0.8728843884554416E+00
    0.1943909465021303E+01   -0.2000000000000000E+01    0.8563427312614358E+00
    0.4181134289965387E+01   -0.2000000000000000E+01    0.3039806936459394E+01
    0.3427857139900839E+01   -0.2000000000000000E+01    0.1608316206941619E+01
    0.4204276726360096E+01   -0.2000000000000000E+01    0.1992994776168015E+01
    0.3029173563817358E+01   -0.2000000000000000E+01    0.4119574277282996E+01
    0.3439265668129285E+01   -0.2000000000000000E+01    0.3362878032445769E+01
    0.3359002465395521E+01   -0.2000000000000000E+01    0.2495945761348561E+01
    0.0000000000000000E+00   -0.3000000000000000E+01    0.5000000000000000E+01
    0.0000000000000000E+00   -0.3000000000000000E+01    0.3750000000000000E+01
    0.0000000000000000E+00   -0.3000000000000000E+01    0.2500000000000000E+01
    0.0000000000000000E+00   -0.3000000000000000E+01    0.1250000000000000E+01
    0.0000000000000000E+00   -0.3000000000000000E+01    0.0000000000000000E+00
    0.1250000000000000E+01   -0.3000000000000000E+01    0.0000000000000000E+00
    0.2500000000000000E+01   -0.3000000000000000E+01    0.0000000000000000E+00
    0.3750000000000000E+01   -0.3000000000000000E+01    0.0000000000000000E+00
    0.5000000000000000E+01   -0.3000000000000000E+01    0.0000000000000000E+00
    0.5000000000000000E+01   -0.3000000000000000E+01    0.1250000000000000E+01
    0.5000000000000000E+01   -0.3000000000000000E+01    0.2500000000000000E+01
    0.5000000000000000E+01   -0.3000000000000000E+01    0.3750000000000000E+01
    0.5000000000000000E+01   -0.3000000000000000E+01    0.5000000000000000E+01
    0.3750000000000000E+01   -0.3000000000000000E+01    0.5000000000000000E+01
    0.2500000000000000E+01   -0.3000000000000000E+01    0.5000000000000000E+01
    0.1250000000000000E+01   -0.3000000000000000E+01    0.5000000000000000E+01
    0.8087673404641089E+00   -0.3000000000000000E+01    0.3046700411233810E+01
[...]
POINT_DATA 216
SCALARS rho double 1
LOOKUP_TABLE default
   0.9948388448000964E+00
   0.9921249546413877E+00
   0.9635099249675290E+00
   0.1066339702559644E+01
   0.6860633794127859E+00
   0.9178739744512832E+00
   0.9228135907855702E+00
   0.8973641681769297E+00
   0.5840626669461192E+00
   0.9497514516428132E+00
   0.1008980791439024E+01
   0.1001948489527030E+01
   0.9895413236191819E+00
   0.9811275318794812E+00
   0.9839962453956558E+00
   0.9917613487034103E+00
   0.9862448205688976E+00
   0.9887083180132853E+00
   0.9883561288872174E+00
   0.9852448987170744E+00
   0.9393500713365059E+00
   0.9937324398499522E+00
   0.9828452774222007E+00
   0.9928985153649627E+00
   0.9979524967482819E+00
   0.9833778363038330E+00
   0.9887185241579776E+00
   0.9871968875141428E+00
   0.9246456800230732E+00
   0.9604755644439612E+00
   0.9999447191005122E+00
   0.9521946788015111E+00
   0.9756934955382532E+00
   0.9910058599301053E+00
   0.9904066532208681E+00
   0.9923348577271759E+00
   0.9948156669297635E+00
   0.9920766750480609E+00
   0.9632683041239531E+00
   0.1065960984429397E+01
   0.6880475664218034E+00
   0.9183256529846630E+00
   0.9234709939657502E+00
   0.8982450790225420E+00
   0.5852952573453160E+00
   0.9509861359471162E+00
   0.1009431362590619E+01
   0.1002009359387293E+01
   0.9895466857787073E+00
   0.9811024788436362E+00
   0.9839498816556376E+00
   0.9917075032677752E+00
   0.9861425861551931E+00
   0.9885236381256695E+00
   0.9882949135173678E+00
   0.9861210570766116E+00
   0.9393316775355049E+00
   0.9937371086696435E+00
   0.9828627049502258E+00
   0.9929211968219769E+00
   0.9977655223616397E+00
   0.9832930510794227E+00
   0.9886367397148900E+00
   0.9871344837060688E+00
   0.9249297039161125E+00
   0.9609732246897074E+00
   0.1000032345237885E+01
   0.9522560609746747E+00
   0.9760117731618673E+00
   0.9909553755309704E+00
   0.9903844473516584E+00
   0.9924114674825676E+00
   0.9948222527429000E+00
   0.9920982579223908E+00
   0.9633440596718871E+00
   0.1065921956554135E+01
   0.6885675893330842E+00
   0.9183637603093836E+00
   0.9238290812009350E+00
   0.8986366262395096E+00
   0.5859136317740892E+00
   0.9511294714055208E+00
   0.1009366672801447E+01
   0.1001944570775484E+01
   0.9895092916941500E+00
   0.9811158774183892E+00
   0.9839949606016968E+00
   0.9917508373972050E+00
   0.9861979283453012E+00
   0.9885764807620959E+00
   0.9883306745658941E+00
   0.9863247880097469E+00
   0.9394272548120827E+00
   0.9937276782011681E+00
   0.9829038684688589E+00
   0.9929120457583165E+00
   0.9977948773242815E+00
   0.9833486786651809E+00
   0.9886688082566391E+00
   0.9871823774568830E+00
   0.9251530153192377E+00
   0.9610723994254117E+00
   0.1000000054165394E+01
   0.9523496365594729E+00
   0.9760447839095623E+00
   0.9909883111220066E+00
   0.9903921895450726E+00
   0.9924068380843188E+00
   0.9948199615280333E+00
   0.9920875500188082E+00
   0.9633187854033396E+00
   0.1065937245528008E+01
   0.6883868551261569E+00
   0.9183305294546525E+00
   0.9236775388057489E+00
   0.8985472245962144E+00
   0.5857640219925678E+00
   0.9511178103166941E+00
   0.1009428789887952E+01
   0.1001998241183014E+01
   0.9895537004470852E+00
   0.9811254646182868E+00
   0.9839776142193863E+00
   0.9917235548235719E+00
   0.9861789221477522E+00
   0.9885600350836393E+00
   0.9883145766826151E+00
   0.9862993817051755E+00
   0.9394015851465578E+00
   0.9937445519024015E+00
   0.9828781848062913E+00
   0.9929132322294251E+00
   0.9977824864823203E+00
   0.9833293727665253E+00
   0.9886606074880454E+00
   0.9871584383318329E+00
   0.9251106663054999E+00
   0.9610491480059902E+00
   0.1000033658766709E+01
   0.9523314146556568E+00
   0.9760681853834827E+00
   0.9909713910213612E+00
   0.9903963426130903E+00
   0.9924134830501914E+00
   0.9948179498865664E+00
   0.9920873752029896E+00
   0.9632935571704049E+00
   0.1065945620887552E+01
   0.6882285631409577E+00
   0.9183589266024277E+00
   0.9236226570225200E+00
   0.8983346352506792E+00
   0.5854447681031416E+00
   0.9509979942220694E+00
   0.1009369404244322E+01
   0.1001955682844941E+01
   0.9895022442796788E+00
   0.9810929017815833E+00
   0.9839672523384150E+00
   0.9917347980285147E+00
   0.9861616050703443E+00
   0.9885401066079339E+00
   0.9883110128097311E+00
   0.9861466588822564E+00
   0.9393574193040050E+00
   0.9937202506013746E+00
   0.9828884562897665E+00
   0.9929200941254968E+00
   0.9977779481691925E+00
   0.9833123762538277E+00
   0.9886449684717440E+00
   0.9871584450314130E+00
   0.9249722626265243E+00
   0.9609965858063787E+00
   0.9999987867653961E+00
   0.9522744756427832E+00
   0.9759885506940299E+00
   0.9909723225108974E+00
   0.9903803089328985E+00
   0.9924048835924658E+00
   0.9948365484658417E+00
   0.9921142307239734E+00
   0.9634845423345584E+00
   0.1066354808413645E+01
   0.6858818978016570E+00
   0.9178407529243904E+00
   0.9226617396083446E+00
   0.8972748968026893E+00
   0.5839133764312854E+00
   0.9497394504586800E+00
   0.1009043059974059E+01
   0.1002002254951458E+01
   0.9895857482623186E+00
   0.9811370951876129E+00
   0.9839788729141793E+00
   0.9917340618663298E+00
   0.9862257845489505E+00
   0.9886918651837295E+00
   0.9883400196521037E+00
   0.9852191409444845E+00
   0.9393245247891778E+00
   0.9937493558827147E+00
   0.9828196679025143E+00
   0.9928999228668245E+00
   0.9979401401317628E+00
   0.9833585012839242E+00
   0.9887103630267614E+00
   0.9871729409951225E+00
   0.9246033400925815E+00
   0.9604523808083807E+00
   0.9999784427550893E+00
   0.9521765950858978E+00
   0.9757169953286958E+00
   0.9909889558124950E+00
   0.9904108763156415E+00
   0.9923416874700779E+00
SCALARS u double 1
LOOKUP_TABLE default
   0.5073695279031035E+00
   0.5089915053790748E+00
   0.5216189899061613E+00
   0.5057336246394096E+00
   0.0000000000000000E+00
   0.0000000000000000E+00
   0.0000000000000000E+00
   0.0000000000000000E+00
   0.0000000000000000E+00
   0.5171713081059118E+00
   0.5013810215062156E+00
   0.4944709921559751E+00
   0.4962751287802619E+00
   0.5070717299925225E+00
   0.5139992694670049E+00
   0.5137595012249534E+00
   0.5091261137001485E+00
   0.5635711812061974E+00
   0.5112376008993021E+00
   0.4822723990174834E+00
   0.4096890803236029E+00
   0.5039522523530560E+00
   0.5230581712698326E+00
   0.5450153365362296E+00
   0.5334592766181809E+00
   0.5119171974718363E+00
   0.5206399606729953E+00
   0.5118871083351744E+00
   0.3976806164493960E+00
   0.3832267565125184E+00
   0.5146840374148105E+00
   0.5347590326666151E+00
   0.5545623530724417E+00
   0.5109908382712453E+00
   0.5151587318970526E+00
   0.5436785727389252E+00
   0.5074077024539939E+00
   0.5090513197880799E+00
   0.5217320242328091E+00
   0.5063081334181668E+00
   0.0000000000000000E+00
   0.0000000000000000E+00
   0.0000000000000000E+00
   0.0000000000000000E+00
   0.0000000000000000E+00
   0.5184939461676851E+00
   0.5017934453802297E+00
   0.4944003887943879E+00
   0.4961849931204414E+00
   0.5070588545249103E+00
   0.5140908299366280E+00
   0.5138440107936028E+00
   0.5091556397558307E+00
   0.5641767979386340E+00
   0.5112966647992485E+00
   0.4847883103931019E+00
   0.4108732693101760E+00
   0.5038440990164927E+00
   0.5248969676646648E+00
   0.5469268016777286E+00
   0.5337430187508037E+00
   0.5119164079020836E+00
   0.5206390186943203E+00
   0.5119231384773958E+00
   0.3988051502850447E+00
   0.3842883822178209E+00
   0.5147797184579832E+00
   0.5373257519582481E+00
   0.5561130312606062E+00
   0.5109457193081932E+00
   0.5151402164112368E+00
   0.5444437007491707E+00
   0.5074009968693419E+00
   0.5090295042885739E+00
   0.5216637040798475E+00
   0.5062372947774788E+00
   0.0000000000000000E+00
   0.0000000000000000E+00
   0.0000000000000000E+00
   0.0000000000000000E+00
   0.0000000000000000E+00
   0.5184134800392884E+00
   0.5018594698907151E+00
   0.4943806490800459E+00
   0.4961753661556816E+00
   0.5069956817336201E+00
   0.5139981207448192E+00
   0.5137929754037019E+00
   0.5090667334815896E+00
   0.5640420271917816E+00
   0.5112496828138189E+00
   0.4847732331467264E+00
   0.4109327514727971E+00
   0.5037524667657789E+00
   0.5248671371881561E+00
   0.5469421006539251E+00
   0.5336320176175029E+00
   0.5118278976947137E+00
   0.5205139685084518E+00
   0.5118352469762347E+00
   0.3988007934471658E+00
   0.3843058300195756E+00
   0.5146942753992697E+00
   0.5373423766807399E+00
   0.5562113782785422E+00
   0.5108521259530944E+00
   0.5149878249128729E+00
   0.5444160342779374E+00
   0.5073969378204346E+00
   0.5090381249932060E+00
   0.5216869974618175E+00
   0.5062551352491209E+00
   0.0000000000000000E+00
   0.0000000000000000E+00
   0.0000000000000000E+00
   0.0000000000000000E+00
   0.0000000000000000E+00
   0.5185269676945988E+00
   0.5018837080656209E+00
   0.4943989585354326E+00
   0.4961771343594463E+00
   0.5070548842826716E+00
   0.5140804208885399E+00
   0.5138246778780763E+00
   0.5091018735449370E+00
   0.5640651276976454E+00
   0.5112680500539588E+00
   0.4848870356265501E+00
   0.4109222649400695E+00
   0.5038148233957137E+00
   0.5249244527301364E+00
   0.5469972548025328E+00
   0.5336723377824223E+00
   0.5118604262766949E+00
   0.5205749862651952E+00
   0.5118914931507843E+00
   0.3988502328688076E+00
   0.3843386775616008E+00
   0.5147820304197095E+00
   0.5374531187168670E+00
   0.5562738406361354E+00
   0.5109164946665611E+00
   0.5150955726428730E+00
   0.5444732549110907E+00
   0.5074117820597007E+00
   0.5090427239790000E+00
   0.5217087693036737E+00
   0.5062903093644375E+00
   0.0000000000000000E+00
   0.0000000000000000E+00
   0.0000000000000000E+00
   0.0000000000000000E+00
   0.0000000000000000E+00
   0.5183804920593842E+00
   0.5017690531987850E+00
   0.4943820358842812E+00
   0.4961832236459906E+00
   0.5069996458183851E+00
   0.5140085347876134E+00
   0.5138123359770864E+00
   0.5091204722217348E+00
   0.5641536251831455E+00
   0.5112782882721787E+00
   0.4846746478157256E+00
   0.4108837640455125E+00
   0.5037817010887152E+00
   0.5248396661827216E+00
   0.5468716251953234E+00
   0.5337026354938267E+00
   0.5118838430293601E+00
   0.5205779332736148E+00
   0.5118668515005356E+00
   0.3987557136167860E+00
   0.3842555683948469E+00
   0.5146918994002533E+00
   0.5372150149301332E+00
   0.5560505430029158E+00
   0.5108812978218309E+00
   0.5150323943866696E+00
   0.5443864169495055E+00
   0.5073655011445677E+00
   0.5090001607207421E+00
   0.5216423728703241E+00
   0.5057513992158381E+00
   0.0000000000000000E+00
   0.0000000000000000E+00
   0.0000000000000000E+00
   0.0000000000000000E+00
   0.0000000000000000E+00
   0.5172841754215858E+00
   0.5014052007550320E+00
   0.4944892949541136E+00
   0.4962768592166197E+00
   0.5071308581343652E+00
   0.5140815256032479E+00
   0.5137912352147117E+00
   0.5091612212798918E+00
   0.5635942933490498E+00
   0.5112559626329234E+00
   0.4823856224784255E+00
   0.4096790751300741E+00
   0.5040146136058152E+00
   0.5231154676531206E+00
   0.5450703824871739E+00
   0.5334997520548999E+00
   0.5119496896075906E+00
   0.5207010863712870E+00
   0.5119432955894123E+00
   0.3977308643163151E+00
   0.3832599062678989E+00
   0.5147718621299593E+00
   0.5348695429828233E+00
   0.5546247673714094E+00
   0.5110551644882442E+00
   0.5152665611082574E+00
   0.5437358107227401E+00
SCALARS v double 1
LOOKUP_TABLE default
   0.0000000000000000E+00
   0.0000000000000000E+00
   0.0000000000000000E+00
   0.0000000000000000E+00
   0.0000000000000000E+00
   0.0000000000000000E+00
   0.0000000000000000E+00
   0.0000000000000000E+00
   0.0000000000000000E+00
   0.0000000000000000E+00
   0.0000000000000000E+00
   0.0000000000000000E+00
   0.0000000000000000E+00
   0.0000000000000000E+00
   0.0000000000000000E+00
   0.0000000000000000E+00
   0.0000000000000000E+00
   0.0000000000000000E+00
   0.0000000000000000E+00
   0.0000000000000000E+00
   0.0000000000000000E+00
   0.0000000000000000E+00
   0.0000000000000000E+00
   0.0000000000000000E+00
   0.0000000000000000E+00
   0.0000000000000000E+00
   0.0000000000000000E+00
   0.0000000000000000E+00
   0.0000000000000000E+00
   0.0000000000000000E+00
   0.0000000000000000E+00
   0.0000000000000000E+00
   0.0000000000000000E+00
   0.0000000000000000E+00
   0.0000000000000000E+00
   0.0000000000000000E+00
   0.4493559164927343E-05
   0.4753096227360034E-05
  -0.5669598867044005E-04
  -0.6819292776968536E-04
   0.0000000000000000E+00
   0.0000000000000000E+00
   0.0000000000000000E+00
   0.0000000000000000E+00
   0.0000000000000000E+00
   0.6022004134097354E-03
   0.2648705698459054E-03
   0.1392090792843320E-04
  -0.3481375271746317E-04
  -0.3262731220026356E-04
  -0.1948832994782627E-04
  -0.8327082206694248E-05
  -0.5467919904960510E-04
  -0.1016659808989038E-03
  -0.2069458934327490E-04
   0.7471550115449822E-04
  -0.3468942888197979E-03
  -0.2299136148156744E-04
  -0.1470320488303926E-03
  -0.1045543595737133E-03
  -0.1388730590295727E-03
  -0.5700679032364198E-04
  -0.8650485452198895E-04
  -0.2991719711408946E-04
  -0.2701523704191875E-03
  -0.7397280438863115E-04
   0.7754029810411051E-05
  -0.1809379047046326E-03
   0.6885275319536400E-04
  -0.3465482536060210E-04
  -0.4662199797317754E-04
  -0.2225415883761500E-04
   0.5452571976497234E-05
   0.7858054071182520E-05
   0.1380435090849370E-04
   0.4757092989632704E-05
   0.0000000000000000E+00
   0.0000000000000000E+00
   0.0000000000000000E+00
   0.0000000000000000E+00
   0.0000000000000000E+00
   0.1494921878585726E-03
   0.5777902152518937E-04
  -0.1960615646008558E-06
  -0.9798276013915618E-05
  -0.1441468750772875E-05
   0.8837331888157702E-05
   0.1043685973942749E-04
   0.1134544460102559E-04
   0.1232692449531165E-04
   0.8680332425704173E-05
   0.1644864902156586E-04
  -0.5378273944291996E-04
  -0.6270597436395434E-05
  -0.2861549046888450E-04
  -0.3174276511828777E-04
  -0.1399595802347868E-04
   0.5221250942310745E-05
  -0.1235114164623609E-04
   0.5714264901629094E-05
  -0.4669393157407808E-04
  -0.2563778196114823E-04
  -0.3638864727071757E-05
  -0.4687880567068119E-04
   0.7937477526768365E-05
  -0.1901809710660160E-05
  -0.1090151892848195E-04
  -0.1149426260583007E-04
  -0.5447451911685766E-05
  -0.7857770331091087E-05
  -0.1378747820305957E-04
  -0.4820746741294185E-05
   0.0000000000000000E+00
   0.0000000000000000E+00
   0.0000000000000000E+00
   0.0000000000000000E+00
   0.0000000000000000E+00
  -0.1493106451483450E-03
  -0.5772119803206779E-04
   0.2247481689272453E-06
   0.9787256745642245E-05
   0.1397992149181031E-05
  -0.8865534311082745E-05
  -0.1043708790573697E-04
  -0.1135095505695148E-04
  -0.1241644662223002E-04
  -0.8677221686075841E-05
  -0.1618509621078564E-04
   0.5376527580182696E-04
   0.6283865752403795E-05
   0.2857262259353392E-04
   0.3170225110433113E-04
   0.1393633506566533E-04
  -0.5265900336131610E-05
   0.1234650092861043E-04
  -0.5726623032404920E-05
   0.4679711421084360E-04
   0.2565046891624872E-04
   0.3664400386323525E-05
   0.4691257372272304E-04
  -0.7900917734867492E-05
   0.1902908733698412E-05
   0.1090083872610030E-04
   0.1144792150125438E-04
  -0.4491163020723941E-05
  -0.4756286383222328E-05
   0.5667733235313649E-04
   0.6804679741388601E-04
   0.0000000000000000E+00
   0.0000000000000000E+00
   0.0000000000000000E+00
   0.0000000000000000E+00
   0.0000000000000000E+00
  -0.6020770644665700E-03
  -0.2648420928800566E-03
  -0.1386348097419180E-04
   0.3483420944746695E-04
   0.3259575158701990E-04
   0.1945026751316026E-04
   0.8314980126508621E-05
   0.5464420736924800E-04
   0.1015352995031311E-03
   0.2068568478305514E-04
  -0.7435848144183453E-04
   0.3469264366127396E-03
   0.2300577192992762E-04
   0.1470315139389069E-03
   0.1045114606561787E-03
   0.1388198458281968E-03
   0.5695262540686900E-04
   0.8649756992624485E-04
   0.2989188238974422E-04
   0.2703962436447963E-03
   0.7397695805453527E-04
  -0.7711306505663523E-05
   0.1810913246596010E-03
  -0.6879615390673271E-04
   0.3464769177274824E-04
   0.4662978432433654E-04
   0.2222575054685292E-04
   0.0000000000000000E+00
   0.0000000000000000E+00
   0.0000000000000000E+00
   0.0000000000000000E+00
   0.0000000000000000E+00
   0.0000000000000000E+00
   0.0000000000000000E+00
   0.0000000000000000E+00
   0.0000000000000000E+00
   0.0000000000000000E+00
   0.0000000000000000E+00
   0.0000000000000000E+00
   0.0000000000000000E+00
   0.0000000000000000E+00
   0.0000000000000000E+00
   0.0000000000000000E+00
   0.0000000000000000E+00
   0.0000000000000000E+00
   0.0000000000000000E+00
   0.0000000000000000E+00
   0.0000000000000000E+00
   0.0000000000000000E+00
   0.0000000000000000E+00
   0.0000000000000000E+00
   0.0000000000000000E+00
   0.0000000000000000E+00
   0.0000000000000000E+00
   0.0000000000000000E+00
   0.0000000000000000E+00
   0.0000000000000000E+00
   0.0000000000000000E+00
   0.0000000000000000E+00
   0.0000000000000000E+00
   0.0000000000000000E+00
   0.0000000000000000E+00
   0.0000000000000000E+00
SCALARS w double 1
LOOKUP_TABLE default
  -0.2480714001253854E-02
  -0.3562094290911251E-02
   0.1223302488951560E-01
  -0.9956698409408448E-02
   0.0000000000000000E+00
   0.0000000000000000E+00
   0.0000000000000000E+00
   0.0000000000000000E+00
   0.0000000000000000E+00
  -0.1168406872210289E+00
  -0.5075037159215554E-01
  -0.1318959178676004E-01
  -0.6805101857554305E-02
  -0.1370835100830694E-01
  -0.1362789985586787E-01
  -0.8715060952515584E-02
  -0.6628707011692350E-02
   0.9286115964135866E-02
  -0.6430882717900581E-02
  -0.5741974645255932E-01
  -0.3605703095385454E-01
  -0.1307078812701336E-01
  -0.6660907368775686E-02
  -0.7138009684822325E-02
  -0.5185332512122004E-02
  -0.9030952477367144E-02
  -0.9404116003682598E-02
  -0.1028694728401513E-01
   0.1471168462658069E-01
  -0.4230722466180499E-02
  -0.2271875509700387E-01
  -0.1125620422878079E-01
  -0.3200232945156575E-01
  -0.1241752156667761E-01
  -0.1698188939422632E-01
  -0.2288001040162535E-01
  -0.2474604123873555E-02
  -0.3554050731212747E-02
   0.1217627657560659E-01
  -0.1027449131402079E-01
   0.0000000000000000E+00
   0.0000000000000000E+00
   0.0000000000000000E+00
   0.0000000000000000E+00
   0.0000000000000000E+00
  -0.1163498818016390E+00
  -0.5031786603198973E-01
  -0.1306911966837566E-01
  -0.6813781441161436E-02
  -0.1374746600239634E-01
  -0.1367203758478638E-01
  -0.8751013640112692E-02
  -0.6844109842182458E-02
   0.8883026144195220E-02
  -0.6504976479837939E-02
  -0.5804748869582234E-01
  -0.3557758887216341E-01
  -0.1318015979022788E-01
  -0.6878609100725848E-02
  -0.7395927679862949E-02
  -0.5549632546957832E-02
  -0.9298909358586075E-02
  -0.9707161252660775E-02
  -0.1044795236665425E-01
   0.1453195243498688E-01
  -0.4312831926714961E-02
  -0.2276531383273538E-01
  -0.1157169238440517E-01
  -0.3207119215423184E-01
  -0.1261017802643257E-01
  -0.1719483891326281E-01
  -0.2313516381429542E-01
  -0.2470907029285579E-02
  -0.3548314278237260E-02
   0.1216202045779349E-01
  -0.1017044610405044E-01
   0.0000000000000000E+00
   0.0000000000000000E+00
   0.0000000000000000E+00
   0.0000000000000000E+00
   0.0000000000000000E+00
  -0.1162024952431084E+00
  -0.5019295455900848E-01
  -0.1304617022315025E-01
  -0.6845573982863415E-02
  -0.1372662917734909E-01
  -0.1362521134769258E-01
  -0.8714475548753792E-02
  -0.6798545042998779E-02
   0.8931605269038878E-02
  -0.6477983445969502E-02
  -0.5801890185850882E-01
  -0.3543905912603498E-01
  -0.1315801992677674E-01
  -0.6811165985938482E-02
  -0.7368513356967866E-02
  -0.5489488897986386E-02
  -0.9240240606379494E-02
  -0.9666419460928770E-02
  -0.1037367408618297E-01
   0.1447202016295630E-01
  -0.4359038992747483E-02
  -0.2273570748965829E-01
  -0.1154522715402689E-01
  -0.3202986620314461E-01
  -0.1253987597165000E-01
  -0.1716174852204257E-01
  -0.2312218235897611E-01
  -0.2475291643265013E-02
  -0.3552006506621156E-02
   0.1216821012525063E-01
  -0.1020676447062558E-01
   0.0000000000000000E+00
   0.0000000000000000E+00