title="tecplot geometry and solution file"
variables = x y z rho u v w p mach temperature
zone t="boundary 1 bc-1", solutiontime= 0.9000000E+02, strandid=1001, i=30, j=20, f=feblock
  0.000000000000E+00  0.000000000000E+00  0.000000000000E+00  0.000000000000E+00  0.000000000000E+00  0.000000000000E+00  0.000000000000E+00
  0.000000000000E+00  0.000000000000E+00  0.000000000000E+00  0.000000000000E+00  0.000000000000E+00  0.000000000000E+00  0.000000000000E+00
  0.000000000000E+00  0.000000000000E+00  0.000000000000E+00  0.000000000000E+00  0.000000000000E+00  0.000000000000E+00  0.000000000000E+00
  0.000000000000E+00  0.000000000000E+00  0.000000000000E+00  0.000000000000E+00  0.000000000000E+00  0.000000000000E+00  0.000000000000E+00
  0.000000000000E+00  0.000000000000E+00
  0.000000000000E+00  0.000000000000E+00 -0.100000000000E+01  0.000000000000E+00 -0.100000000000E+01 -0.200000000000E+01  0.000000000000E+00
 -0.100000000000E+01 -0.200000000000E+01 -0.300000000000E+01  0.000000000000E+00 -0.100000000000E+01 -0.200000000000E+01 -0.300000000000E+01
 -0.400000000000E+01 -0.100000000000E+01 -0.200000000000E+01 -0.300000000000E+01 -0.400000000000E+01 -0.500000000000E+01 -0.200000000000E+01
 -0.300000000000E+01 -0.400000000000E+01 -0.500000000000E+01 -0.300000000000E+01 -0.400000000000E+01 -0.500000000000E+01 -0.400000000000E+01
 -0.500000000000E+01 -0.500000000000E+01
  0.500000000000E+01  0.375000000000E+01  0.500000000000E+01  0.250000000000E+01  0.375000000000E+01  0.500000000000E+01  0.125000000000E+01
  0.250000000000E+01  0.375000000000E+01  0.500000000000E+01  0.000000000000E+00  0.125000000000E+01  0.250000000000E+01  0.375000000000E+01
  0.500000000000E+01  0.000000000000E+00  0.125000000000E+01  0.250000000000E+01  0.375000000000E+01  0.500000000000E+01  0.000000000000E+00
  0.125000000000E+01  0.250000000000E+01  0.375000000000E+01  0.000000000000E+00  0.125000000000E+01  0.250000000000E+01  0.000000000000E+00
  0.125000000000E+01  0.000000000000E+00
  0.100565564673E+01  0.100446278796E+01  0.100563339975E+01  0.103609870358E+01  0.100437124368E+01  0.100564128627E+01  0.100646838224E+01
  0.103586533695E+01  0.100438823026E+01  0.100564128625E+01  0.151346804170E+01  0.100578213282E+01  0.103589564908E+01  0.100438823018E+01
  0.100563339920E+01  0.151312474941E+01  0.100579037212E+01  0.103589564872E+01  0.100437124371E+01  0.100565564609E+01  0.151311780695E+01
  0.100579037277E+01  0.103586533929E+01  0.100446278924E+01  0.151311780724E+01  0.100578213160E+01  0.103609870900E+01  0.151312473146E+01
  0.100646838248E+01  0.151346799636E+01
  0.495143663745E+00  0.495209097187E+00  0.495174597358E+00  0.466354652175E+00  0.495304077408E+00  0.495164976034E+00  0.486053661895E+00
  0.466551986250E+00  0.495287004429E+00  0.495164976306E+00  0.000000000000E+00  0.485873696142E+00  0.466521864260E+00  0.495287004068E+00
  0.495174597181E+00  0.000000000000E+00  0.485825574135E+00  0.466521864659E+00  0.495304078862E+00  0.495143661422E+00  0.000000000000E+00
  0.485825574659E+00  0.466551988249E+00  0.495209098966E+00  0.000000000000E+00  0.485873692048E+00  0.466354654379E+00  0.000000000000E+00
  0.486053650643E+00  0.000000000000E+00
  0.000000000000E+00  0.000000000000E+00  0.910807560820E-05  0.000000000000E+00 -0.964387276741E-05  0.439818254423E-05  0.000000000000E+00
 -0.442419658802E-04  0.397626945973E-05 -0.439868481773E-05  0.000000000000E+00 -0.206534826947E-03  0.124050054450E-04 -0.397694939946E-05
 -0.910803842766E-05  0.000000000000E+00 -0.457212606250E-05 -0.124035363522E-04  0.964232527578E-05  0.000000000000E+00  0.000000000000E+00
  0.457290893631E-05  0.442420091903E-04  0.000000000000E+00  0.000000000000E+00  0.206531826803E-03  0.000000000000E+00  0.000000000000E+00
  0.000000000000E+00  0.000000000000E+00
  0.356104397046E-04  0.977945361837E-03  0.133360878976E-04  0.262387208433E-02  0.100860811393E-02  0.191798920042E-04  0.727038983118E-01
  0.258061153962E-02  0.100330252682E-02  0.191798101936E-04  0.000000000000E+00  0.720455791512E-01  0.256983674744E-02  0.100330179247E-02
  0.133362572445E-04  0.000000000000E+00  0.720494027551E-01  0.256983588410E-02  0.100860569582E-02  0.356096671079E-04  0.000000000000E+00
  0.720494016921E-01  0.258060943519E-02  0.977942713761E-03  0.000000000000E+00  0.720456016604E-01  0.262386840578E-02  0.000000000000E+00
  0.727039542429E-01  0.000000000000E+00
  0.719063964898E+00  0.720168700811E+00  0.719037464333E+00  0.743882679381E+00  0.720087501260E+00  0.719045408611E+00  0.743509183235E+00
  0.743629608767E+00  0.720104347785E+00  0.719045408573E+00  0.108104860121E+01  0.742891913304E+00  0.743659638617E+00  0.720104347699E+00
  0.719037463836E+00  0.108080339243E+01  0.742902505195E+00  0.743659638241E+00  0.720087501256E+00  0.719063964310E+00  0.108079843353E+01
  0.742902505483E+00  0.743629611658E+00  0.720168701781E+00  0.108079843375E+01  0.742891911369E+00  0.743882686043E+00  0.108080337962E+01
  0.743509182460E+00  0.108104856883E+01
  0.494889335084E+00  0.494282515309E+00  0.494923897589E+00  0.465165515452E+00  0.494382722021E+00  0.494913487887E+00  0.483261319999E+00
  0.465388860390E+00  0.494364067720E+00  0.494913488170E+00  0.000000000000E+00  0.483026833693E+00  0.465356165818E+00  0.494364067369E+00
  0.494923897448E+00  0.000000000000E+00  0.482979067046E+00  0.465356166246E+00  0.494382723475E+00  0.494889332807E+00  0.000000000000E+00
  0.482979067464E+00  0.465388861994E+00  0.494282517062E+00  0.000000000000E+00  0.483026833292E+00  0.465165516763E+00  0.000000000000E+00
  0.483261317503E+00  0.000000000000E+00
  0.100102808962E+01  0.100375662814E+01  0.100101334176E+01  0.100515109954E+01  0.100373493179E+01  0.100101655113E+01  0.103422310616E+01
  0.100503551489E+01  0.100374143835E+01  0.100101655109E+01  0.100000000000E+01  0.103406955113E+01  0.100504669074E+01  0.100374143830E+01
  0.100101334162E+01  0.100000000000E+01  0.103407582345E+01  0.100504669059E+01  0.100373493175E+01  0.100102808943E+01  0.100000000000E+01
  0.103407582319E+01  0.100503551652E+01  0.100375662821E+01  0.100000000000E+01  0.103406954969E+01  0.100515110328E+01  0.100000000000E+01
  0.103422310483E+01  0.100000000000E+01
         3         5         2         1
         5         8         4         2
         8        12         7         4
        12        16        11         7
         6         9         5         3
         9        13         8         5
        13        17        12         8
        17        21        16        12
        10        14         9         6
        14        18        13         9
        18        22        17        13
        22        25        21        17
        15        19        14        10
        19        23        18        14
        23        26        22        18
        26        28        25        22
        20        24        19        15
        24        27        23        19
        27        29        26        23
        29        30        28        26
zone t="boundary 2 bc-2", solutiontime= 0.9000000E+02, strandid=1002, i=36, j=54, f=feblock
  0.000000000000E+00  0.000000000000E+00  0.125000000000E+01  0.927277229330E+00  0.000000000000E+00  0.808767340464E+00  0.250000000000E+01
  0.200015314465E+01  0.159811178309E+01  0.000000000000E+00  0.788610714940E+00  0.166089064953E+01  0.375000000000E+01  0.302917356382E+01
  0.251951680990E+01  0.000000000000E+00  0.922470079966E+00  0.155975728194E+01  0.248290550026E+01  0.500000000000E+01  0.408598113822E+01
  0.343926566813E+01  0.335900246540E+01  0.125000000000E+01  0.194390946502E+01  0.342785713990E+01  0.303922262431E+01  0.500000000000E+01
  0.418113428997E+01  0.420427672636E+01  0.250000000000E+01  0.407022608176E+01  0.375000000000E+01  0.500000000000E+01  0.500000000000E+01
  0.500000000000E+01
 -0.500000000000E+01 -0.500000000000E+01 -0.500000000000E+01 -0.500000000000E+01 -0.500000000000E+01 -0.500000000000E+01 -0.500000000000E+01
 -0.500000000000E+01 -0.500000000000E+01 -0.500000000000E+01 -0.500000000000E+01 -0.500000000000E+01 -0.500000000000E+01 -0.500000000000E+01
 -0.500000000000E+01 -0.500000000000E+01 -0.500000000000E+01 -0.500000000000E+01 -0.500000000000E+01 -0.500000000000E+01 -0.500000000000E+01
 -0.500000000000E+01 -0.500000000000E+01 -0.500000000000E+01 -0.500000000000E+01 -0.500000000000E+01 -0.500000000000E+01 -0.500000000000E+01
 -0.500000000000E+01 -0.500000000000E+01 -0.500000000000E+01 -0.500000000000E+01 -0.500000000000E+01 -0.500000000000E+01 -0.500000000000E+01
 -0.500000000000E+01
  0.500000000000E+01  0.375000000000E+01  0.500000000000E+01  0.407028758380E+01  0.250000000000E+01  0.304670041123E+01  0.500000000000E+01
  0.412794152677E+01  0.335665681540E+01  0.125000000000E+01  0.198126541595E+01  0.250873735781E+01  0.500000000000E+01  0.411957427728E+01
  0.312048263313E+01  0.000000000000E+00  0.946304642783E+00  0.163560705955E+01  0.188538514993E+01  0.500000000000E+01  0.406998372535E+01
  0.336287803245E+01  0.249594576135E+01  0.000000000000E+00  0.856342731261E+00  0.160831620694E+01  0.872884388455E+00  0.375000000000E+01
  0.303980693646E+01  0.199299477617E+01  0.000000000000E+00  0.954032561928E+00  0.000000000000E+00  0.250000000000E+01  0.125000000000E+01
  0.000000000000E+00
  0.100565564609E+01  0.100446278924E+01  0.100045197497E+01  0.100566357715E+01  0.103609870900E+01  0.100916775003E+01  0.100413820806E+01
  0.100643120739E+01  0.101509226658E+01  0.100646838248E+01  0.100520815208E+01  0.987191692534E+00  0.100328208543E+01  0.100584262950E+01
  0.998667257089E+00  0.151346799636E+01  0.101300643971E+01  0.102761148316E+01  0.998499572191E+00  0.100395662026E+01  0.100389681589E+01
  0.999044594296E+00  0.100006018471E+01  0.889189040666E+00  0.102162285696E+01  0.984451134037E+00  0.996488673799E+00  0.100340101887E+01
  0.100231153559E+01  0.997442269230E+00  0.958937977841E+00  0.102600480782E+01  0.981290866682E+00  0.101583464477E+01  0.992113408170E+00
  0.822836495494E+00
  0.495143661422E+00  0.495209098966E+00  0.496193968284E+00  0.494229335463E+00  0.466354654379E+00  0.495222506777E+00  0.491942219133E+00
  0.495124192524E+00  0.494687339148E+00  0.486053650643E+00  0.501947564134E+00  0.524109234820E+00  0.493965651748E+00  0.495358467607E+00
  0.509946738759E+00  0.000000000000E+00  0.552128913589E+00  0.563555097857E+00  0.588068302057E+00  0.493493699986E+00  0.493481488952E+00
  0.506805673481E+00  0.563407271699E+00  0.000000000000E+00  0.424218732074E+00  0.554954292715E+00  0.388622390901E+00  0.504239972483E+00
  0.525440123625E+00  0.576140119678E+00  0.000000000000E+00  0.439661479202E+00  0.000000000000E+00  0.526644147869E+00  0.489121082615E+00
  0.000000000000E+00
  0.000000000000E+00  0.000000000000E+00  0.000000000000E+00  0.000000000000E+00  0.000000000000E+00  0.000000000000E+00  0.000000000000E+00
  0.000000000000E+00  0.000000000000E+00  0.000000000000E+00  0.000000000000E+00  0.000000000000E+00  0.000000000000E+00  0.000000000000E+00
  0.000000000000E+00  0.000000000000E+00  0.000000000000E+00  0.000000000000E+00  0.000000000000E+00  0.000000000000E+00  0.000000000000E+00
  0.000000000000E+00  0.000000000000E+00  0.000000000000E+00  0.000000000000E+00  0.000000000000E+00  0.000000000000E+00  0.000000000000E+00
  0.000000000000E+00  0.000000000000E+00  0.000000000000E+00  0.000000000000E+00  0.000000000000E+00  0.000000000000E+00  0.000000000000E+00
  0.000000000000E+00
  0.356096671079E-04  0.977942713761E-03  0.829910876665E-02  0.446171092140E-02  0.262386840578E-02  0.114552921916E-01  0.742262722933E-02
  0.877207342566E-02  0.648376683038E-02  0.727039542429E-01  0.186241642151E-01  0.272704226979E-01  0.514248531125E-02  0.564158193347E-02
  0.112874857551E-01  0.000000000000E+00  0.127994043581E+00  0.474125633734E-01  0.294160814993E-01  0.233095441765E-02  0.378561730594E-02
  0.564621075833E-02  0.608970412324E-02  0.000000000000E+00  0.609785948244E-02  0.123383833855E-01  0.758054915514E-02  0.117708639276E-01
  0.783266899933E-02 -0.204318473827E-02  0.000000000000E+00 -0.305511285658E-01  0.000000000000E+00 -0.935164395673E-02 -0.719069765793E-01
  0.000000000000E+00
  0.719063964310E+00  0.720168701781E+00  0.716620060695E+00  0.720735340238E+00  0.743882686043E+00  0.717936895071E+00  0.719360826535E+00
  0.718306689213E+00  0.723414454139E+00  0.743509182460E+00  0.738619660948E+00  0.714634415294E+00  0.717860563625E+00  0.718836856006E+00
  0.715964483390E+00  0.108104856883E+01  0.680950396321E+00  0.734491015494E+00  0.708662823693E+00  0.717495297730E+00  0.717346178660E+00
  0.714955984850E+00  0.716032214835E+00  0.635135029047E+00  0.708298715329E+00  0.694192245360E+00  0.697027742069E+00  0.718595090330E+00
  0.719427130097E+00  0.708504122671E+00  0.684955698458E+00  0.714686749376E+00  0.700922047630E+00  0.730774739873E+00  0.694833076759E+00
  0.587740353924E+00
  0.494889332807E+00  0.494282517062E+00  0.495566387576E+00  0.493424432267E+00  0.465165516763E+00  0.496353467222E+00  0.491272961640E+00
  0.495399279709E+00  0.495294204439E+00  0.483261317503E+00  0.495234214816E+00  0.521319139924E+00  0.493568855315E+00  0.495260381556E+00
  0.509133683753E+00  0.000000000000E+00  0.584240410563E+00  0.565360109206E+00  0.590691235014E+00  0.493367325487E+00  0.493400710691E+00
  0.506357426879E+00  0.562769542571E+00  0.000000000000E+00  0.430633448612E+00  0.558673037772E+00  0.392787411179E+00  0.503717102816E+00
  0.524222216169E+00  0.577749429182E+00  0.000000000000E+00  0.446290063023E+00  0.000000000000E+00  0.524857551237E+00  0.499270523616E+00
  0.000000000000E+00
  0.100102808943E+01  0.100375662821E+01  0.100281483776E+01  0.100334694351E+01  0.100515110328E+01  0.995980750539E+00  0.100295472183E+01
  0.999203281370E+00  0.997722344199E+00  0.103422310483E+01  0.102870984799E+01  0.101346900402E+01  0.100171706808E+01  0.100052589629E+01
  0.100368793473E+01  0.100000000000E+01  0.941090320340E+00  0.100065777635E+01  0.993618806459E+00  0.100053468104E+01  0.100038632879E+01
  0.100189559556E+01  0.100238477253E+01  0.100000000000E+01  0.970630399181E+00  0.987219283824E+00  0.979277401293E+00  0.100262318609E+01
  0.100487517740E+01  0.994449305326E+00  0.100000000000E+01  0.975201520984E+00  0.100000000000E+01  0.100713697952E+01  0.980499103682E+00
  0.100000000000E+01
        12        15        19        19
        19        27        25        25
        23        29        30        30
        12        11         6         6
        15         8        14        14
        12        18        11        11
        17        10        11        11
        19        26        27        27
        32        33        27        27
        21        22        14        14
         4         3         8         8
        17        18        25        25
        32        26        30        30
        23        22        29        29
        21        28        29        29
         4         9         6         6
        14        22        15        15
        30        26        23        23
         6         9        12        12
        25        18        19        19
        15        23        19        19
        28        21        20        20
        14        13        21        21
         3         4         1         1
         6         2         4         4
        10        17        16        16
        25        24        17        17
        33        32        36        36
        30        35        32        32
        35        30        34        34
        22        23        15        15
         8         3         7         7
        13        14         7         7
        24        25        31        31
        26        19        23        23
        11        10         5         5
         2         6         5         5
        18        17        11        11
        22        21        29        29
         9         4         8         8
         8         7        14        14
        30        29        34        34
        33        31        27        27
        27        26        32        32
        28        34        29        29
        25        27        31        31
         9         8        15        15
        15        12         9         9
        12        19        18        18
        21        13        20        20
        17        24        16        16
        32        35        36        36
         4         2         1         1
        11         5         6         6
zone t="boundary 3 bc-3", solutiontime= 0.9000000E+02, strandid=1003, i=36, j=54, f=feblock
  0.000000000000E+00  0.000000000000E+00  0.125000000000E+01  0.927277229330E+00  0.000000000000E+00  0.808767340464E+00  0.250000000000E+01
  0.200015314465E+01  0.159811178309E+01  0.000000000000E+00  0.788610714940E+00  0.166089064953E+01  0.375000000000E+01  0.302917356382E+01
  0.251951680990E+01  0.000000000000E+00  0.922470079966E+00  0.155975728194E+01  0.248290550026E+01  0.500000000000E+01  0.408598113822E+01
  0.343926566813E+01  0.335900246540E+01  0.125000000000E+01  0.194390946502E+01  0.342785713990E+01  0.303922262431E+01  0.500000000000E+01
  0.418113428997E+01  0.420427672636E+01  0.250000000000E+01  0.407022608176E+01  0.375000000000E+01  0.500000000000E+01  0.500000000000E+01
  0.500000000000E+01
  0.000000000000E+00  0.000000000000E+00  0.000000000000E+00  0.000000000000E+00  0.000000000000E+00  0.000000000000E+00  0.000000000000E+00
  0.000000000000E+00  0.000000000000E+00  0.000000000000E+00  0.000000000000E+00  0.000000000000E+00  0.000000000000E+00  0.000000000000E+00
  0.000000000000E+00  0.000000000000E+00  0.000000000000E+00  0.000000000000E+00  0.000000000000E+00  0.000000000000E+00  0.000000000000E+00
  0.000000000000E+00  0.000000000000E+00  0.000000000000E+00  0.000000000000E+00  0.000000000000E+00  0.000000000000E+00  0.000000000000E+00
  0.000000000000E+00  0.000000000000E+00  0.000000000000E+00  0.000000000000E+00  0.000000000000E+00  0.000000000000E+00  0.000000000000E+00
  0.000000000000E+00
  0.500000000000E+01  0.375000000000E+01  0.500000000000E+01  0.407028758380E+01  0.250000000000E+01  0.304670041123E+01  0.500000000000E+01
  0.412794152677E+01  0.335665681540E+01  0.125000000000E+01  0.198126541595E+01  0.250873735781E+01  0.500000000000E+01  0.411957427728E+01
  0.312048263313E+01  0.000000000000E+00  0.946304642783E+00  0.163560705955E+01  0.188538514993E+01  0.500000000000E+01  0.406998372535E+01
  0.336287803245E+01  0.249594576135E+01  0.000000000000E+00  0.856342731261E+00  0.160831620694E+01  0.872884388455E+00  0.375000000000E+01
  0.303980693646E+01  0.199299477617E+01  0.000000000000E+00  0.954032561928E+00  0.000000000000E+00  0.250000000000E+01  0.125000000000E+01
  0.000000000000E+00
  0.100565564673E+01  0.100446278796E+01  0.100045197751E+01  0.100566357615E+01  0.103609870358E+01  0.100916774911E+01  0.100413820753E+01
  0.100643120507E+01  0.101509226874E+01  0.100646838224E+01  0.100520814838E+01  0.987191697300E+00  0.100328208211E+01  0.100584262275E+01
  0.998667261526E+00  0.151346804170E+01  0.101300644103E+01  0.102761149196E+01  0.998499576929E+00  0.100395661782E+01  0.100389680907E+01
  0.999044601239E+00  0.100006020409E+01  0.889188968056E+00  0.102162283905E+01  0.984451131653E+00  0.996488668491E+00  0.100340102147E+01
  0.100231155139E+01  0.997442286617E+00  0.958937945174E+00  0.102600479497E+01  0.981290860181E+00  0.101583466325E+01  0.992113411412E+00
  0.822836456668E+00
  0.495143663745E+00  0.495209097187E+00  0.496193960177E+00  0.494229335776E+00  0.466354652175E+00  0.495222507458E+00  0.491942213608E+00
  0.495124190844E+00  0.494687341638E+00  0.486053661895E+00  0.501947550067E+00  0.524109207724E+00  0.493965627427E+00  0.495358478577E+00
  0.509946717120E+00  0.000000000000E+00  0.552128918419E+00  0.563555119653E+00  0.588068296314E+00  0.493493689715E+00  0.493481493554E+00
  0.506805669000E+00  0.563407222335E+00  0.000000000000E+00  0.424218745244E+00  0.554954288366E+00  0.388622440199E+00  0.504239976269E+00
  0.525440107259E+00  0.576140115561E+00  0.000000000000E+00  0.439661477672E+00  0.000000000000E+00  0.526644152298E+00  0.489121042553E+00
  0.000000000000E+00
  0.000000000000E+00  0.000000000000E+00  0.000000000000E+00  0.000000000000E+00  0.000000000000E+00  0.000000000000E+00  0.000000000000E+00
  0.000000000000E+00  0.000000000000E+00  0.000000000000E+00  0.000000000000E+00  0.000000000000E+00  0.000000000000E+00  0.000000000000E+00
  0.000000000000E+00  0.000000000000E+00  0.000000000000E+00  0.000000000000E+00  0.000000000000E+00  0.000000000000E+00  0.000000000000E+00
  0.000000000000E+00  0.000000000000E+00  0.000000000000E+00  0.000000000000E+00  0.000000000000E+00  0.000000000000E+00  0.000000000000E+00
  0.000000000000E+00  0.000000000000E+00  0.000000000000E+00  0.000000000000E+00  0.000000000000E+00  0.000000000000E+00  0.000000000000E+00
  0.000000000000E+00
  0.356104397046E-04  0.977945361837E-03  0.829910324603E-02  0.446170454561E-02  0.262387208433E-02  0.114552854727E-01  0.742262586914E-02
  0.877208338807E-02  0.648377256056E-02  0.727038983118E-01  0.186241523610E-01  0.272704252181E-01  0.514248873566E-02  0.564157413497E-02
  0.112874807492E-01  0.000000000000E+00  0.127994064668E+00  0.474125494120E-01  0.294160477374E-01  0.233095091830E-02  0.378562783561E-02
  0.564621451000E-02  0.608973434956E-02  0.000000000000E+00  0.609786147780E-02  0.123384275494E-01  0.758052494892E-02  0.117708633970E-01
  0.783263908636E-02 -0.204313277590E-02  0.000000000000E+00 -0.305510915862E-01  0.000000000000E+00 -0.935158948861E-02 -0.719069670393E-01
  0.000000000000E+00
  0.719063964898E+00  0.720168700811E+00  0.716620063160E+00  0.720735339356E+00  0.743882679381E+00  0.717936893201E+00  0.719360825791E+00
  0.718306686766E+00  0.723414456118E+00  0.743509183235E+00  0.738619661290E+00  0.714634421208E+00  0.717860560052E+00  0.718836848839E+00
  0.715964487704E+00  0.108104860121E+01  0.680950393247E+00  0.734491018380E+00  0.708662829538E+00  0.717495295082E+00  0.717346171804E+00
  0.714955992085E+00  0.716032235277E+00  0.635134977183E+00  0.708298700679E+00  0.694192239336E+00  0.697027730861E+00  0.718595092646E+00
  0.719427145204E+00  0.708504135234E+00  0.684955675125E+00  0.714686741446E+00  0.700922042986E+00  0.730774756937E+00  0.694833080600E+00
  0.587740326191E+00
  0.494889335084E+00  0.494282515309E+00  0.495566379165E+00  0.493424432577E+00  0.465165515452E+00  0.496353468168E+00  0.491272956228E+00
  0.495399278477E+00  0.495294206854E+00  0.483261319999E+00  0.495234199496E+00  0.521319112277E+00  0.493568831463E+00  0.495260393241E+00
  0.509133661645E+00  0.000000000000E+00  0.584240422024E+00  0.565360131059E+00  0.590691226533E+00  0.493367315515E+00  0.493400716057E+00
  0.506357421641E+00  0.562769491015E+00  0.000000000000E+00  0.430633462687E+00  0.558673036132E+00  0.392787462621E+00  0.503717106424E+00
  0.524222198028E+00  0.577749424782E+00  0.000000000000E+00  0.446290058562E+00  0.000000000000E+00  0.524857553333E+00  0.499270481623E+00
  0.000000000000E+00
  0.100102808962E+01  0.100375662814E+01  0.100281483867E+01  0.100334694328E+01  0.100515109954E+01  0.995980748854E+00  0.100295472132E+01
  0.999203280272E+00  0.997722344812E+00  0.103422310616E+01  0.102870985226E+01  0.101346900752E+01  0.100171706641E+01  0.100052589303E+01
  0.100368793631E+01  0.100000000000E+01  0.941090314858E+00  0.100065777171E+01  0.993618809940E+00  0.100053467977E+01  0.100038632601E+01
  0.100189559873E+01  0.100238478172E+01  0.100000000000E+01  0.970630396116E+00  0.987219277648E+00  0.979277390763E+00  0.100262318672E+01
  0.100487518266E+01  0.994449305625E+00  0.100000000000E+01  0.975201522384E+00  0.100000000000E+01  0.100713698472E+01  0.980499105899E+00
  0.100000000000E+01
        19        15        12        12
        25        27        19        19
        30        29        23        23
         6        11        12        12
        14         8        15        15
        11        18        12        12
        11        10        17        17
        27        26        19        19
        27        33        32        32
        14        22        21        21
         8         3         4         4
        25        18        17        17
        30        26        32        32
        29        22        23        23
        29        28        21        21
         6         9         4         4
        15        22        14        14
        23        26        30        30
        12         9         6         6
        19        18        25        25
        19        23        15        15
        20        21        28        28
        21        13        14        14
         1         4         3         3
         4         2         6         6
        16        17        10        10
        17        24        25        25
        36        32        33        33
        32        35        30        30
        34        30        35        35
        15        23        22        22
         7         3         8         8
         7        14        13        13
        31        25        24        24
        23        19        26        26
         5        10        11        11
         5         6         2         2
        11        17        18        18
        29        21        22        22
         8         4         9         9
        14         7         8         8
        34        29        30        30
        27        31        33        33
        32        26        27        27
        29        34        28        28
        31        27        25        25
        15         8         9         9
         9        12        15        15
        18        19        12        12
        20        13        21        21
        16        24        17        17
        36        35        32        32
         1         2         4         4
         6         5        11        11
zone t="boundary 4 bc-4", solutiontime= 0.9000000E+02, strandid=1004, i=30, j=20, f=feblock
  0.000000000000E+00  0.125000000000E+01  0.000000000000E+00  0.250000000000E+01  0.125000000000E+01  0.000000000000E+00  0.375000000000E+01
  0.250000000000E+01  0.125000000000E+01  0.000000000000E+00  0.500000000000E+01  0.375000000000E+01  0.250000000000E+01  0.125000000000E+01
  0.000000000000E+00  0.500000000000E+01  0.375000000000E+01  0.250000000000E+01  0.125000000000E+01  0.000000000000E+00  0.500000000000E+01
  0.375000000000E+01  0.250000000000E+01  0.125000000000E+01  0.500000000000E+01  0.375000000000E+01  0.250000000000E+01  0.500000000000E+01
  0.375000000000E+01  0.500000000000E+01
  0.000000000000E+00  0.000000000000E+00 -0.100000000000E+01  0.000000000000E+00 -0.100000000000E+01 -0.200000000000E+01  0.000000000000E+00
 -0.100000000000E+01 -0.200000000000E+01 -0.300000000000E+01  0.000000000000E+00 -0.100000000000E+01 -0.200000000000E+01 -0.300000000000E+01
 -0.400000000000E+01 -0.100000000000E+01 -0.200000000000E+01 -0.300000000000E+01 -0.400000000000E+01 -0.500000000000E+01 -0.200000000000E+01
 -0.300000000000E+01 -0.400000000000E+01 -0.500000000000E+01 -0.300000000000E+01 -0.400000000000E+01 -0.500000000000E+01 -0.400000000000E+01
 -0.500000000000E+01 -0.500000000000E+01
  0.500000000000E+01  0.500000000000E+01  0.500000000000E+01  0.500000000000E+01  0.500000000000E+01  0.500000000000E+01  0.500000000000E+01
  0.500000000000E+01  0.500000000000E+01  0.500000000000E+01  0.500000000000E+01  0.500000000000E+01  0.500000000000E+01  0.500000000000E+01
  0.500000000000E+01  0.500000000000E+01  0.500000000000E+01  0.500000000000E+01  0.500000000000E+01  0.500000000000E+01  0.500000000000E+01
  0.500000000000E+01  0.500000000000E+01  0.500000000000E+01  0.500000000000E+01  0.500000000000E+01  0.500000000000E+01  0.500000000000E+01
  0.500000000000E+01  0.500000000000E+01
  0.100565564673E+01  0.100045197751E+01  0.100563339975E+01  0.100413820753E+01  0.100038317336E+01  0.100564128627E+01  0.100328208211E+01
  0.100406193023E+01  0.100040835110E+01  0.100564128625E+01  0.100395661782E+01  0.100320266741E+01  0.100409694589E+01  0.100040835121E+01
  0.100563339920E+01  0.100392909557E+01  0.100323644468E+01  0.100409694605E+01  0.100038317227E+01  0.100565564609E+01  0.100394607145E+01
  0.100323644528E+01  0.100406192994E+01  0.100045197497E+01  0.100394607148E+01  0.100320266727E+01  0.100413820806E+01  0.100392909627E+01
  0.100328208543E+01  0.100395662026E+01
  0.495143663745E+00  0.496193960177E+00  0.495174597358E+00  0.491942213608E+00  0.496276750920E+00  0.495164976034E+00  0.493965627427E+00
  0.492157579765E+00  0.496234075498E+00  0.495164976306E+00  0.493493689715E+00  0.494225899292E+00  0.492090978352E+00  0.496234075848E+00
  0.495174597181E+00  0.493476275997E+00  0.494163127031E+00  0.492090977968E+00  0.496276752157E+00  0.495143661422E+00  0.493464129770E+00
  0.494163124090E+00  0.492157578719E+00  0.496193968284E+00  0.493464129333E+00  0.494225907924E+00  0.491942219133E+00  0.493476276741E+00
  0.493965651748E+00  0.493493699986E+00
  0.000000000000E+00  0.000000000000E+00  0.910807560820E-05  0.000000000000E+00 -0.338474129628E-04  0.439818254423E-05  0.000000000000E+00
 -0.414179454951E-04  0.103604147874E-04 -0.439868481773E-05  0.000000000000E+00 -0.555990058713E-04  0.195335376044E-04 -0.103614904616E-04
 -0.910803842766E-05 -0.378361079483E-04  0.154312347509E-04 -0.195359063269E-04  0.338462889594E-04  0.000000000000E+00  0.583826715760E-05
 -0.154392502515E-04  0.414139362765E-04  0.000000000000E+00 -0.583768718820E-05  0.555877215309E-04  0.000000000000E+00  0.378351841774E-04
  0.000000000000E+00  0.000000000000E+00