# vtk DataFile Version 2.0
FUN3D:global_image_vtk
ASCII
DATASET UNSTRUCTURED_GRID
POINTS 216 double
    0.0000000000000000E+00    0.0000000000000000E+00    0.5000000000000000E+01
    0.0000000000000000E+00    0.0000000000000000E+00    0.3750000000000000E+01
    0.0000000000000000E+00    0.0000000000000000E+00    0.2500000000000000E+01
    0.0000000000000000E+00    0.0000000000000000E+00    0.1250000000000000E+01
    0.0000000000000000E+00    0.0000000000000000E+00    0.0000000000000000E+00
    0.1250000000000000E+01    0.0000000000000000E+00    0.0000000000000000E+00
    0.2500000000000000E+01    0.0000000000000000E+00    0.0000000000000000E+00
    0.3750000000000000E+01    0.0000000000000000E+00    0.0000000000000000E+00
    0.5000000000000000E+01    0.0000000000000000E+00    0.0000000000000000E+00
    0.5000000000000000E+01    0.0000000000000000E+00    0.1250000000000000E+01
    0.5000000000000000E+01    0.0000000000000000E+00    0.2500000000000000E+01
    0.5000000000000000E+01    0.0000000000000000E+00    0.3750000000000000E+01
    0.5000000000000000E+01    0.0000000000000000E+00    0.5000000000000000E+01
    0.3750000000000000E+01    0.0000000000000000E+00    0.5000000000000000E+01
    0.2500000000000000E+01    0.0000000000000000E+00    0.5000000000000000E+01
    0.1250000000000000E+01    0.0000000000000000E+00    0.5000000000000000E+01
    0.8087673404641089E+00    0.0000000000000000E+00    0.3046700411233810E+01
    0.7886107149397936E+00    0.0000000000000000E+00    0.1981265415950838E+01
    0.9272772293302283E+00    0.0000000000000000E+00    0.4070287583796232E+01
    0.4070226081761783E+01    0.0000000000000000E+00    0.9540325619275125E+00
    0.9224700799661973E+00    0.0000000000000000E+00    0.9463046427831353E+00
    0.4085981138224748E+01    0.0000000000000000E+00    0.4069983725354533E+01
    0.1559757281943150E+01    0.0000000000000000E+00    0.1635607059547088E+01
    0.2482905500262050E+01    0.0000000000000000E+00    0.1885385149929012E+01
    0.1660890649526405E+01    0.0000000000000000E+00    0.2508737357811018E+01
    0.1598111783087740E+01    0.0000000000000000E+00    0.3356656815401915E+01
    0.2519516809901736E+01    0.0000000000000000E+00    0.3120482633132017E+01
    0.2000153144652849E+01    0.0000000000000000E+00    0.4127941526767214E+01
    0.3039222624309763E+01    0.0000000000000000E+00    0.8728843884554416E+00
    0.1943909465021303E+01    0.0000000000000000E+00    0.8563427312614358E+00
    0.4181134289965387E+01    0.0000000000000000E+00    0.3039806936459394E+01
    0.3427857139900839E+01    0.0000000000000000E+00    0.1608316206941619E+01
    0.4204276726360096E+01    0.0000000000000000E+00    0.1992994776168015E+01
    0.3029173563817358E+01    0.0000000000000000E+00    0.4119574277282996E+01
    0.3439265668129285E+01    0.0000000000000000E+00    0.3362878032445769E+01
    0.3359002465395521E+01    0.0000000000000000E+00    0.2495945761348561E+01
    0.0000000000000000E+00   -0.1000000000000000E+01    0.5000000000000000E+01
    0.0000000000000000E+00   -0.1000000000000000E+01    0.3750000000000000E+01
    0.0000000000000000E+00   -0.1000000000000000E+01    0.2500000000000000E+01
    0.0000000000000000E+00   -0.1000000000000000E+01    0.1250000000000000E+01
    0.0000000000000000E+00   -0.1000000000000000E+01    0.0000000000000000E+00
    0.1250000000000000E+01   -0.1000000000000000E+01    0.0000000000000000E+00
    0.2500000000000000E+01   -0.1000000000000000E+01    0.0000000000000000E+00
    0.3750000000000000E+01   -0.1000000000000000E+01    0.0000000000000000E+00
    0.5000000000000000E+01   -0.1000000000000000E+01    0.0000000000000000E+00
    0.5000000000000000E+01   -0.1000000000000000E+01    0.1250000000000000E+01
    0.5000000000000000E+01   -0.1000000000000000E+01    0.2500000000000000E+01
    0.5000000000000000E+01   -0.1000000000000000E+01    0.3750000000000000E+01
    0.5000000000000000E+01   -0.1000000000000000E+01    0.5000000000000000E+01
    0.3750000000000000E+01   -0.1000000000000000E+01    0.5000000000000000E+01
    0.2500000000000000E+01   -0.1000000000000000E+01    0.5000000000000000E+01
    0.1250000000000000E+01   -0.1000000000000000E+01    0.5000000000000000E+01
    0.8087673404641089E+00   -0.1000000000000000E+01    0.3046700411233810E+01
    0.7886107149397936E+00   -0.1000000000000000E+01    0.1981265415950838E+01
    0.9272772293302283E+00   -0.1000000000000000E+01    0.4070287583796232E+01
    0.4070226081761783E+01   -0.1000000000000000E+01    0.9540325619275125E+00
    0.9224700799661973E+00   -0.1000000000000000E+01    0.9463046427831353E+00
    0.4085981138224748E+01   -0.1000000000000000E+01    0.4069983725354533E+01
    0.1559757281943150E+01   -0.1000000000000000E+01    0.1635607059547088E+01
    0.2482905500262050E+01   -0.1000000000000000E+01    0.1885385149929012E+01
    0.1660890649526405E+01   -0.1000000000000000E+01    0.2508737357811018E+01
    0.1598111783087740E+01   -0.1000000000000000E+01    0.3356656815401915E+01
    0.2519516809901736E+01   -0.1000000000000000E+01    0.3120482633132017E+01
    0.2000153144652849E+01   -0.1000000000000000E+01    0.4127941526767214E+01
    0.3039222624309763E+01   -0.1000000000000000E+01    0.8728843884554416E+00
    0.1943909465021303E+01   -0.1000000000000000E+01    0.8563427312614358E+00
    0.4181134289965387E+01   -0.1000000000000000E+01    0.3039806936459394E+01
    0.3427857139900839E+01   -0.1000000000000000E+01    0.1608316206941619E+01
    0.4204276726360096E+01   -0.1000000000000000E+01    0.1992994776168015E+01
    0.3029173563817358E+01   -0.1000000000000000E+01    0.4119574277282996E+01
    0.3439265668129285E+01   -0.1000000000000000E+01    0.3362878032445769E+01
    0.3359002465395521E+01   -0.1000000000000000E+01    0.2495945761348561E+01
    0.0000000000000000E+00   -0.2000000000000000E+01    0.5000000000000000E+01
    0.0000000000000000E+00   -0.2000000000000000E+01    0.3750000000000000E+01
    0.0000000000000000E+00   -0.2000000000000000E+01    0.2500000000000000E+01
    0.0000000000000000E+00   -0.2000000000000000E+01    0.1250000000000000E+01
    0.0000000000000000E+00   -0.2000000000000000E+01    0.0000000000000000E+00
    0.1250000000000000E+01   -0.2000000000000000E+01    0.0000000000000000E+00
    0.2500000000000000E+01   -0.2000000000000000E+01    0.0000000000000000E+00
    0.3750000000000000E+01   -0.2000000000000000E+01    0.0000000000000000E+00
    0.5000000000000000E+01   -0.2000000000000000E+01    0.0000000000000000E+00
    0.5000000000000000E+01   -0.2000000000000000E+01    0.1250000000000000E+01
    0.5000000000000000E+01   -0.2000000000000000E+01    0.2500000000000000E+01
    0.5000000000000000E+01   -0.2000000000000000E+01    0.3750000000000000E+01
    0.5000000000000000E+01   -0.2000000000000000E+01    0.5000000000000000E+01
    0.3750000000000000E+01   -0.2000000000000000E+01    0.5000000000000000E+01
    0.2500000000000000E+01   -0.2000000000000000E+01    0.5000000000000000E+01
    0.1250000000000000E+01   -0.2000000000000000E+01    0.5000000000000000E+01
    0.8087673404641089E+00   -0.2000000000000000E+01    0.3046700411233810E+01
    0.7886107149397936E+00   -0.2000000000000000E+01    0.1981265415950838E+01
    0.9272772293302283E+00   -0.2000000000000000E+01    0.4070287583796232E+01
    0.4070226081761783E+01   -0.2000000000000000E+01    0.9540325619275125E+00
    0.9224700799661973E+00   -0.2000000000000000E+01    0.9463046427831353E+00
    0.4085981138224748E+01   -0.2000000000000000E+01    0.4069983725354533E+01
    0.1559757281943150E+01   -0.2000000000000000E+01    0.1635607059547088E+01
    0.2482905500262050E+01   -0.2000000000000000E+01    0.1885385149929012E+01
    0.1660890649526405E+01   -0.2000000000000000E+01    0.2508737357811018E+01
    0.1598111783087740E+01   -0.2000000000000000E+01    0.3356656815401915E+01
    0.2519516809901736E+01   -0.2000000000000000E+01    0.3120482633132017E+01
    0.2000153144652849E+01   -0.2000000000000000E+01    0.4127941526767214E+01
    0.3039222624309763E+01   -0.2000000000000000E+01    0.8728843884554416E+00
    0.1943909465021303E+01   -0.2000000000000000E+01    0.8563427312614358E+00
    0.4181134289965387E+01   -0.2000000000000000E+01    0.3039806936459394E+01
    0.3427857139900839E+01   -0.2000000000000000E+01    0.1608316206941619E+01
    0.4204276726360096E+01   -0.2000000000000000E+01    0.1992994776168015E+01
    0.3029173563817358E+01   -0.2000000000000000E+01    0.4119574277282996E+01
    0.3439265668129285E+01   -0.2000000000000000E+01    0.3362878032445769E+01
    0.3359002465395521E+01   -0.2000000000000000E+01    0.2495945761348561E+01
    0.0000000000000000E+00   -0.3000000000000000E+01    0.5000000000000000E+01
    0.0000000000000000E+00   -0.3000000000000000E+01    0.3750000000000000E+01
    0.0000000000000000E+00   -0.3000000000000000E+01    0.2500000000000000E+01
    0.0000000000000000E+00   -0.3000000000000000E+01    0.1250000000000000E+01
    0.0000000000000000E+00   -0.3000000000000000E+01    0.0000000000000000E+00
    0.1250000000000000E+01   -0.3000000000000000E+01    0.0000000000000000E+00
    0.2500000000000000E+01   -0.3000000000000000E+01    0.0000000000000000E+00
    0.3750000000000000E+01   -0.3000000000000000E+01    0.0000000000000000E+00
    0.5000000000000000E+01   -0.3000000000000000E+01    0.0000000000000000E+00
    0.5000000000000000E+01   -0.3000000000000000E+01    0.1250000000000000E+01
    0.5000000000000000E+01   -0.3000000000000000E+01    0.2500000000000000E+01
    0.5000000000000000E+01   -0.3000000000000000E+01    0.3750000000000000E+01
    0.5000000000000000E+01   -0.3000000000000000E+01    0.5000000000000000E+01
    0.3750000000000000E+01   -0.3000000000000000E+01    0.5000000000000000E+01
    0.2500000000000000E+01   -0.3000000000000000E+01    0.5000000000000000E+01
    0.1250000000000000E+01   -0.3000000000000000E+01    0.5000000000000000E+01
    0.8087673404641089E+00   -0.3000000000000000E+01    0.3046700411233810E+01
[...]
POINT_DATA 216
SCALARS rho double 1
LOOKUP_TABLE default
   0.9908999510508751E+00
   0.9959362159821364E+00
   0.9573818417718547E+00
   0.1070408359705813E+01
   0.6436911602607280E+00
   0.9008198022249040E+00
   0.8638298435945890E+00
   0.8494247721901566E+00
   0.5537410852655428E+00
   0.9675486306492497E+00
   0.1015986108303459E+01
   0.9950378241538873E+00
   0.9942253097982261E+00
   0.9950519206160817E+00
   0.9890217933663116E+00
   0.9930015530575009E+00
   0.9874839279328673E+00
   0.9863033747957117E+00
   0.9881882730072372E+00
   0.9839283674659067E+00
   0.9508200746234912E+00
   0.9886007976960988E+00
   0.9832634294385600E+00
   0.1004478772992555E+01
   0.9983092988067221E+00
   0.9805617922502350E+00
   0.9831114072214143E+00
   0.9886487088915532E+00
   0.9165163307058046E+00
   0.9648023549221135E+00
   0.9986315381546830E+00
   0.9575289379992157E+00
   0.9848228220784341E+00
   0.9892118999863120E+00
   0.9847543614023120E+00
   0.9959696774081463E+00
   0.9908779678203435E+00
   0.9959138249949862E+00
   0.9571817485146720E+00
   0.1070267580065489E+01
   0.6469434649260380E+00
   0.9019919018730816E+00
   0.8661056919854827E+00
   0.8527779889948857E+00
   0.5561561606993773E+00
   0.9688945105627903E+00
   0.1016234941460723E+01
   0.9950554147465540E+00
   0.9942041896576067E+00
   0.9950171157507233E+00
   0.9889799816932779E+00
   0.9929685156619754E+00
   0.9874230739969891E+00
   0.9862126586112248E+00
   0.9881479822330491E+00
   0.9851691064280380E+00
   0.9507155234815564E+00
   0.9885894866892784E+00
   0.9831844389904042E+00
   0.1004294295105036E+01
   0.9981739925606742E+00
   0.9805175148431882E+00
   0.9830649062760390E+00
   0.9886166700311277E+00
   0.9169308433678849E+00
   0.9651381473273115E+00
   0.9986671115256515E+00
   0.9573345231890952E+00
   0.9849119029836023E+00
   0.9891887265836843E+00
   0.9847318741580440E+00
   0.9959431771171094E+00
   0.9908818203391374E+00
   0.9959192509703417E+00
   0.9572051917460679E+00
   0.1070270255752295E+01
   0.6469814304594516E+00
   0.9020181492909629E+00
   0.8666309328621241E+00
   0.8533525462624403E+00
   0.5563740228497699E+00
   0.9688570153297074E+00
   0.1016199283046050E+01
   0.9950644224106198E+00
   0.9942091929747732E+00
   0.9950374489174520E+00
   0.9889970891300891E+00
   0.9929843051478606E+00
   0.9874468153599967E+00
   0.9862338341305842E+00
   0.9881614172088532E+00
   0.9853248313322804E+00
   0.9507473021137166E+00
   0.9885999841925226E+00
   0.9832164895458373E+00
   0.1004302776445388E+01
   0.9982132733769670E+00
   0.9805371458354416E+00
   0.9830984976189012E+00
   0.9886330114081949E+00
   0.9170769077485479E+00
   0.9651561371636893E+00
   0.9986903237291722E+00
   0.9573625204382044E+00
   0.9849155047455798E+00
   0.9892059489310587E+00
   0.9847544671102869E+00
   0.9959694901893146E+00
   0.9908813338231617E+00
   0.9959184420202752E+00
   0.9572028819611128E+00
   0.1070270422348933E+01
   0.6469736077166975E+00
   0.9020128299343176E+00
   0.8665581552731975E+00
   0.8533062262441607E+00
   0.5563558524287238E+00
   0.9688561111231235E+00
   0.1016203738907002E+01
   0.9950644495120454E+00
   0.9942100817837130E+00
   0.9950371229080484E+00
   0.9889967183171565E+00
   0.9929832787413500E+00
   0.9874456554801559E+00
   0.9862342630855375E+00
   0.9881605090218686E+00
   0.9853165439889198E+00
   0.9507449330159434E+00
   0.9886001901470108E+00
   0.9832120345388292E+00
   0.1004305213517287E+01
   0.9982125099210775E+00
   0.9805358321512807E+00
   0.9830978531325940E+00
   0.9886320933493719E+00
   0.9170694394732463E+00
   0.9651642815575275E+00
   0.9986902982623851E+00
   0.9573652085098772E+00
   0.9849200928919842E+00
   0.9892056469048444E+00
   0.9847537489513380E+00
   0.9959702629793946E+00
   0.9908784525102110E+00
   0.9959146303255105E+00
   0.9571840530963118E+00
   0.1070267399980836E+01
   0.6469512101848881E+00
   0.9019971406486206E+00
   0.8661785085743245E+00
   0.8528245683399353E+00
   0.5561744404829234E+00
   0.9688953856377911E+00
   0.1016230488807306E+01
   0.9950553841151580E+00
   0.9942033007979860E+00
   0.9950174427253663E+00
   0.9889803515754507E+00
   0.9929695393233595E+00
   0.9874242332367473E+00
   0.9862122233851595E+00
   0.9881488894514383E+00
   0.9851774011245609E+00
   0.9507179066851880E+00
   0.9885892840133388E+00
   0.9831889029930966E+00
   0.1004291863930001E+01
   0.9981747505095667E+00
   0.9805188283288852E+00
   0.9830655521141349E+00
   0.9886175915049332E+00
   0.9169383320002596E+00
   0.9651300099839110E+00
   0.9986671325571230E+00
   0.9573318505854542E+00
   0.9849073195033597E+00
   0.9891890330116178E+00
   0.9847325908516609E+00
   0.9959423985173059E+00
   0.9908994627039425E+00
   0.9959354025845966E+00
   0.9573795296687992E+00
   0.1070408494687578E+01
   0.6436832059000442E+00
   0.9008144118137940E+00
   0.8637575624196253E+00
   0.8493789027294922E+00
   0.5537233253580492E+00
   0.9675476814200887E+00
   0.1015990543162448E+01
   0.9950378472317981E+00
   0.9942261984234027E+00
   0.9950515906497677E+00
   0.9890214263458710E+00
   0.9930005238953326E+00
   0.9874827663592883E+00
   0.9863037892616152E+00
   0.9881873640397869E+00
   0.9839200939170287E+00
   0.9508177118971862E+00
   0.9886010129068566E+00
   0.9832589832946199E+00
   0.1004481199106759E+01
   0.9983085230610316E+00
   0.9805604747122284E+00
   0.9831107652017598E+00
   0.9886477928557520E+00
   0.9165089764973030E+00
   0.9648105228906959E+00
   0.9986314935074891E+00
   0.9575316596437309E+00
   0.9848273986073542E+00
   0.9892116033974044E+00
   0.9847536432404077E+00
   0.9959704218563916E+00
SCALARS u double 1
LOOKUP_TABLE default
   0.5094221500320898E+00
   0.5067113279373693E+00
   0.5230344247825781E+00
   0.5100095538729016E+00
   0.0000000000000000E+00
   0.0000000000000000E+00
   0.0000000000000000E+00
   0.0000000000000000E+00
   0.0000000000000000E+00
   0.4960580327442138E+00
   0.4975622517462971E+00
   0.4991613674448853E+00
   0.4957665581379637E+00
   0.5064562249363396E+00
   0.5121257815585198E+00
   0.5130026102463296E+00
   0.5010705546504098E+00
   0.5811307599350817E+00
   0.5122147864182166E+00
   0.4690207122201386E+00
   0.3775067577595608E+00
   0.5023193735947965E+00
   0.5226258467727656E+00
   0.5473977460546715E+00
   0.5390877271938437E+00
   0.5089276578231301E+00
   0.5220848272046930E+00
   0.5083313661971455E+00
   0.3795860406424874E+00
   0.3689828431456639E+00
   0.5164825510943971E+00
   0.5347558944596922E+00
   0.5554818984328720E+00
   0.5085024858864364E+00
   0.5121320258006395E+00
   0.5520896290566505E+00
   0.5094565186858148E+00
   0.5067595104907272E+00
   0.5230225918614010E+00
   0.5107533769741779E+00
   0.0000000000000000E+00
   0.0000000000000000E+00
   0.0000000000000000E+00
   0.0000000000000000E+00
   0.0000000000000000E+00
   0.4972422103836590E+00
   0.4982617495178041E+00
   0.4989497818530592E+00
   0.4957206754240869E+00
   0.5065982360302554E+00
   0.5122479176133650E+00
   0.5130715830558302E+00
   0.5009641058660952E+00
   0.5818779737417411E+00
   0.5122518066757069E+00
   0.4711500887252607E+00
   0.3782964327296007E+00
   0.5020945591611655E+00
   0.5247101881523063E+00
   0.5496953750270227E+00
   0.5393855349138262E+00
   0.5088351941531694E+00
   0.5219100452724170E+00
   0.5083224382736253E+00
   0.3799396512269566E+00
   0.3693636159287182E+00
   0.5164010570795731E+00
   0.5375037302113563E+00
   0.5575030829109535E+00
   0.5083880002220457E+00
   0.5118582363848189E+00
   0.5530654348105150E+00
   0.5094522484292856E+00
   0.5067491821047431E+00
   0.5230109942475716E+00
   0.5107055130781500E+00
   0.0000000000000000E+00
   0.0000000000000000E+00
   0.0000000000000000E+00
   0.0000000000000000E+00
   0.0000000000000000E+00
   0.4972967938669200E+00
   0.4983029985183188E+00
   0.4989462748760303E+00
   0.4957200562322553E+00
   0.5065689158581050E+00
   0.5122153295158227E+00
   0.5130484995059738E+00
   0.5009390202753260E+00
   0.5818160370101580E+00
   0.5122290537581581E+00
   0.4711103864380581E+00
   0.3783182538309873E+00
   0.5020731417171761E+00
   0.5246903112439378E+00
   0.5496424044630953E+00
   0.5393338743320467E+00
   0.5088049280326749E+00
   0.5218697935651666E+00
   0.5082900084782149E+00
   0.3798803117222619E+00
   0.3693113796212308E+00
   0.5163819137987955E+00
   0.5374143361916150E+00
   0.5574900542127169E+00
   0.5083561690362830E+00
   0.5118292968762765E+00
   0.5530056776509827E+00
   0.5094527749794029E+00
   0.5067501041177709E+00
   0.5230130932200265E+00
   0.5107066453501291E+00
   0.0000000000000000E+00
   0.0000000000000000E+00
   0.0000000000000000E+00
   0.0000000000000000E+00
   0.0000000000000000E+00
   0.4973003175870346E+00
   0.4983014225403307E+00
   0.4989485500081766E+00
   0.4957208250417746E+00
   0.5065715961087766E+00
   0.5122192911167043E+00
   0.5130508312443061E+00
   0.5009407028223292E+00
   0.5818177483746940E+00
   0.5122302887549600E+00
   0.4711145732538835E+00
   0.3783168830441673E+00
   0.5020758923819550E+00
   0.5246934920307286E+00
   0.5496440979842436E+00
   0.5393369537386616E+00
   0.5088069585115015E+00
   0.5218725947233965E+00
   0.5082929046616058E+00
   0.3798810973201526E+00
   0.3693106813673140E+00
   0.5163847480978357E+00
   0.5374179267416952E+00
   0.5574908994210210E+00
   0.5083584898614902E+00
   0.5118332244336538E+00
   0.5530077749363502E+00
   0.5094559941552125E+00
   0.5067585926583277E+00
   0.5230204987216990E+00
   0.5107522600817341E+00
   0.0000000000000000E+00
   0.0000000000000000E+00
   0.0000000000000000E+00
   0.0000000000000000E+00
   0.0000000000000000E+00
   0.4972387130375113E+00
   0.4982633060232036E+00
   0.4989474987406816E+00
   0.4957198978360547E+00
   0.5065955502125161E+00
   0.5122439523080995E+00
   0.5130692548834521E+00
   0.5009624263527537E+00
   0.5818762635315484E+00
   0.5122505712088985E+00
   0.4711458967719118E+00
   0.3782977892273796E+00
   0.5020917965314455E+00
   0.5247069972318781E+00
   0.5496936693233367E+00
   0.5393824576762593E+00
   0.5088331591667474E+00
   0.5219072376268210E+00
   0.5083195358443823E+00
   0.3799388556358280E+00
   0.3693643093658421E+00
   0.5163982164373413E+00
   0.5375001267007914E+00
   0.5575022222115797E+00
   0.5083856698526397E+00
   0.5118542969440621E+00
   0.5530633362716063E+00
   0.5094226765123164E+00
   0.5067122542334935E+00
   0.5230365337174854E+00
   0.5100106804003250E+00
   0.0000000000000000E+00
   0.0000000000000000E+00
   0.0000000000000000E+00
   0.0000000000000000E+00
   0.0000000000000000E+00
   0.4960616188663241E+00
   0.4975606680360595E+00
   0.4991636320649792E+00
   0.4957673314847777E+00
   0.5064589155786161E+00
   0.5121297434191171E+00
   0.5130049469994035E+00
   0.5010722493598359E+00
   0.5811324568359238E+00
   0.5122160214371534E+00
   0.4690248929155830E+00
   0.3775054172102287E+00
   0.5023221168570748E+00
   0.5226290048588869E+00
   0.5473994202218054E+00
   0.5390908184324379E+00
   0.5089296922089770E+00
   0.5220876295940343E+00
   0.5083342584349504E+00
   0.3795869113480711E+00
   0.3689822419442452E+00
   0.5164853805002353E+00
   0.5347594956795921E+00
   0.5554827442803366E+00
   0.5085047934740583E+00
   0.5121359495626335E+00
   0.5520917300825197E+00
SCALARS v double 1
LOOKUP_TABLE default
   0.0000000000000000E+00
   0.0000000000000000E+00
   0.0000000000000000E+00
   0.0000000000000000E+00
   0.0000000000000000E+00
   0.0000000000000000E+00
   0.0000000000000000E+00
   0.0000000000000000E+00
   0.0000000000000000E+00
   0.0000000000000000E+00
   0.0000000000000000E+00
   0.0000000000000000E+00
   0.0000000000000000E+00
   0.0000000000000000E+00
   0.0000000000000000E+00
   0.0000000000000000E+00
   0.0000000000000000E+00
   0.0000000000000000E+00
   0.0000000000000000E+00
   0.0000000000000000E+00
   0.0000000000000000E+00
   0.0000000000000000E+00
   0.0000000000000000E+00
   0.0000000000000000E+00
   0.0000000000000000E+00
   0.0000000000000000E+00
   0.0000000000000000E+00
   0.0000000000000000E+00
   0.0000000000000000E+00
   0.0000000000000000E+00
   0.0000000000000000E+00
   0.0000000000000000E+00
   0.0000000000000000E+00
   0.0000000000000000E+00
   0.0000000000000000E+00
   0.0000000000000000E+00
   0.1019454439391649E-06
   0.9681850907955551E-05
  -0.9211025227416724E-04
   0.3123716441619517E-04
   0.0000000000000000E+00
   0.0000000000000000E+00
   0.0000000000000000E+00
   0.0000000000000000E+00
   0.0000000000000000E+00
   0.5732340278485676E-03
   0.2238510531338816E-03
  -0.4702041275047436E-05
  -0.2617103635485183E-04
  -0.2458823081656345E-04
  -0.2543103896210394E-04
  -0.1458688799954107E-04
  -0.5769389288517139E-04
  -0.3044607200038199E-04
  -0.2094909535929234E-04
  -0.7207426986703283E-04
  -0.2531086117280736E-03
  -0.2194242222193748E-04
  -0.7535790596675514E-04
  -0.8849181552921972E-04
  -0.9149272382710636E-04
  -0.4991196326263739E-04
  -0.6484684904887386E-04
  -0.2570092046605910E-04
  -0.3510235861325538E-03
  -0.1013124364636994E-03
  -0.1111005305818138E-04
  -0.2372924955357446E-03
   0.3126126697568156E-04
  -0.3062160837940427E-04
  -0.3480934277366905E-04
  -0.1011118222760809E-04
   0.1698178471955426E-05
   0.3556082099803078E-05
  -0.2999114575856377E-05
   0.1535437147775957E-04
   0.0000000000000000E+00
   0.0000000000000000E+00
   0.0000000000000000E+00
   0.0000000000000000E+00
   0.0000000000000000E+00
   0.5606251192382785E-04
   0.2399151151640087E-04
   0.3673328075614535E-05
   0.2118112936094564E-05
   0.9752450590809338E-05
   0.8136462816919817E-05
   0.6535345287738962E-05
   0.2154775925695849E-05
   0.8484993929247158E-05
   0.4447398404006068E-05
  -0.1755942039291857E-04
  -0.3132399840775171E-04
   0.5713443925062304E-05
  -0.9203552368924832E-05
  -0.9022044051059978E-05
   0.6616735928398433E-06
   0.2373218329331458E-05
   0.1561390015782617E-05
   0.6690500967313141E-05
  -0.2831547181818939E-04
  -0.2394616877871127E-05
   0.3845170277154169E-05
  -0.3259789875666819E-04
  -0.5029471045346211E-05
   0.5581404409486223E-05
   0.5104163052904172E-05
   0.8515744182619974E-05
  -0.1697370981783560E-05
  -0.3556949427932319E-05
   0.2997704626038801E-05
  -0.1535468721281733E-04
   0.0000000000000000E+00
   0.0000000000000000E+00
   0.0000000000000000E+00
   0.0000000000000000E+00
   0.0000000000000000E+00
  -0.5605491768640515E-04
  -0.2399601645759152E-04
  -0.3669720620069455E-05
  -0.2109949434331006E-05
  -0.9753785252864162E-05
  -0.8134717388319997E-05
  -0.6537140448787357E-05
  -0.2157176282462494E-05
  -0.8487603704975398E-05
  -0.4448183978286896E-05
   0.1759235037063735E-04
   0.3131662070033308E-04
  -0.5703148688314751E-05
   0.9197948464707633E-05
   0.9014739560270419E-05
  -0.6668070577295861E-06
  -0.2377896198541872E-05
  -0.1560972093625198E-05
  -0.6692133554553679E-05
   0.2833059468368303E-04
   0.2392887629462347E-05
  -0.3854202831779534E-05
   0.3260445288652096E-04
   0.5029206958001379E-05
  -0.5577930580362476E-05
  -0.5101103741810988E-05
  -0.8532194282328016E-05
  -0.1006488727634476E-06
  -0.9683465867943977E-05
   0.9210970679657180E-04
  -0.3123615999372121E-04
   0.0000000000000000E+00
   0.0000000000000000E+00
   0.0000000000000000E+00
   0.0000000000000000E+00
   0.0000000000000000E+00
  -0.5732213986241893E-03
  -0.2238505193371775E-03
   0.4707457299450310E-05
   0.2617402202593235E-04
   0.2457960998459727E-04
   0.2543159479136255E-04
   0.1458479512279720E-04
   0.5769056320601479E-04
   0.3044322703106752E-04
   0.2094682097749668E-04
   0.7211055020488679E-04
   0.2530922778987305E-03
   0.2195017448701432E-04
   0.7534493335889820E-04
   0.8848227606033689E-04
   0.9148962484399686E-04
   0.4990626604310224E-04
   0.6484759312175447E-04
   0.2569736244828240E-04
   0.3510451460213307E-03
   0.1013046069160500E-03
   0.1110365305779586E-04
   0.2373049478694672E-03
  -0.3125381604110754E-04
   0.3062295043411434E-04
   0.3481189765872530E-04
   0.1009544277921348E-04
   0.0000000000000000E+00
   0.0000000000000000E+00
   0.0000000000000000E+00
   0.0000000000000000E+00
   0.0000000000000000E+00
   0.0000000000000000E+00
   0.0000000000000000E+00
   0.0000000000000000E+00
   0.0000000000000000E+00
   0.0000000000000000E+00
   0.0000000000000000E+00
   0.0000000000000000E+00
   0.0000000000000000E+00
   0.0000000000000000E+00
   0.0000000000000000E+00
   0.0000000000000000E+00
   0.0000000000000000E+00
   0.0000000000000000E+00
   0.0000000000000000E+00
   0.0000000000000000E+00
   0.0000000000000000E+00
   0.0000000000000000E+00
   0.0000000000000000E+00
   0.0000000000000000E+00
   0.0000000000000000E+00
   0.0000000000000000E+00
   0.0000000000000000E+00
   0.0000000000000000E+00
   0.0000000000000000E+00
   0.0000000000000000E+00
   0.0000000000000000E+00
   0.0000000000000000E+00
   0.0000000000000000E+00
   0.0000000000000000E+00
   0.0000000000000000E+00
   0.0000000000000000E+00
SCALARS w double 1
LOOKUP_TABLE default
  -0.3098639755888419E-02
  -0.3168141949351598E-02
   0.1006767099285168E-01
  -0.1416768117666925E-01
   0.0000000000000000E+00
   0.0000000000000000E+00
   0.0000000000000000E+00
   0.0000000000000000E+00
   0.0000000000000000E+00
  -0.1296602374903029E+00
  -0.4475618692913250E-01
  -0.8232306387354629E-02
  -0.8316931773078287E-02
  -0.6058159789401847E-02
  -0.9739345877381138E-02
  -0.7845157290571340E-02
  -0.1100664768731908E-01
   0.1575735053692584E-01
  -0.6781863436996521E-02
  -0.6678638866940494E-01
  -0.5213496860277151E-01
  -0.1464301251215501E-01
  -0.5204911227908728E-02
  -0.8037347054354342E-02
  -0.6867344171164093E-02
  -0.7148578654735557E-02
  -0.7164158462234949E-02
  -0.1375653582516417E-01
   0.1672284624258236E-01
   0.1933398763031280E-02
  -0.2088446818882515E-01
  -0.9891351712655115E-02
  -0.3069335566680169E-01
  -0.1505979077767239E-01
  -0.1655605256737735E-01
  -0.2376712257986285E-01
  -0.3088883477043815E-02
  -0.3173447239518502E-02
   0.1000047155006416E-01
  -0.1438285622590355E-01
   0.0000000000000000E+00
   0.0000000000000000E+00
   0.0000000000000000E+00
   0.0000000000000000E+00
   0.0000000000000000E+00
  -0.1290221421500928E+00
  -0.4428622696584385E-01
  -0.8207292731966772E-02
  -0.8370317123633847E-02
  -0.6084188431123294E-02
  -0.9761756525240365E-02
  -0.7868541578440812E-02
  -0.1118025711314542E-01
   0.1547999500843842E-01
  -0.6840879424364788E-02
  -0.6741702058256320E-01
  -0.5110190659196490E-01
  -0.1478222991809269E-01
  -0.5120641284353045E-02
  -0.8181680355020864E-02
  -0.7134158274350864E-02
  -0.7365110325489891E-02
  -0.7441017688666172E-02
  -0.1383991939455873E-01
   0.1649961938115535E-01
   0.1950973559052426E-02
  -0.2101472043301444E-01
  -0.1021544554705392E-01
  -0.3088653950123231E-01
  -0.1518317381840839E-01
  -0.1676796972770177E-01
  -0.2404000175995768E-01
  -0.3089966775439720E-02
  -0.3170010308205896E-02
   0.9992926229652801E-02
  -0.1433613483913054E-01
   0.0000000000000000E+00
   0.0000000000000000E+00
   0.0000000000000000E+00
   0.0000000000000000E+00
   0.0000000000000000E+00
  -0.1288973564942048E+00
  -0.4422452088876491E-01
  -0.8174538981445883E-02
  -0.8355008005800073E-02
  -0.6063479339067232E-02
  -0.9745061212895924E-02
  -0.7855463432701635E-02
  -0.1117281179251179E-01
   0.1549024424617898E-01
  -0.6829084204647678E-02
  -0.6737802694364160E-01
  -0.5111329235877182E-01
  -0.1474417350259839E-01
  -0.5092519442066243E-02
  -0.8160020259592666E-02
  -0.7122695342113847E-02
  -0.7338727177375044E-02
  -0.7413652737870746E-02
  -0.1381106405988887E-01
   0.1642128050866217E-01
   0.1853658707160438E-02
  -0.2095676749039237E-01
  -0.1016746995085700E-01
  -0.3080975450780116E-01
  -0.1514971931273547E-01
  -0.1672700607759809E-01
  -0.2398621171268001E-01
  -0.3090266052105678E-02
  -0.3170399793524607E-02
   0.9992910714478168E-02
  -0.1433684041726724E-01
   0.0000000000000000E+00
   0.0000000000000000E+00