title="tecplot geometry and solution file"
variables = x y z rho u v w p mach temperature
zone t="boundary 1 bc-1", solutiontime= 0.1000000E+03, strandid=1001, i=30, j=20, f=feblock
  0.000000000000E+00  0.000000000000E+00  0.000000000000E+00  0.000000000000E+00  0.000000000000E+00  0.000000000000E+00  0.000000000000E+00
  0.000000000000E+00  0.000000000000E+00  0.000000000000E+00  0.000000000000E+00  0.000000000000E+00  0.000000000000E+00  0.000000000000E+00
  0.000000000000E+00  0.000000000000E+00  0.000000000000E+00  0.000000000000E+00  0.000000000000E+00  0.000000000000E+00  0.000000000000E+00
  0.000000000000E+00  0.000000000000E+00  0.000000000000E+00  0.000000000000E+00  0.000000000000E+00  0.000000000000E+00  0.000000000000E+00
  0.000000000000E+00  0.000000000000E+00
  0.000000000000E+00  0.000000000000E+00 -0.100000000000E+01  0.000000000000E+00 -0.100000000000E+01 -0.200000000000E+01  0.000000000000E+00
 -0.100000000000E+01 -0.200000000000E+01 -0.300000000000E+01  0.000000000000E+00 -0.100000000000E+01 -0.200000000000E+01 -0.300000000000E+01
 -0.400000000000E+01 -0.100000000000E+01 -0.200000000000E+01 -0.300000000000E+01 -0.400000000000E+01 -0.500000000000E+01 -0.200000000000E+01
 -0.300000000000E+01 -0.400000000000E+01 -0.500000000000E+01 -0.300000000000E+01 -0.400000000000E+01 -0.500000000000E+01 -0.400000000000E+01
 -0.500000000000E+01 -0.500000000000E+01
  0.500000000000E+01  0.375000000000E+01  0.500000000000E+01  0.250000000000E+01  0.375000000000E+01  0.500000000000E+01  0.125000000000E+01
  0.250000000000E+01  0.375000000000E+01  0.500000000000E+01  0.000000000000E+00  0.125000000000E+01  0.250000000000E+01  0.375000000000E+01
  0.500000000000E+01  0.000000000000E+00  0.125000000000E+01  0.250000000000E+01  0.375000000000E+01  0.500000000000E+01  0.000000000000E+00
  0.125000000000E+01  0.250000000000E+01  0.375000000000E+01  0.000000000000E+00  0.125000000000E+01  0.250000000000E+01  0.000000000000E+00
  0.125000000000E+01  0.000000000000E+00
  0.100565564678E+01  0.100446278818E+01  0.100563339972E+01  0.103609870349E+01  0.100437124349E+01  0.100564128632E+01  0.100646838230E+01
  0.103586533705E+01  0.100438823033E+01  0.100564128624E+01  0.151346804168E+01  0.100578213278E+01  0.103589564905E+01  0.100438823021E+01
  0.100563339923E+01  0.151312474942E+01  0.100579037212E+01  0.103589564872E+01  0.100437124357E+01  0.100565564608E+01  0.151311780695E+01
  0.100579037282E+01  0.103586533936E+01  0.100446278941E+01  0.151311780725E+01  0.100578213151E+01  0.103609870895E+01  0.151312473147E+01
  0.100646838259E+01  0.151346799635E+01
  0.495143663046E+00  0.495209096897E+00  0.495174598002E+00  0.466354652230E+00  0.495304077632E+00  0.495164975864E+00  0.486053661823E+00
  0.466551986179E+00  0.495287004328E+00  0.495164976146E+00  0.000000000000E+00  0.485873696195E+00  0.466521864282E+00  0.495287003986E+00
  0.495174597815E+00  0.000000000000E+00  0.485825574123E+00  0.466521864651E+00  0.495304079066E+00  0.495143660732E+00  0.000000000000E+00
  0.485825574603E+00  0.466551988208E+00  0.495209098695E+00  0.000000000000E+00  0.485873692144E+00  0.466354654403E+00  0.000000000000E+00
  0.486053650527E+00  0.000000000000E+00
  0.000000000000E+00  0.000000000000E+00  0.910801391461E-05  0.000000000000E+00 -0.964395030227E-05  0.439833285038E-05  0.000000000000E+00
 -0.442418948926E-04  0.397637857167E-05 -0.439883506390E-05  0.000000000000E+00 -0.206534857033E-03  0.124048852544E-04 -0.397705852658E-05
 -0.910797682955E-05  0.000000000000E+00 -0.457206594448E-05 -0.124034162186E-04  0.964240291797E-05  0.000000000000E+00  0.000000000000E+00
  0.457284872276E-05  0.442419383973E-04  0.000000000000E+00  0.000000000000E+00  0.206531857152E-03  0.000000000000E+00  0.000000000000E+00
  0.000000000000E+00  0.000000000000E+00
  0.356100340800E-04  0.977945483822E-03  0.133363641570E-04  0.262387203517E-02  0.100860804210E-02  0.191797345004E-04  0.727038983560E-01
  0.258061157866E-02  0.100330258463E-02  0.191796299728E-04  0.000000000000E+00  0.720455791351E-01  0.256983671888E-02  0.100330185279E-02
  0.133365564718E-04  0.000000000000E+00  0.720494027768E-01  0.256983587558E-02  0.100860562123E-02  0.356092392205E-04  0.000000000000E+00
  0.720494017390E-01  0.258060945377E-02  0.977942838870E-03  0.000000000000E+00  0.720456016190E-01  0.262386837741E-02  0.000000000000E+00
  0.727039543125E-01  0.000000000000E+00
  0.719063964796E+00  0.720168700966E+00  0.719037464422E+00  0.743882679314E+00  0.720087501134E+00  0.719045408597E+00  0.743509183266E+00
  0.743629608841E+00  0.720104347836E+00  0.719045408520E+00  0.108104860120E+01  0.742891913295E+00  0.743659638597E+00  0.720104347735E+00
  0.719037463963E+00  0.108080339244E+01  0.742902505201E+00  0.743659638237E+00  0.720087501146E+00  0.719063964169E+00  0.108079843353E+01
  0.742902505507E+00  0.743629611717E+00  0.720168701920E+00  0.108079843375E+01  0.742891911342E+00  0.743882685992E+00  0.108080337962E+01
  0.743509182509E+00  0.108104856882E+01
  0.494889334434E+00  0.494282515020E+00  0.494923898195E+00  0.465165515508E+00  0.494382722240E+00  0.494913487736E+00  0.483261319941E+00
  0.465388860318E+00  0.494364067619E+00  0.494913488025E+00  0.000000000000E+00  0.483026833735E+00  0.465356165839E+00  0.494364067281E+00
  0.494923898047E+00  0.000000000000E+00  0.482979067036E+00  0.465356166240E+00  0.494382723682E+00  0.494889332163E+00  0.000000000000E+00
  0.482979067421E+00  0.465388861950E+00  0.494282516786E+00  0.000000000000E+00  0.483026833367E+00  0.465165516791E+00  0.000000000000E+00
  0.483261317411E+00  0.000000000000E+00
  0.100102808942E+01  0.100375662814E+01  0.100101334191E+01  0.100515109953E+01  0.100373493180E+01  0.100101655106E+01  0.103422310614E+01
  0.100503551489E+01  0.100374143834E+01  0.100101655103E+01  0.100000000000E+01  0.103406955116E+01  0.100504669074E+01  0.100374143833E+01
  0.100101334176E+01  0.100000000000E+01  0.103407582346E+01  0.100504669058E+01  0.100373493174E+01  0.100102808925E+01  0.100000000000E+01
  0.103407582317E+01  0.100503551653E+01  0.100375662823E+01  0.100000000000E+01  0.103406954975E+01  0.100515110326E+01  0.100000000000E+01
  0.103422310479E+01  0.100000000000E+01
         3         5         2         1
         5         8         4         2
         8        12         7         4
        12        16        11         7
         6         9         5         3
         9        13         8         5
        13        17        12         8
        17        21        16        12
        10        14         9         6
        14        18        13         9
        18        22        17        13
        22        25        21        17
        15        19        14        10
        19        23        18        14
        23        26        22        18
        26        28        25        22
        20        24        19        15
        24        27        23        19
        27        29        26        23
        29        30        28        26
zone t="boundary 2 bc-2", solutiontime= 0.1000000E+03, strandid=1002, i=36, j=54, f=feblock
  0.000000000000E+00  0.000000000000E+00  0.125000000000E+01  0.927277229330E+00  0.000000000000E+00  0.808767340464E+00  0.250000000000E+01
  0.200015314465E+01  0.159811178309E+01  0.000000000000E+00  0.788610714940E+00  0.166089064953E+01  0.375000000000E+01  0.302917356382E+01
  0.251951680990E+01  0.000000000000E+00  0.922470079966E+00  0.155975728194E+01  0.248290550026E+01  0.500000000000E+01  0.408598113822E+01
  0.343926566813E+01  0.335900246540E+01  0.125000000000E+01  0.194390946502E+01  0.342785713990E+01  0.303922262431E+01  0.500000000000E+01
  0.418113428997E+01  0.420427672636E+01  0.250000000000E+01  0.407022608176E+01  0.375000000000E+01  0.500000000000E+01  0.500000000000E+01
  0.500000000000E+01
 -0.500000000000E+01 -0.500000000000E+01 -0.500000000000E+01 -0.500000000000E+01 -0.500000000000E+01 -0.500000000000E+01 -0.500000000000E+01
 -0.500000000000E+01 -0.500000000000E+01 -0.500000000000E+01 -0.500000000000E+01 -0.500000000000E+01 -0.500000000000E+01 -0.500000000000E+01
 -0.500000000000E+01 -0.500000000000E+01 -0.500000000000E+01 -0.500000000000E+01 -0.500000000000E+01 -0.500000000000E+01 -0.500000000000E+01
 -0.500000000000E+01 -0.500000000000E+01 -0.500000000000E+01 -0.500000000000E+01 -0.500000000000E+01 -0.500000000000E+01 -0.500000000000E+01
 -0.500000000000E+01 -0.500000000000E+01 -0.500000000000E+01 -0.500000000000E+01 -0.500000000000E+01 -0.500000000000E+01 -0.500000000000E+01
 -0.500000000000E+01
  0.500000000000E+01  0.375000000000E+01  0.500000000000E+01  0.407028758380E+01  0.250000000000E+01  0.304670041123E+01  0.500000000000E+01
  0.412794152677E+01  0.335665681540E+01  0.125000000000E+01  0.198126541595E+01  0.250873735781E+01  0.500000000000E+01  0.411957427728E+01
  0.312048263313E+01  0.000000000000E+00  0.946304642783E+00  0.163560705955E+01  0.188538514993E+01  0.500000000000E+01  0.406998372535E+01
  0.336287803245E+01  0.249594576135E+01  0.000000000000E+00  0.856342731261E+00  0.160831620694E+01  0.872884388455E+00  0.375000000000E+01
  0.303980693646E+01  0.199299477617E+01  0.000000000000E+00  0.954032561928E+00  0.000000000000E+00  0.250000000000E+01  0.125000000000E+01
  0.000000000000E+00
  0.100565564608E+01  0.100446278941E+01  0.100045197574E+01  0.100566357708E+01  0.103609870895E+01  0.100916774985E+01  0.100413820660E+01
  0.100643120762E+01  0.101509226583E+01  0.100646838259E+01  0.100520815207E+01  0.987191692423E+00  0.100328208457E+01  0.100584262944E+01
  0.998667257023E+00  0.151346799635E+01  0.101300643953E+01  0.102761148347E+01  0.998499572365E+00  0.100395661994E+01  0.100389681560E+01
  0.999044594749E+00  0.100006018483E+01  0.889189040518E+00  0.102162285631E+01  0.984451133810E+00  0.996488673649E+00  0.100340101856E+01
  0.100231153584E+01  0.997442268726E+00  0.958937978000E+00  0.102600480821E+01  0.981290867005E+00  0.101583464443E+01  0.992113408044E+00
  0.822836494861E+00
  0.495143660732E+00  0.495209098695E+00  0.496193970002E+00  0.494229335518E+00  0.466354654403E+00  0.495222506858E+00  0.491942217547E+00
  0.495124195347E+00  0.494687338936E+00  0.486053650527E+00  0.501947564449E+00  0.524109235120E+00  0.493965647601E+00  0.495358469057E+00
  0.509946739764E+00  0.000000000000E+00  0.552128913519E+00  0.563555098275E+00  0.588068301809E+00  0.493493697197E+00  0.493481487752E+00
  0.506805674859E+00  0.563407271691E+00  0.000000000000E+00  0.424218732345E+00  0.554954292180E+00  0.388622391403E+00  0.504239972572E+00
  0.525440124588E+00  0.576140119251E+00  0.000000000000E+00  0.439661478727E+00  0.000000000000E+00  0.526644148484E+00  0.489121081988E+00
  0.000000000000E+00
  0.000000000000E+00  0.000000000000E+00  0.000000000000E+00  0.000000000000E+00  0.000000000000E+00  0.000000000000E+00  0.000000000000E+00
  0.000000000000E+00  0.000000000000E+00  0.000000000000E+00  0.000000000000E+00  0.000000000000E+00  0.000000000000E+00  0.000000000000E+00
  0.000000000000E+00  0.000000000000E+00  0.000000000000E+00  0.000000000000E+00  0.000000000000E+00  0.000000000000E+00  0.000000000000E+00
  0.000000000000E+00  0.000000000000E+00  0.000000000000E+00  0.000000000000E+00  0.000000000000E+00  0.000000000000E+00  0.000000000000E+00
  0.000000000000E+00  0.000000000000E+00  0.000000000000E+00  0.000000000000E+00  0.000000000000E+00  0.000000000000E+00  0.000000000000E+00
  0.000000000000E+00
  0.356092392205E-04  0.977942838870E-03  0.829910675674E-02  0.446171037537E-02  0.262386837741E-02  0.114552918933E-01  0.742263051113E-02
  0.877207259842E-02  0.648376722564E-02  0.727039543125E-01  0.186241640519E-01  0.272704231471E-01  0.514248771161E-02  0.564158387600E-02
  0.112874863387E-01  0.000000000000E+00  0.127994043632E+00  0.474125634213E-01  0.294160817951E-01  0.233095367924E-02  0.378561819944E-02
  0.564621118488E-02  0.608970443543E-02  0.000000000000E+00  0.609785946877E-02  0.123383834597E-01  0.758054902660E-02  0.117708638354E-01
  0.783266903347E-02 -0.204318436294E-02  0.000000000000E+00 -0.305511282781E-01  0.000000000000E+00 -0.935164361939E-02 -0.719069762997E-01
  0.000000000000E+00
  0.719063964169E+00  0.720168701920E+00  0.716620060837E+00  0.720735340033E+00  0.743882685992E+00  0.717936895108E+00  0.719360826323E+00
  0.718306688887E+00  0.723414454026E+00  0.743509182509E+00  0.738619660867E+00  0.714634415127E+00  0.717860563610E+00  0.718836856205E+00
  0.715964483198E+00  0.108104856882E+01  0.680950396287E+00  0.734491015422E+00  0.708662823720E+00  0.717495297254E+00  0.717346178630E+00
  0.714955984750E+00  0.716032214829E+00  0.635135028941E+00  0.708298715242E+00  0.694192245428E+00  0.697027742077E+00  0.718595090044E+00
  0.719427130044E+00  0.708504122569E+00  0.684955698572E+00  0.714686749401E+00  0.700922047861E+00  0.730774739747E+00  0.694833076564E+00
  0.587740353472E+00
  0.494889332163E+00  0.494282516786E+00  0.495566389400E+00  0.493424432369E+00  0.465165516791E+00  0.496353467239E+00  0.491272959821E+00
  0.495399282686E+00  0.495294204087E+00  0.483261317411E+00  0.495234215145E+00  0.521319140276E+00  0.493568850991E+00  0.495260382944E+00
  0.509133684820E+00  0.000000000000E+00  0.584240410470E+00  0.565360109740E+00  0.590691234821E+00  0.493367322780E+00  0.493400709438E+00
  0.506357428409E+00  0.562769542600E+00  0.000000000000E+00  0.430633448778E+00  0.558673037144E+00  0.392787411652E+00  0.503717102924E+00
  0.524222217215E+00  0.577749428649E+00  0.000000000000E+00  0.446290062599E+00  0.000000000000E+00  0.524857551803E+00  0.499270522987E+00
  0.000000000000E+00
  0.100102808925E+01  0.100375662823E+01  0.100281483719E+01  0.100334694330E+01  0.100515110326E+01  0.995980750768E+00  0.100295472299E+01
  0.999203280693E+00  0.997722344785E+00  0.103422310479E+01  0.102870984789E+01  0.101346900390E+01  0.100171706892E+01  0.100052589662E+01
  0.100368793452E+01  0.100000000000E+01  0.941090320454E+00  0.100065777595E+01  0.993618806324E+00  0.100053468069E+01  0.100038632903E+01
  0.100189559496E+01  0.100238477241E+01  0.100000000000E+01  0.970630399672E+00  0.987219284148E+00  0.979277401452E+00  0.100262318600E+01
  0.100487517707E+01  0.994449305686E+00  0.100000000000E+01  0.975201520654E+00  0.100000000000E+01  0.100713697968E+01  0.980499103532E+00
  0.100000000000E+01
        12        15        19        19
        19        27        25        25
        23        29        30        30
        12        11         6         6
        15         8        14        14
        12        18        11        11
        17        10        11        11
        19        26        27        27
        32        33        27        27
        21        22        14        14
         4         3         8         8
        17        18        25        25
        32        26        30        30
        23        22        29        29
        21        28        29        29
         4         9         6         6
        14        22        15        15
        30        26        23        23
         6         9        12        12
        25        18        19        19
        15        23        19        19
        28        21        20        20
        14        13        21        21
         3         4         1         1
         6         2         4         4
        10        17        16        16
        25        24        17        17
        33        32        36        36
        30        35        32        32
        35        30        34        34
        22        23        15        15
         8         3         7         7
        13        14         7         7
        24        25        31        31
        26        19        23        23
        11        10         5         5
         2         6         5         5
        18        17        11        11
        22        21        29        29
         9         4         8         8
         8         7        14        14
        30        29        34        34
        33        31        27        27
        27        26        32        32
        28        34        29        29
        25        27        31        31
         9         8        15        15
        15        12         9         9
        12        19        18        18
        21        13        20        20
        17        24        16        16
        32        35        36        36
         4         2         1         1
        11         5         6         6
zone t="boundary 3 bc-3", solutiontime= 0.1000000E+03, strandid=1003, i=36, j=54, f=feblock
  0.000000000000E+00  0.000000000000E+00  0.125000000000E+01  0.927277229330E+00  0.000000000000E+00  0.808767340464E+00  0.250000000000E+01
  0.200015314465E+01  0.159811178309E+01  0.000000000000E+00  0.788610714940E+00  0.166089064953E+01  0.375000000000E+01  0.302917356382E+01
  0.251951680990E+01  0.000000000000E+00  0.922470079966E+00  0.155975728194E+01  0.248290550026E+01  0.500000000000E+01  0.408598113822E+01
  0.343926566813E+01  0.335900246540E+01  0.125000000000E+01  0.194390946502E+01  0.342785713990E+01  0.303922262431E+01  0.500000000000E+01
  0.418113428997E+01  0.420427672636E+01  0.250000000000E+01  0.407022608176E+01  0.375000000000E+01  0.500000000000E+01  0.500000000000E+01
  0.500000000000E+01
  0.000000000000E+00  0.000000000000E+00  0.000000000000E+00  0.000000000000E+00  0.000000000000E+00  0.000000000000E+00  0.000000000000E+00
  0.000000000000E+00  0.000000000000E+00  0.000000000000E+00  0.000000000000E+00  0.000000000000E+00  0.000000000000E+00  0.000000000000E+00
  0.000000000000E+00  0.000000000000E+00  0.000000000000E+00  0.000000000000E+00  0.000000000000E+00  0.000000000000E+00  0.000000000000E+00
  0.000000000000E+00  0.000000000000E+00  0.000000000000E+00  0.000000000000E+00  0.000000000000E+00  0.000000000000E+00  0.000000000000E+00
  0.000000000000E+00  0.000000000000E+00  0.000000000000E+00  0.000000000000E+00  0.000000000000E+00  0.000000000000E+00  0.000000000000E+00
  0.000000000000E+00
  0.500000000000E+01  0.375000000000E+01  0.500000000000E+01  0.407028758380E+01  0.250000000000E+01  0.304670041123E+01  0.500000000000E+01
  0.412794152677E+01  0.335665681540E+01  0.125000000000E+01  0.198126541595E+01  0.250873735781E+01  0.500000000000E+01  0.411957427728E+01
  0.312048263313E+01  0.000000000000E+00  0.946304642783E+00  0.163560705955E+01  0.188538514993E+01  0.500000000000E+01  0.406998372535E+01
  0.336287803245E+01  0.249594576135E+01  0.000000000000E+00  0.856342731261E+00  0.160831620694E+01  0.872884388455E+00  0.375000000000E+01
  0.303980693646E+01  0.199299477617E+01  0.000000000000E+00  0.954032561928E+00  0.000000000000E+00  0.250000000000E+01  0.125000000000E+01
  0.000000000000E+00
  0.100565564678E+01  0.100446278818E+01  0.100045197815E+01  0.100566357601E+01  0.103609870349E+01  0.100916774892E+01  0.100413820601E+01
  0.100643120528E+01  0.101509226797E+01  0.100646838230E+01  0.100520814841E+01  0.987191697234E+00  0.100328208155E+01  0.100584262282E+01
  0.998667261565E+00  0.151346804168E+01  0.101300644090E+01  0.102761149233E+01  0.998499577015E+00  0.100395661757E+01  0.100389680884E+01
  0.999044601788E+00  0.100006020416E+01  0.889188967885E+00  0.102162283845E+01  0.984451131321E+00  0.996488668341E+00  0.100340102098E+01
  0.100231155158E+01  0.997442286171E+00  0.958937945355E+00  0.102600479536E+01  0.981290860566E+00  0.101583466298E+01  0.992113411430E+00
  0.822836456050E+00
  0.495143663046E+00  0.495209096897E+00  0.496193961978E+00  0.494229335844E+00  0.466354652230E+00  0.495222507532E+00  0.491942211939E+00
  0.495124193641E+00  0.494687341436E+00  0.486053661823E+00  0.501947550345E+00  0.524109207952E+00  0.493965623194E+00  0.495358479707E+00
  0.509946718081E+00  0.000000000000E+00  0.552128918321E+00  0.563555119940E+00  0.588068296028E+00  0.493493686955E+00  0.493481492098E+00
  0.506805670188E+00  0.563407222446E+00  0.000000000000E+00  0.424218745423E+00  0.554954287959E+00  0.388622440694E+00  0.504239976503E+00
  0.525440108247E+00  0.576140115287E+00  0.000000000000E+00  0.439661477207E+00  0.000000000000E+00  0.526644152902E+00  0.489121041836E+00
  0.000000000000E+00
  0.000000000000E+00  0.000000000000E+00  0.000000000000E+00  0.000000000000E+00  0.000000000000E+00  0.000000000000E+00  0.000000000000E+00
  0.000000000000E+00  0.000000000000E+00  0.000000000000E+00  0.000000000000E+00  0.000000000000E+00  0.000000000000E+00  0.000000000000E+00
  0.000000000000E+00  0.000000000000E+00  0.000000000000E+00  0.000000000000E+00  0.000000000000E+00  0.000000000000E+00  0.000000000000E+00
  0.000000000000E+00  0.000000000000E+00  0.000000000000E+00  0.000000000000E+00  0.000000000000E+00  0.000000000000E+00  0.000000000000E+00
  0.000000000000E+00  0.000000000000E+00  0.000000000000E+00  0.000000000000E+00  0.000000000000E+00  0.000000000000E+00  0.000000000000E+00
  0.000000000000E+00
  0.356100340800E-04  0.977945483822E-03  0.829910146047E-02  0.446170418037E-02  0.262387203517E-02  0.114552853429E-01  0.742262915680E-02
  0.877208255195E-02  0.648377304797E-02  0.727038983560E-01  0.186241523167E-01  0.272704257456E-01  0.514249067478E-02  0.564157581093E-02
  0.112874810296E-01  0.000000000000E+00  0.127994064756E+00  0.474125495490E-01  0.294160478897E-01  0.233094995365E-02  0.378562847814E-02
  0.564621457559E-02  0.608973432784E-02  0.000000000000E+00  0.609786148255E-02  0.123384274470E-01  0.758052475867E-02  0.117708633961E-01
  0.783263911757E-02 -0.204313243227E-02  0.000000000000E+00 -0.305510913491E-01  0.000000000000E+00 -0.935158895049E-02 -0.719069667455E-01
  0.000000000000E+00
  0.719063964796E+00  0.720168700966E+00  0.716620063259E+00  0.720735339158E+00  0.743882679314E+00  0.717936893243E+00  0.719360825532E+00
  0.718306686447E+00  0.723414456010E+00  0.743509183266E+00  0.738619661221E+00  0.714634421060E+00  0.717860560135E+00  0.718836849055E+00
  0.715964487537E+00  0.108104860120E+01  0.680950393207E+00  0.734491018313E+00  0.708662829578E+00  0.717495294610E+00  0.717346171787E+00
  0.714955991992E+00  0.716032235284E+00  0.635134977061E+00  0.708298700591E+00  0.694192239438E+00  0.697027730904E+00  0.718595092280E+00
  0.719427145160E+00  0.708504135165E+00  0.684955675254E+00  0.714686741533E+00  0.700922043262E+00  0.730774756865E+00  0.694833080490E+00
  0.587740325750E+00
  0.494889334434E+00  0.494282515020E+00  0.495566381059E+00  0.493424432676E+00  0.465165515508E+00  0.496353468177E+00  0.491272954326E+00
  0.495399281422E+00  0.495294206507E+00  0.483261319941E+00  0.495234199801E+00  0.521319112566E+00  0.493568827089E+00  0.495260394331E+00
  0.509133662680E+00  0.000000000000E+00  0.584240421924E+00  0.565360131482E+00  0.590691226263E+00  0.493367312852E+00  0.493400714554E+00
  0.506357423001E+00  0.562769491140E+00  0.000000000000E+00  0.430633462769E+00  0.558673035585E+00  0.392787463076E+00  0.503717106665E+00
  0.524222199078E+00  0.577749424405E+00  0.000000000000E+00  0.446290058135E+00  0.000000000000E+00  0.524857553882E+00  0.499270480907E+00
  0.000000000000E+00
  0.100102808942E+01  0.100375662814E+01  0.100281483816E+01  0.100334694314E+01  0.100515109953E+01  0.995980749104E+00  0.100295472249E+01
  0.999203279622E+00  0.997722345420E+00  0.103422310614E+01  0.102870985212E+01  0.101346900737E+01  0.100171706709E+01  0.100052589326E+01
  0.100368793604E+01  0.100000000000E+01  0.941090314929E+00  0.100065777127E+01  0.993618809910E+00  0.100053467936E+01  0.100038632622E+01
  0.100189559805E+01  0.100238478167E+01  0.100000000000E+01  0.970630396570E+00  0.987219278127E+00  0.979277390971E+00  0.100262318669E+01
  0.100487518241E+01  0.994449305973E+00  0.100000000000E+01  0.975201522125E+00  0.100000000000E+01  0.100713698488E+01  0.980499105726E+00
  0.100000000000E+01
        19        15        12        12
        25        27        19        19
        30        29        23        23
         6        11        12        12
        14         8        15        15
        11        18        12        12
        11        10        17        17
        27        26        19        19
        27        33        32        32
        14        22        21        21
         8         3         4         4
        25        18        17        17
        30        26        32        32
        29        22        23        23
        29        28        21        21
         6         9         4         4
        15        22        14        14
        23        26        30        30
        12         9         6         6
        19        18        25        25
        19        23        15        15
        20        21        28        28
        21        13        14        14
         1         4         3         3
         4         2         6         6
        16        17        10        10
        17        24        25        25
        36        32        33        33
        32        35        30        30
        34        30        35        35
        15        23        22        22
         7         3         8         8
         7        14        13        13
        31        25        24        24
        23        19        26        26
         5        10        11        11
         5         6         2         2
        11        17        18        18
        29        21        22        22
         8         4         9         9
        14         7         8         8
        34        29        30        30
        27        31        33        33
        32        26        27        27
        29        34        28        28
        31        27        25        25
        15         8         9         9
         9        12        15        15
        18        19        12        12
        20        13        21        21
        16        24        17        17
        36        35        32        32
         1         2         4         4
         6         5        11        11
zone t="boundary 4 bc-4", solutiontime= 0.1000000E+03, strandid=1004, i=30, j=20, f=feblock
  0.000000000000E+00  0.125000000000E+01  0.000000000000E+00  0.250000000000E+01  0.125000000000E+01  0.000000000000E+00  0.375000000000E+01
  0.250000000000E+01  0.125000000000E+01  0.000000000000E+00  0.500000000000E+01  0.375000000000E+01  0.250000000000E+01  0.125000000000E+01
  0.000000000000E+00  0.500000000000E+01  0.375000000000E+01  0.250000000000E+01  0.125000000000E+01  0.000000000000E+00  0.500000000000E+01
  0.375000000000E+01  0.250000000000E+01  0.125000000000E+01  0.500000000000E+01  0.375000000000E+01  0.250000000000E+01  0.500000000000E+01
  0.375000000000E+01  0.500000000000E+01
  0.000000000000E+00  0.000000000000E+00 -0.100000000000E+01  0.000000000000E+00 -0.100000000000E+01 -0.200000000000E+01  0.000000000000E+00
 -0.100000000000E+01 -0.200000000000E+01 -0.300000000000E+01  0.000000000000E+00 -0.100000000000E+01 -0.200000000000E+01 -0.300000000000E+01
 -0.400000000000E+01 -0.100000000000E+01 -0.200000000000E+01 -0.300000000000E+01 -0.400000000000E+01 -0.500000000000E+01 -0.200000000000E+01
 -0.300000000000E+01 -0.400000000000E+01 -0.500000000000E+01 -0.300000000000E+01 -0.400000000000E+01 -0.500000000000E+01 -0.400000000000E+01
 -0.500000000000E+01 -0.500000000000E+01
  0.500000000000E+01  0.500000000000E+01  0.500000000000E+01  0.500000000000E+01  0.500000000000E+01  0.500000000000E+01  0.500000000000E+01
  0.500000000000E+01  0.500000000000E+01  0.500000000000E+01  0.500000000000E+01  0.500000000000E+01  0.500000000000E+01  0.500000000000E+01
  0.500000000000E+01  0.500000000000E+01  0.500000000000E+01  0.500000000000E+01  0.500000000000E+01  0.500000000000E+01  0.500000000000E+01
  0.500000000000E+01  0.500000000000E+01  0.500000000000E+01  0.500000000000E+01  0.500000000000E+01  0.500000000000E+01  0.500000000000E+01
  0.500000000000E+01  0.500000000000E+01
  0.100565564678E+01  0.100045197815E+01  0.100563339972E+01  0.100413820601E+01  0.100038317287E+01  0.100564128632E+01  0.100328208155E+01
  0.100406193141E+01  0.100040835126E+01  0.100564128624E+01  0.100395661757E+01  0.100320266809E+01  0.100409694535E+01  0.100040835149E+01
  0.100563339923E+01  0.100392909572E+01  0.100323644477E+01  0.100409694558E+01  0.100038317165E+01  0.100565564608E+01  0.100394607139E+01
  0.100323644507E+01  0.100406193105E+01  0.100045197574E+01  0.100394607135E+01  0.100320266826E+01  0.100413820660E+01  0.100392909649E+01
  0.100328208457E+01  0.100395661994E+01
  0.495143663046E+00  0.496193961978E+00  0.495174598002E+00  0.491942211939E+00  0.496276749486E+00  0.495164975864E+00  0.493965623194E+00
  0.492157580527E+00  0.496234076009E+00  0.495164976146E+00  0.493493686955E+00  0.494225902119E+00  0.492090977426E+00  0.496234076275E+00
  0.495174597815E+00  0.493476278124E+00  0.494163125656E+00  0.492090977124E+00  0.496276750805E+00  0.495143660732E+00  0.493464128959E+00
  0.494163122804E+00  0.492157579399E+00  0.496193970002E+00  0.493464128496E+00  0.494225910666E+00  0.491942217547E+00  0.493476278896E+00
  0.493965647601E+00  0.493493697197E+00
  0.000000000000E+00  0.000000000000E+00  0.910801391461E-05  0.000000000000E+00 -0.338474419420E-04  0.439833285038E-05  0.000000000000E+00
 -0.414176617409E-04  0.103604715338E-04 -0.439883506390E-05  0.000000000000E+00 -0.555991613201E-04  0.195329181375E-04 -0.103615476085E-04
 -0.910797682955E-05 -0.378360614346E-04  0.154314626177E-04 -0.195352869381E-04  0.338463181169E-04  0.000000000000E+00  0.583828839528E-05
 -0.154394767492E-04  0.414136530085E-04  0.000000000000E+00 -0.583770758651E-05  0.555878767340E-04  0.000000000000E+00  0.378351374937E-04
  0.000000000000E+00  0.000000000000E+00