# vtk DataFile Version 2.0
FUN3D:global_image_vtk
ASCII
DATASET UNSTRUCTURED_GRID
POINTS 216 double
    0.0000000000000000E+00    0.0000000000000000E+00    0.5000000000000000E+01
    0.0000000000000000E+00    0.0000000000000000E+00    0.3750000000000000E+01
    0.0000000000000000E+00    0.0000000000000000E+00    0.2500000000000000E+01
    0.0000000000000000E+00    0.0000000000000000E+00    0.1250000000000000E+01
    0.0000000000000000E+00    0.0000000000000000E+00    0.0000000000000000E+00
    0.1250000000000000E+01    0.0000000000000000E+00    0.0000000000000000E+00
    0.2500000000000000E+01    0.0000000000000000E+00    0.0000000000000000E+00
    0.3750000000000000E+01    0.0000000000000000E+00    0.0000000000000000E+00
    0.5000000000000000E+01    0.0000000000000000E+00    0.0000000000000000E+00
    0.5000000000000000E+01    0.0000000000000000E+00    0.1250000000000000E+01
    0.5000000000000000E+01    0.0000000000000000E+00    0.2500000000000000E+01
    0.5000000000000000E+01    0.0000000000000000E+00    0.3750000000000000E+01
    0.5000000000000000E+01    0.0000000000000000E+00    0.5000000000000000E+01
    0.3750000000000000E+01    0.0000000000000000E+00    0.5000000000000000E+01
    0.2500000000000000E+01    0.0000000000000000E+00    0.5000000000000000E+01
    0.1250000000000000E+01    0.0000000000000000E+00    0.5000000000000000E+01
    0.8087673404641089E+00    0.0000000000000000E+00    0.3046700411233810E+01
    0.7886107149397936E+00    0.0000000000000000E+00    0.1981265415950838E+01
    0.9272772293302283E+00    0.0000000000000000E+00    0.4070287583796232E+01
    0.4070226081761783E+01    0.0000000000000000E+00    0.9540325619275125E+00
    0.9224700799661973E+00    0.0000000000000000E+00    0.9463046427831353E+00
    0.4085981138224748E+01    0.0000000000000000E+00    0.4069983725354533E+01
    0.1559757281943150E+01    0.0000000000000000E+00    0.1635607059547088E+01
    0.2482905500262050E+01    0.0000000000000000E+00    0.1885385149929012E+01
    0.1660890649526405E+01    0.0000000000000000E+00    0.2508737357811018E+01
    0.1598111783087740E+01    0.0000000000000000E+00    0.3356656815401915E+01
    0.2519516809901736E+01    0.0000000000000000E+00    0.3120482633132017E+01
    0.2000153144652849E+01    0.0000000000000000E+00    0.4127941526767214E+01
    0.3039222624309763E+01    0.0000000000000000E+00    0.8728843884554416E+00
    0.1943909465021303E+01    0.0000000000000000E+00    0.8563427312614358E+00
    0.4181134289965387E+01    0.0000000000000000E+00    0.3039806936459394E+01
    0.3427857139900839E+01    0.0000000000000000E+00    0.1608316206941619E+01
    0.4204276726360096E+01    0.0000000000000000E+00    0.1992994776168015E+01
    0.3029173563817358E+01    0.0000000000000000E+00    0.4119574277282996E+01
    0.3439265668129285E+01    0.0000000000000000E+00    0.3362878032445769E+01
    0.3359002465395521E+01    0.0000000000000000E+00    0.2495945761348561E+01
    0.0000000000000000E+00   -0.1000000000000000E+01    0.5000000000000000E+01
    0.0000000000000000E+00   -0.1000000000000000E+01    0.3750000000000000E+01
    0.0000000000000000E+00   -0.1000000000000000E+01    0.2500000000000000E+01
    0.0000000000000000E+00   -0.1000000000000000E+01    0.1250000000000000E+01
    0.0000000000000000E+00   -0.1000000000000000E+01    0.0000000000000000E+00
    0.1250000000000000E+01   -0.1000000000000000E+01    0.0000000000000000E+00
    0.2500000000000000E+01   -0.1000000000000000E+01    0.0000000000000000E+00
    0.3750000000000000E+01   -0.1000000000000000E+01    0.0000000000000000E+00
    0.5000000000000000E+01   -0.1000000000000000E+01    0.0000000000000000E+00
    0.5000000000000000E+01   -0.1000000000000000E+01    0.1250000000000000E+01
    0.5000000000000000E+01   -0.1000000000000000E+01    0.2500000000000000E+01
    0.5000000000000000E+01   -0.1000000000000000E+01    0.3750000000000000E+01
    0.5000000000000000E+01   -0.1000000000000000E+01    0.5000000000000000E+01
    0.3750000000000000E+01   -0.1000000000000000E+01    0.5000000000000000E+01
    0.2500000000000000E+01   -0.1000000000000000E+01    0.5000000000000000E+01
    0.1250000000000000E+01   -0.1000000000000000E+01    0.5000000000000000E+01
    0.8087673404641089E+00   -0.1000000000000000E+01    0.3046700411233810E+01
    0.7886107149397936E+00   -0.1000000000000000E+01    0.1981265415950838E+01
    0.9272772293302283E+00   -0.1000000000000000E+01    0.4070287583796232E+01
    0.4070226081761783E+01   -0.1000000000000000E+01    0.9540325619275125E+00
    0.9224700799661973E+00   -0.1000000000000000E+01    0.9463046427831353E+00
    0.4085981138224748E+01   -0.1000000000000000E+01    0.4069983725354533E+01
    0.1559757281943150E+01   -0.1000000000000000E+01    0.1635607059547088E+01
    0.2482905500262050E+01   -0.1000000000000000E+01    0.1885385149929012E+01
    0.1660890649526405E+01   -0.1000000000000000E+01    0.2508737357811018E+01
    0.1598111783087740E+01   -0.1000000000000000E+01    0.3356656815401915E+01
    0.2519516809901736E+01   -0.1000000000000000E+01    0.3120482633132017E+01
    0.2000153144652849E+01   -0.1000000000000000E+01    0.4127941526767214E+01
    0.3039222624309763E+01   -0.1000000000000000E+01    0.8728843884554416E+00
    0.1943909465021303E+01   -0.1000000000000000E+01    0.8563427312614358E+00
    0.4181134289965387E+01   -0.1000000000000000E+01    0.3039806936459394E+01
    0.3427857139900839E+01   -0.1000000000000000E+01    0.1608316206941619E+01
    0.4204276726360096E+01   -0.1000000000000000E+01    0.1992994776168015E+01
    0.3029173563817358E+01   -0.1000000000000000E+01    0.4119574277282996E+01
    0.3439265668129285E+01   -0.1000000000000000E+01    0.3362878032445769E+01
    0.3359002465395521E+01   -0.1000000000000000E+01    0.2495945761348561E+01
    0.0000000000000000E+00   -0.2000000000000000E+01    0.5000000000000000E+01
    0.0000000000000000E+00   -0.2000000000000000E+01    0.3750000000000000E+01
    0.0000000000000000E+00   -0.2000000000000000E+01    0.2500000000000000E+01
    0.0000000000000000E+00   -0.2000000000000000E+01    0.1250000000000000E+01
    0.0000000000000000E+00   -0.2000000000000000E+01    0.0000000000000000E+00
    0.1250000000000000E+01   -0.2000000000000000E+01    0.0000000000000000E+00
    0.2500000000000000E+01   -0.2000000000000000E+01    0.0000000000000000E+00
    0.3750000000000000E+01   -0.2000000000000000E+01    0.0000000000000000E+00
    0.5000000000000000E+01   -0.2000000000000000E+01    0.0000000000000000E+00
    0.5000000000000000E+01   -0.2000000000000000E+01    0.1250000000000000E+01
    0.5000000000000000E+01   -0.2000000000000000E+01    0.2500000000000000E+01
    0.5000000000000000E+01   -0.2000000000000000E+01    0.3750000000000000E+01
    0.5000000000000000E+01   -0.2000000000000000E+01    0.5000000000000000E+01
    0.3750000000000000E+01   -0.2000000000000000E+01    0.5000000000000000E+01
    0.2500000000000000E+01   -0.2000000000000000E+01    0.5000000000000000E+01
    0.1250000000000000E+01   -0.2000000000000000E+01    0.5000000000000000E+01
    0.8087673404641089E+00   -0.2000000000000000E+01    0.3046700411233810E+01
    0.7886107149397936E+00   -0.2000000000000000E+01    0.1981265415950838E+01
    0.9272772293302283E+00   -0.2000000000000000E+01    0.4070287583796232E+01
    0.4070226081761783E+01   -0.2000000000000000E+01    0.9540325619275125E+00
    0.9224700799661973E+00   -0.2000000000000000E+01    0.9463046427831353E+00
    0.4085981138224748E+01   -0.2000000000000000E+01    0.4069983725354533E+01
    0.1559757281943150E+01   -0.2000000000000000E+01    0.1635607059547088E+01
    0.2482905500262050E+01   -0.2000000000000000E+01    0.1885385149929012E+01
    0.1660890649526405E+01   -0.2000000000000000E+01    0.2508737357811018E+01
    0.1598111783087740E+01   -0.2000000000000000E+01    0.3356656815401915E+01
    0.2519516809901736E+01   -0.2000000000000000E+01    0.3120482633132017E+01
    0.2000153144652849E+01   -0.2000000000000000E+01    0.4127941526767214E+01
    0.3039222624309763E+01   -0.2000000000000000E+01    0.8728843884554416E+00
    0.1943909465021303E+01   -0.2000000000000000E+01    0.8563427312614358E+00
    0.4181134289965387E+01   -0.2000000000000000E+01    0.3039806936459394E+01
    0.3427857139900839E+01   -0.2000000000000000E+01    0.1608316206941619E+01
    0.4204276726360096E+01   -0.2000000000000000E+01    0.1992994776168015E+01
    0.3029173563817358E+01   -0.2000000000000000E+01    0.4119574277282996E+01
    0.3439265668129285E+01   -0.2000000000000000E+01    0.3362878032445769E+01
    0.3359002465395521E+01   -0.2000000000000000E+01    0.2495945761348561E+01
    0.0000000000000000E+00   -0.3000000000000000E+01    0.5000000000000000E+01
    0.0000000000000000E+00   -0.3000000000000000E+01    0.3750000000000000E+01
    0.0000000000000000E+00   -0.3000000000000000E+01    0.2500000000000000E+01
    0.0000000000000000E+00   -0.3000000000000000E+01    0.1250000000000000E+01
    0.0000000000000000E+00   -0.3000000000000000E+01    0.0000000000000000E+00
    0.1250000000000000E+01   -0.3000000000000000E+01    0.0000000000000000E+00
    0.2500000000000000E+01   -0.3000000000000000E+01    0.0000000000000000E+00
    0.3750000000000000E+01   -0.3000000000000000E+01    0.0000000000000000E+00
    0.5000000000000000E+01   -0.3000000000000000E+01    0.0000000000000000E+00
    0.5000000000000000E+01   -0.3000000000000000E+01    0.1250000000000000E+01
    0.5000000000000000E+01   -0.3000000000000000E+01    0.2500000000000000E+01
    0.5000000000000000E+01   -0.3000000000000000E+01    0.3750000000000000E+01
    0.5000000000000000E+01   -0.3000000000000000E+01    0.5000000000000000E+01
    0.3750000000000000E+01   -0.3000000000000000E+01    0.5000000000000000E+01
    0.2500000000000000E+01   -0.3000000000000000E+01    0.5000000000000000E+01
    0.1250000000000000E+01   -0.3000000000000000E+01    0.5000000000000000E+01
    0.8087673404641089E+00   -0.3000000000000000E+01    0.3046700411233810E+01
[...]
POINT_DATA 216
SCALARS rho double 1
LOOKUP_TABLE default
   0.9908251570089402E+00
   0.9959423455151740E+00
   0.9572777697423800E+00
   0.1070682543739143E+01
   0.6430646914488760E+00
   0.9039966584976211E+00
   0.8713668599755408E+00
   0.8569982666222123E+00
   0.5555980427819902E+00
   0.9670420833244959E+00
   0.1015568790561185E+01
   0.9951685215677395E+00
   0.9941207965770409E+00
   0.9950978180195844E+00
   0.9889762115242864E+00
   0.9930359673076771E+00
   0.9874064218631903E+00
   0.9862301780017869E+00
   0.9881564387700802E+00
   0.9845565540341462E+00
   0.9504721542064762E+00
   0.9885133182709878E+00
   0.9832689037183210E+00
   0.1004215596967900E+01
   0.9984134955211571E+00
   0.9804419348081691E+00
   0.9831095880940860E+00
   0.9885801845498805E+00
   0.9168326366157878E+00
   0.9640858301894205E+00
   0.9987008359461599E+00
   0.9568609668729792E+00
   0.9842676499513915E+00
   0.9891629005846774E+00
   0.9847046825396604E+00
   0.9959390245037596E+00
   0.9908047625340316E+00
   0.9959186564610502E+00
   0.9570739841337484E+00
   0.1070532774396897E+01
   0.6462571982360623E+00
   0.9050677517667025E+00
   0.8733800287465081E+00
   0.8599397640486115E+00
   0.5579421169343733E+00
   0.9684221530708353E+00
   0.1015829833149044E+01
   0.9951812434281012E+00
   0.9941025056226367E+00
   0.9950532066747643E+00
   0.9889331087747549E+00
   0.9930013137873878E+00
   0.9873454410588410E+00
   0.9861346782264985E+00
   0.9881142459454307E+00
   0.9857803498842110E+00
   0.9503797607891209E+00
   0.9885061719435443E+00
   0.9831883261347696E+00
   0.1004036894803544E+01
   0.9982729946909460E+00
   0.9803974951218000E+00
   0.9830617237003891E+00
   0.9885487555636012E+00
   0.9172626155678301E+00
   0.9644513843155991E+00
   0.9987284053669679E+00
   0.9567058677342943E+00
   0.9843855386190528E+00
   0.9891401683400290E+00
   0.9846852233503621E+00
   0.9959071293253906E+00
   0.9908082167279970E+00
   0.9959244204322460E+00
   0.9571001873039238E+00
   0.1070536335152416E+01
   0.6463290936323954E+00
   0.9051000944263975E+00
   0.8738896150046751E+00
   0.8604893017554028E+00
   0.5581578308591955E+00
   0.9683754117182998E+00
   0.1015793789376910E+01
   0.9951911538382670E+00
   0.9941064954157081E+00
   0.9950768819447220E+00
   0.9889526956051415E+00
   0.9930174775516529E+00
   0.9873703223022967E+00
   0.9861579811755312E+00
   0.9881289413707649E+00
   0.9859270290127754E+00
   0.9504108987126028E+00
   0.9885166183829589E+00
   0.9832207949531976E+00
   0.1004043877725459E+01
   0.9983137104186770E+00
   0.9804183135379825E+00
   0.9830965350913564E+00
   0.9885649753647811E+00
   0.9174057539554926E+00
   0.9644696891153165E+00
   0.9987524274833938E+00
   0.9567332536336717E+00
   0.9843862399502711E+00
   0.9891569877678679E+00
   0.9847084967880928E+00
   0.9959324200473628E+00
   0.9908078965583811E+00
   0.9959232395008111E+00
   0.9570967357982507E+00
   0.1070536579892937E+01
   0.6463131049146325E+00
   0.9050939280214980E+00
   0.8738059018215967E+00
   0.8604403077276790E+00
   0.5581366546845764E+00
   0.9683754914704384E+00
   0.1015799153756734E+01
   0.9951908084936926E+00
   0.9941085128048550E+00
   0.9950771214624012E+00
   0.9889509640346269E+00
   0.9930157004531145E+00
   0.9873686415446750E+00
   0.9861581351698615E+00
   0.9881275802464580E+00
   0.9859183271063915E+00
   0.9504081496751965E+00
   0.9885164219938867E+00
   0.9832150923425810E+00
   0.1004047212752579E+01
   0.9983125450001024E+00
   0.9804165793718613E+00
   0.9830955947994308E+00
   0.9885639775720421E+00
   0.9173967098970243E+00
   0.9644794625068571E+00
   0.9987521638006864E+00
   0.9567362159032882E+00
   0.9843921260617888E+00
   0.9891565031242826E+00
   0.9847071602320425E+00
   0.9959336957415984E+00
   0.9908050794468790E+00
   0.9959198327988575E+00
   0.9570774349881119E+00
   0.1070532512154738E+01
   0.6462731638460526E+00
   0.9050738314169667E+00
   0.8734638010071585E+00
   0.8599889588354772E+00
   0.5579633909269039E+00
   0.9684220403677255E+00
   0.1015824471253005E+01
   0.9951815852888178E+00
   0.9941004866624420E+00
   0.9950529706302922E+00
   0.9889348410118333E+00
   0.9930030883217972E+00
   0.9873471208447673E+00
   0.9861345179438221E+00
   0.9881156068872825E+00
   0.9857890540201024E+00
   0.9503825221765747E+00
   0.9885063703362585E+00
   0.9831940392241634E+00
   0.1004033560925564E+01
   0.9982741542483499E+00
   0.9803992291939069E+00
   0.9830626659395167E+00
   0.9885497563468465E+00
   0.9172716837948370E+00
   0.9644416111299792E+00
   0.9987286652972790E+00
   0.9567029194686167E+00
   0.9843796543150084E+00
   0.9891406570132183E+00
   0.9846865574952958E+00
   0.9959058467180860E+00
   0.9908248386896129E+00
   0.9959411587456934E+00
   0.9572743171937278E+00
   0.1070682738865023E+01
   0.6430485960730369E+00
   0.9039904381892263E+00
   0.8712835916504388E+00
   0.8569495641461821E+00
   0.5555772833980297E+00
   0.9670421289258223E+00
   0.1015574133634650E+01
   0.9951681698523811E+00
   0.9941228164082107E+00
   0.9950980445131192E+00
   0.9889744794999361E+00
   0.9930341867427738E+00
   0.9874047395867860E+00
   0.9862303177596179E+00
   0.9881550753556273E+00
   0.9845478594304067E+00
   0.9504694100028585E+00
   0.9885131356749082E+00
   0.9832632024916588E+00
   0.1004218918033913E+01
   0.9984123160874261E+00
   0.9804401976930655E+00
   0.9831086527679747E+00
   0.9885791896312214E+00
   0.9168237260226473E+00
   0.9640956586230773E+00
   0.9987005476744395E+00
   0.9568639763143414E+00
   0.9842735334157762E+00
   0.9891624225284007E+00
   0.9847033509711512E+00
   0.9959402663162986E+00
SCALARS u double 1
LOOKUP_TABLE default
   0.5094776309609309E+00
   0.5067197336966347E+00
   0.5231248969475398E+00
   0.5099142547143259E+00
   0.0000000000000000E+00
   0.0000000000000000E+00
   0.0000000000000000E+00
   0.0000000000000000E+00
   0.0000000000000000E+00
   0.4964107713235972E+00
   0.4979062900361441E+00
   0.4990343655815495E+00
   0.4958160057798346E+00
   0.5064272660345175E+00
   0.5121518112042368E+00
   0.5130122357411631E+00
   0.5011062984654581E+00
   0.5812845422799804E+00
   0.5122600793902614E+00
   0.4689103664762347E+00
   0.3774230080052081E+00
   0.5023728459964847E+00
   0.5226238710932071E+00
   0.5474086562070679E+00
   0.5391359842676843E+00
   0.5089684804484582E+00
   0.5221304871331228E+00
   0.5083855788121269E+00
   0.3796250594828865E+00
   0.3689779915324169E+00
   0.5165726310987926E+00
   0.5347682340580594E+00
   0.5556135473927339E+00
   0.5085561514619943E+00
   0.5122155690126238E+00
   0.5521090575221874E+00
   0.5095107781286491E+00
   0.5067693709567329E+00
   0.5231143027218075E+00
   0.5106695829461034E+00
   0.0000000000000000E+00
   0.0000000000000000E+00
   0.0000000000000000E+00
   0.0000000000000000E+00
   0.0000000000000000E+00
   0.4975733522059994E+00
   0.4985920748302473E+00
   0.4988327199285901E+00
   0.4957627200752751E+00
   0.5065641272751914E+00
   0.5122766245347614E+00
   0.5130835202052360E+00
   0.5010003971279183E+00
   0.5820436935945646E+00
   0.5122978819876978E+00
   0.4710585555394582E+00
   0.3781955037643054E+00
   0.5021537572571130E+00
   0.5247115793771510E+00
   0.5497029431008095E+00
   0.5394404087438118E+00
   0.5088775473681986E+00
   0.5219608492289982E+00
   0.5083774690017002E+00
   0.3799927936689078E+00
   0.3693620537731283E+00
   0.5164927919080718E+00
   0.5375160074325183E+00
   0.5576194710512083E+00
   0.5084452289373240E+00
   0.5119480709635881E+00
   0.5530800041970243E+00
   0.5095068935899956E+00
   0.5067584973642383E+00
   0.5231009510834449E+00
   0.5106172295672730E+00
   0.0000000000000000E+00
   0.0000000000000000E+00
   0.0000000000000000E+00
   0.0000000000000000E+00
   0.0000000000000000E+00
   0.4976346401495660E+00
   0.4986339019216606E+00
   0.4988252520360069E+00
   0.4957647669743566E+00
   0.5065345226677965E+00
   0.5122409631931566E+00
   0.5130587634253634E+00
   0.5009742439424578E+00
   0.5819751686809693E+00
   0.5122743644924390E+00
   0.4710167841313048E+00
   0.3782260581537533E+00
   0.5021283155131270E+00
   0.5246895866347703E+00
   0.5496496359848401E+00
   0.5393847790793299E+00
   0.5088457230413344E+00
   0.5219182420303314E+00
   0.5083439214851835E+00
   0.3799311595425888E+00
   0.3693095606643442E+00
   0.5164716855754021E+00
   0.5374257866255178E+00
   0.5576107273001674E+00
   0.5084108106099078E+00
   0.5119159962148159E+00
   0.5530208703981949E+00
   0.5095075980320813E+00
   0.5067598010185483E+00
   0.5231039659242830E+00
   0.5106193616376925E+00
   0.0000000000000000E+00
   0.0000000000000000E+00
   0.0000000000000000E+00
   0.0000000000000000E+00
   0.0000000000000000E+00
   0.4976382221173132E+00
   0.4986325180410371E+00
   0.4988286812904012E+00
   0.4957648925849221E+00
   0.5065372133234985E+00
   0.5122457146432738E+00
   0.5130621808051760E+00
   0.5009764024895441E+00
   0.5819786068414666E+00
   0.5122761406729004E+00
   0.4710217020818138E+00
   0.3782224442431130E+00
   0.5021323034262405E+00
   0.5246938987995046E+00
   0.5496516248297048E+00
   0.5393892420845345E+00
   0.5088483871460384E+00
   0.5219225178019775E+00
   0.5083482170480570E+00
   0.3799314057665220E+00
   0.3693079005577319E+00
   0.5164762413260711E+00
   0.5374301120926174E+00
   0.5576117557729126E+00
   0.5084142455585814E+00
   0.5119220899337099E+00
   0.5530240702221759E+00
   0.5095100766316760E+00
   0.5067680716547228E+00
   0.5231112913069699E+00
   0.5106674625259880E+00
   0.0000000000000000E+00
   0.0000000000000000E+00
   0.0000000000000000E+00
   0.0000000000000000E+00
   0.0000000000000000E+00
   0.4975697973044159E+00
   0.4985934363221003E+00
   0.4988292798376996E+00
   0.4957625840879765E+00
   0.5065614248096588E+00
   0.5122718661829723E+00
   0.5130801056896958E+00
   0.5009982432545079E+00
   0.5820402504558492E+00
   0.5122961051170336E+00
   0.4710536349579038E+00
   0.3781991167708380E+00
   0.5021497555954391E+00
   0.5247072567865634E+00
   0.5497009422479120E+00
   0.5394359468211224E+00
   0.5088748786518866E+00
   0.5219565673191846E+00
   0.5083731676798784E+00
   0.3799925349407698E+00
   0.3693637078828451E+00
   0.5164882311725641E+00
   0.5375116653466001E+00
   0.5576184248239199E+00
   0.5084417842173743E+00
   0.5119419657741615E+00
   0.5530768022847471E+00
   0.5094783318352801E+00
   0.5067210421576360E+00
   0.5231279262086651E+00
   0.5099163577234994E+00
   0.0000000000000000E+00
   0.0000000000000000E+00
   0.0000000000000000E+00
   0.0000000000000000E+00
   0.0000000000000000E+00
   0.4964144022912838E+00
   0.4979048998807211E+00
   0.4990377860358959E+00
   0.4958161334154028E+00
   0.5064299740697518E+00
   0.5121565659927414E+00
   0.5130156567514362E+00
   0.5011084759200395E+00
   0.5812879476180625E+00
   0.5122618555920260E+00
   0.4689152689773687E+00
   0.3774194695031373E+00
   0.5023768282656970E+00
   0.5226281530625175E+00
   0.5474106194669933E+00
   0.5391404506953008E+00
   0.5089711536626602E+00
   0.5221347616734774E+00
   0.5083898707845305E+00
   0.3796254335160302E+00
   0.3689764785717141E+00
   0.5165771744548020E+00
   0.5347725866910041E+00
   0.5556145850534946E+00
   0.5085595737009841E+00
   0.5122216558553434E+00
   0.5521122504833533E+00
SCALARS v double 1
LOOKUP_TABLE default
   0.0000000000000000E+00
   0.0000000000000000E+00
   0.0000000000000000E+00
   0.0000000000000000E+00
   0.0000000000000000E+00
   0.0000000000000000E+00
   0.0000000000000000E+00
   0.0000000000000000E+00
   0.0000000000000000E+00
   0.0000000000000000E+00
   0.0000000000000000E+00
   0.0000000000000000E+00
   0.0000000000000000E+00
   0.0000000000000000E+00
   0.0000000000000000E+00
   0.0000000000000000E+00
   0.0000000000000000E+00
   0.0000000000000000E+00
   0.0000000000000000E+00
   0.0000000000000000E+00
   0.0000000000000000E+00
   0.0000000000000000E+00
   0.0000000000000000E+00
   0.0000000000000000E+00
   0.0000000000000000E+00
   0.0000000000000000E+00
   0.0000000000000000E+00
   0.0000000000000000E+00
   0.0000000000000000E+00
   0.0000000000000000E+00
   0.0000000000000000E+00
   0.0000000000000000E+00
   0.0000000000000000E+00
   0.0000000000000000E+00
   0.0000000000000000E+00
   0.0000000000000000E+00
   0.8964874625265108E-06
   0.9351021385965689E-05
  -0.9225652668700327E-04
   0.2868695225335252E-04
   0.0000000000000000E+00
   0.0000000000000000E+00
   0.0000000000000000E+00
   0.0000000000000000E+00
   0.0000000000000000E+00
   0.5820886921974080E-03
   0.2269355788150879E-03
  -0.4555643806514441E-05
  -0.2626961215856032E-04
  -0.2761309790531161E-04
  -0.2455119113098316E-04
  -0.1509923316326212E-04
  -0.5811412195417039E-04
  -0.3184643216560360E-04
  -0.2104447714236666E-04
  -0.6933399807939347E-04
  -0.2532028722407032E-03
  -0.2121604734314771E-04
  -0.7704558556460409E-04
  -0.8840910709472366E-04
  -0.9227472897562667E-04
  -0.5052170861942431E-04
  -0.6583106405607025E-04
  -0.2613234318888961E-04
  -0.3522709965288432E-03
  -0.1026886393318832E-03
  -0.9839231380447876E-05
  -0.2375150855424963E-03
   0.3184329343256491E-04
  -0.2995371634145866E-04
  -0.3506045780015752E-04
  -0.1010889657693026E-04
   0.1607602635043635E-05
   0.3440777619172078E-05
  -0.2561757459836211E-05
   0.1534619607420427E-04
   0.0000000000000000E+00
   0.0000000000000000E+00
   0.0000000000000000E+00
   0.0000000000000000E+00
   0.0000000000000000E+00
   0.5378219195776671E-04
   0.2418809133783755E-04
   0.4259394143473604E-05
   0.2070152103561694E-05
   0.1079799615843549E-04
   0.9738881099986648E-05
   0.6314855777831497E-05
   0.2507579199140485E-05
   0.9814493158192947E-05
   0.4867045397791284E-05
  -0.1969845430538884E-04
  -0.3113083447930869E-04
   0.6486481467898555E-05
  -0.7283650533403694E-05
  -0.8252894508893728E-05
   0.1531581872626896E-05
   0.3079309883638290E-05
   0.2299063860795346E-05
   0.6790034418710666E-05
  -0.2931718264896715E-04
  -0.2319850018241695E-05
   0.3985939737564402E-05
  -0.3323325832732912E-04
  -0.5893943786886856E-05
   0.5815612283339307E-05
   0.5509102605111281E-05
   0.9053828172156005E-05
  -0.1606219783261436E-05
  -0.3442020094777892E-05
   0.2561993161376639E-05
  -0.1534569468713903E-04
   0.0000000000000000E+00
   0.0000000000000000E+00
   0.0000000000000000E+00
   0.0000000000000000E+00
   0.0000000000000000E+00
  -0.5377348925391627E-04
  -0.2419036632425528E-04
  -0.4252615855170449E-05
  -0.2059950242896776E-05
  -0.1079727946776475E-04
  -0.9734466174642940E-05
  -0.6315141039040625E-05
  -0.2510127284876033E-05
  -0.9812995225774921E-05
  -0.4867997531461561E-05
   0.1973298027582559E-04
   0.3111552374383201E-04
  -0.6473427977395807E-05
   0.7281685968120913E-05
   0.8245597878510812E-05
  -0.1533288920410280E-05
  -0.3082991561912153E-05
  -0.2295893854517776E-05
  -0.6791341503466544E-05
   0.2933344013063296E-04
   0.2312889373991108E-05
  -0.3992951729377423E-05
   0.3323958933155187E-04
   0.5894152502229671E-05
  -0.5810621274259672E-05
  -0.5502556230824726E-05
  -0.9068143765887718E-05
  -0.8930017077818886E-06
  -0.9353690660495988E-05
   0.9225797780906859E-04
  -0.2869093966095490E-04
   0.0000000000000000E+00
   0.0000000000000000E+00
   0.0000000000000000E+00
   0.0000000000000000E+00
   0.0000000000000000E+00
  -0.5820698831708853E-03
  -0.2269323158106171E-03
   0.4561222651250536E-05
   0.2627552817213888E-04
   0.2760146425851673E-04
   0.2455006989598660E-04
   0.1509758045105899E-04
   0.5811080627571985E-04
   0.3184353735859296E-04
   0.2104192269413145E-04
   0.6938012985114183E-04
   0.2531752928710226E-03
   0.2122516677402357E-04
   0.7703131061599151E-04
   0.8839775523529221E-04
   0.9227215666545696E-04
   0.5051646510377501E-04
   0.6583293711219254E-04
   0.2612990871046552E-04
   0.3523018439485372E-03
   0.1026785857422734E-03
   0.9833773472690456E-05
   0.2375314484140070E-03
  -0.3183253789716614E-04
   0.2995645358591857E-04
   0.3506520046811185E-04
   0.1009313669381488E-04
   0.0000000000000000E+00
   0.0000000000000000E+00
   0.0000000000000000E+00
   0.0000000000000000E+00
   0.0000000000000000E+00
   0.0000000000000000E+00
   0.0000000000000000E+00
   0.0000000000000000E+00
   0.0000000000000000E+00
   0.0000000000000000E+00
   0.0000000000000000E+00
   0.0000000000000000E+00
   0.0000000000000000E+00
   0.0000000000000000E+00
   0.0000000000000000E+00
   0.0000000000000000E+00
   0.0000000000000000E+00
   0.0000000000000000E+00
   0.0000000000000000E+00
   0.0000000000000000E+00
   0.0000000000000000E+00
   0.0000000000000000E+00
   0.0000000000000000E+00
   0.0000000000000000E+00
   0.0000000000000000E+00
   0.0000000000000000E+00
   0.0000000000000000E+00
   0.0000000000000000E+00
   0.0000000000000000E+00
   0.0000000000000000E+00
   0.0000000000000000E+00
   0.0000000000000000E+00
   0.0000000000000000E+00
   0.0000000000000000E+00
   0.0000000000000000E+00
   0.0000000000000000E+00
SCALARS w double 1
LOOKUP_TABLE default
  -0.3139712354696161E-02
  -0.3149338470407477E-02
   0.1010615366072554E-01
  -0.1423924543952725E-01
   0.0000000000000000E+00
   0.0000000000000000E+00
   0.0000000000000000E+00
   0.0000000000000000E+00
   0.0000000000000000E+00
  -0.1293199661443142E+00
  -0.4492428400247813E-01
  -0.8384870177770043E-02
  -0.8312541456154857E-02
  -0.6044441590408391E-02
  -0.9787496391238257E-02
  -0.7844363571971229E-02
  -0.1104580880807639E-01
   0.1577893398197310E-01
  -0.6813767802441475E-02
  -0.6651773999905247E-01
  -0.5231029755802170E-01
  -0.1468140968358063E-01
  -0.5243495896183907E-02
  -0.8062271476557841E-02
  -0.6926526769985114E-02
  -0.7164114894676810E-02
  -0.7196948229721899E-02
  -0.1379567964768285E-01
   0.1661358975245702E-01
   0.1921745222096646E-02
  -0.2098068659636998E-01
  -0.9927142859782398E-02
  -0.3070753654928860E-01
  -0.1513056384908863E-01
  -0.1660346679329807E-01
  -0.2375901165780456E-01
  -0.3127945410799480E-02
  -0.3155404641342423E-02
   0.1003807299622018E-01
  -0.1445924416880975E-01
   0.0000000000000000E+00
   0.0000000000000000E+00
   0.0000000000000000E+00
   0.0000000000000000E+00
   0.0000000000000000E+00
  -0.1286881974191791E+00
  -0.4444999657413176E-01
  -0.8361045224999471E-02
  -0.8366458172409479E-02
  -0.6079989875973346E-02
  -0.9813256465146449E-02
  -0.7868838688507390E-02
  -0.1122190408433324E-01
   0.1549980547174389E-01
  -0.6873587134977905E-02
  -0.6716085582235708E-01
  -0.5129829578554283E-01
  -0.1482512439475005E-01
  -0.5170172253021876E-02
  -0.8216823338680540E-02
  -0.7196142563439770E-02
  -0.7382774199545741E-02
  -0.7474971159072635E-02
  -0.1388044785020402E-01
   0.1639183306867874E-01
   0.1933128339446533E-02
  -0.2111328971490887E-01
  -0.1025870676201498E-01
  -0.3090304798818924E-01
  -0.1525509356763708E-01
  -0.1681702477092045E-01
  -0.2403696092642448E-01
  -0.3129539197684281E-02
  -0.3151630396526404E-02
   0.1003054983281826E-01
  -0.1440979346986127E-01
   0.0000000000000000E+00
   0.0000000000000000E+00
   0.0000000000000000E+00
   0.0000000000000000E+00
   0.0000000000000000E+00
  -0.1285637488310566E+00
  -0.4438698365194667E-01
  -0.8325080423325502E-02
  -0.8352108968236462E-02
  -0.6057275585382443E-02
  -0.9792301409506739E-02
  -0.7855757678547137E-02
  -0.1121293306825038E-01
   0.1551065225607364E-01
  -0.6861065746271369E-02
  -0.6711926567883404E-01
  -0.5129799689558244E-01
  -0.1478401445839058E-01
  -0.5136676317931840E-02
  -0.8189976637253717E-02
  -0.7182304795183560E-02
  -0.7354989506323217E-02
  -0.7446414661315588E-02
  -0.1385110514394363E-01
   0.1631538677968064E-01
   0.1839428234324502E-02
  -0.2105167823386123E-01
  -0.1020598805161542E-01
  -0.3082384328761663E-01
  -0.1521976958736909E-01
  -0.1677395200479540E-01
  -0.2398011679218267E-01
  -0.3129677479702188E-02
  -0.3152219011154720E-02
   0.1003048391177998E-01
  -0.1441122480460696E-01
   0.0000000000000000E+00
   0.0000000000000000E+00