title="tecplot geometry and solution file"
variables = x y z rho u v w p mach temperature
zone t="boundary 1 bc-1", solutiontime= 0.4000000E+02, strandid=1001, i=121, j=100, f=feblock
  0.000000000000E+00  0.000000000000E+00  0.000000000000E+00  0.000000000000E+00  0.000000000000E+00  0.000000000000E+00  0.000000000000E+00
  0.000000000000E+00  0.000000000000E+00  0.000000000000E+00  0.000000000000E+00  0.000000000000E+00  0.000000000000E+00  0.000000000000E+00
  0.000000000000E+00  0.000000000000E+00  0.000000000000E+00  0.000000000000E+00  0.000000000000E+00  0.000000000000E+00  0.000000000000E+00
  0.000000000000E+00  0.000000000000E+00  0.000000000000E+00  0.000000000000E+00  0.000000000000E+00  0.000000000000E+00  0.000000000000E+00
  0.000000000000E+00  0.000000000000E+00  0.000000000000E+00  0.000000000000E+00  0.000000000000E+00  0.000000000000E+00  0.000000000000E+00
  0.000000000000E+00  0.000000000000E+00  0.000000000000E+00  0.000000000000E+00  0.000000000000E+00  0.000000000000E+00  0.000000000000E+00
  0.000000000000E+00  0.000000000000E+00  0.000000000000E+00  0.000000000000E+00  0.000000000000E+00  0.000000000000E+00  0.000000000000E+00
  0.000000000000E+00  0.000000000000E+00  0.000000000000E+00  0.000000000000E+00  0.000000000000E+00  0.000000000000E+00  0.000000000000E+00
  0.000000000000E+00  0.000000000000E+00  0.000000000000E+00  0.000000000000E+00  0.000000000000E+00  0.000000000000E+00  0.000000000000E+00
  0.000000000000E+00  0.000000000000E+00  0.000000000000E+00  0.000000000000E+00  0.000000000000E+00  0.000000000000E+00  0.000000000000E+00
  0.000000000000E+00  0.000000000000E+00  0.000000000000E+00  0.000000000000E+00  0.000000000000E+00  0.000000000000E+00  0.000000000000E+00
  0.000000000000E+00  0.000000000000E+00  0.000000000000E+00  0.000000000000E+00  0.000000000000E+00  0.000000000000E+00  0.000000000000E+00
  0.000000000000E+00  0.000000000000E+00  0.000000000000E+00  0.000000000000E+00  0.000000000000E+00  0.000000000000E+00  0.000000000000E+00
  0.000000000000E+00  0.000000000000E+00  0.000000000000E+00  0.000000000000E+00  0.000000000000E+00  0.000000000000E+00  0.000000000000E+00
  0.000000000000E+00  0.000000000000E+00  0.000000000000E+00  0.000000000000E+00  0.000000000000E+00  0.000000000000E+00  0.000000000000E+00
  0.000000000000E+00  0.000000000000E+00  0.000000000000E+00  0.000000000000E+00  0.000000000000E+00  0.000000000000E+00  0.000000000000E+00
  0.000000000000E+00  0.000000000000E+00  0.000000000000E+00  0.000000000000E+00  0.000000000000E+00  0.000000000000E+00  0.000000000000E+00
  0.000000000000E+00  0.000000000000E+00
  0.250000000000E+01  0.250000000000E+01  0.200000000000E+01  0.250000000000E+01  0.200000000000E+01  0.150000000000E+01  0.250000000000E+01
  0.200000000000E+01  0.150000000000E+01  0.100000000000E+01  0.250000000000E+01  0.200000000000E+01  0.150000000000E+01  0.100000000000E+01
  0.500000000000E+00  0.250000000000E+01  0.200000000000E+01  0.150000000000E+01  0.100000000000E+01  0.500000000000E+00  0.000000000000E+00
  0.250000000000E+01  0.200000000000E+01  0.150000000000E+01  0.100000000000E+01  0.500000000000E+00  0.000000000000E+00 -0.500000000000E+00
  0.250000000000E+01  0.200000000000E+01  0.150000000000E+01  0.100000000000E+01  0.500000000000E+00  0.000000000000E+00 -0.500000000000E+00
 -0.100000000000E+01  0.250000000000E+01  0.200000000000E+01  0.150000000000E+01  0.100000000000E+01  0.500000000000E+00  0.000000000000E+00
 -0.500000000000E+00 -0.100000000000E+01 -0.150000000000E+01  0.250000000000E+01  0.200000000000E+01  0.150000000000E+01  0.100000000000E+01
  0.500000000000E+00  0.000000000000E+00 -0.500000000000E+00 -0.100000000000E+01 -0.150000000000E+01 -0.200000000000E+01  0.250000000000E+01
  0.200000000000E+01  0.150000000000E+01  0.100000000000E+01  0.500000000000E+00  0.000000000000E+00 -0.500000000000E+00 -0.100000000000E+01
 -0.150000000000E+01 -0.200000000000E+01 -0.250000000000E+01  0.200000000000E+01  0.150000000000E+01  0.100000000000E+01  0.500000000000E+00
  0.000000000000E+00 -0.500000000000E+00 -0.100000000000E+01 -0.150000000000E+01 -0.200000000000E+01 -0.250000000000E+01  0.150000000000E+01
  0.100000000000E+01  0.500000000000E+00  0.000000000000E+00 -0.500000000000E+00 -0.100000000000E+01 -0.150000000000E+01 -0.200000000000E+01
 -0.250000000000E+01  0.100000000000E+01  0.500000000000E+00  0.000000000000E+00 -0.500000000000E+00 -0.100000000000E+01 -0.150000000000E+01
 -0.200000000000E+01 -0.250000000000E+01  0.500000000000E+00  0.000000000000E+00 -0.500000000000E+00 -0.100000000000E+01 -0.150000000000E+01
 -0.200000000000E+01 -0.250000000000E+01  0.000000000000E+00 -0.500000000000E+00 -0.100000000000E+01 -0.150000000000E+01 -0.200000000000E+01
 -0.250000000000E+01 -0.500000000000E+00 -0.100000000000E+01 -0.150000000000E+01 -0.200000000000E+01 -0.250000000000E+01 -0.100000000000E+01
 -0.150000000000E+01 -0.200000000000E+01 -0.250000000000E+01 -0.150000000000E+01 -0.200000000000E+01 -0.250000000000E+01 -0.200000000000E+01
 -0.250000000000E+01 -0.250000000000E+01
  0.000000000000E+00  0.500000000000E+00  0.000000000000E+00  0.100000000000E+01  0.500000000000E+00  0.000000000000E+00  0.150000000000E+01
  0.100000000000E+01  0.500000000000E+00  0.000000000000E+00  0.200000000000E+01  0.150000000000E+01  0.100000000000E+01  0.500000000000E+00
  0.000000000000E+00  0.250000000000E+01  0.200000000000E+01  0.150000000000E+01  0.100000000000E+01  0.500000000000E+00  0.000000000000E+00
  0.300000000000E+01  0.250000000000E+01  0.200000000000E+01  0.150000000000E+01  0.100000000000E+01  0.500000000000E+00  0.000000000000E+00
  0.350000000000E+01  0.300000000000E+01  0.250000000000E+01  0.200000000000E+01  0.150000000000E+01  0.100000000000E+01  0.500000000000E+00
  0.000000000000E+00  0.400000000000E+01  0.350000000000E+01  0.300000000000E+01  0.250000000000E+01  0.200000000000E+01  0.150000000000E+01
  0.100000000000E+01  0.500000000000E+00  0.000000000000E+00  0.450000000000E+01  0.400000000000E+01  0.350000000000E+01  0.300000000000E+01
  0.250000000000E+01  0.200000000000E+01  0.150000000000E+01  0.100000000000E+01  0.500000000000E+00  0.000000000000E+00  0.500000000000E+01
  0.450000000000E+01  0.400000000000E+01  0.350000000000E+01  0.300000000000E+01  0.250000000000E+01  0.200000000000E+01  0.150000000000E+01
  0.100000000000E+01  0.500000000000E+00  0.000000000000E+00  0.500000000000E+01  0.450000000000E+01  0.400000000000E+01  0.350000000000E+01
  0.300000000000E+01  0.250000000000E+01  0.200000000000E+01  0.150000000000E+01  0.100000000000E+01  0.500000000000E+00  0.500000000000E+01
  0.450000000000E+01  0.400000000000E+01  0.350000000000E+01  0.300000000000E+01  0.250000000000E+01  0.200000000000E+01  0.150000000000E+01
  0.100000000000E+01  0.500000000000E+01  0.450000000000E+01  0.400000000000E+01  0.350000000000E+01  0.300000000000E+01  0.250000000000E+01
  0.200000000000E+01  0.150000000000E+01  0.500000000000E+01  0.450000000000E+01  0.400000000000E+01  0.350000000000E+01  0.300000000000E+01
  0.250000000000E+01  0.200000000000E+01  0.500000000000E+01  0.450000000000E+01  0.400000000000E+01  0.350000000000E+01  0.300000000000E+01
  0.250000000000E+01  0.500000000000E+01  0.450000000000E+01  0.400000000000E+01  0.350000000000E+01  0.300000000000E+01  0.500000000000E+01
  0.450000000000E+01  0.400000000000E+01  0.350000000000E+01  0.500000000000E+01  0.450000000000E+01  0.400000000000E+01  0.500000000000E+01
  0.450000000000E+01  0.500000000000E+01
  0.182275794145E+01  0.111726591061E+01  0.182075341271E+01  0.105219155560E+01  0.111436561270E+01  0.182040071396E+01  0.102622302037E+01
  0.105185240808E+01  0.111435776171E+01  0.182046913036E+01  0.100986993836E+01  0.102601174023E+01  0.105191976717E+01  0.111414284738E+01
  0.182049965850E+01  0.100407123192E+01  0.100980154551E+01  0.102602896627E+01  0.105185432272E+01  0.111411901011E+01  0.182050033689E+01
  0.100152236228E+01  0.100405084944E+01  0.100981301118E+01  0.102598151672E+01  0.105184701948E+01  0.111411098641E+01  0.182049965589E+01
  0.100067751751E+01  0.100151406703E+01  0.100405712135E+01  0.100979306669E+01  0.102597735913E+01  0.105184055175E+01  0.111411901050E+01
  0.182046912278E+01  0.100026306137E+01  0.100067321822E+01  0.100151860972E+01  0.100404853714E+01  0.100979323097E+01  0.102597213056E+01
  0.105184702019E+01  0.111414285112E+01  0.182040072823E+01  0.100010324973E+01  0.100026054023E+01  0.100067626802E+01  0.100151434748E+01
  0.100404952124E+01  0.100979016583E+01  0.102597735943E+01  0.105185432368E+01  0.111435776938E+01  0.182075357139E+01  0.100004657022E+01
  0.100010182464E+01  0.100026248761E+01  0.100067382351E+01  0.100151546279E+01  0.100404762203E+01  0.100979323123E+01  0.102598151636E+01
  0.105191977339E+01  0.111436564670E+01  0.182275821722E+01  0.100004595974E+01  0.100010297139E+01  0.100026096918E+01  0.100067484960E+01
  0.100151423297E+01  0.100404952141E+01  0.100979306648E+01  0.102602896869E+01  0.105185239384E+01  0.111726595734E+01  0.100004645378E+01
  0.100010206698E+01  0.100026178624E+01  0.100067400460E+01  0.100151546285E+01  0.100404853708E+01  0.100981301209E+01  0.102601173278E+01
  0.105219152461E+01  0.100004606788E+01  0.100010262912E+01  0.100026115995E+01  0.100067484964E+01  0.100151434734E+01  0.100405712185E+01
  0.100980153996E+01  0.102622300638E+01  0.100004632781E+01  0.100010219079E+01  0.100026178625E+01  0.100067382345E+01  0.100151860981E+01
  0.100405084830E+01  0.100986992957E+01  0.100004611341E+01  0.100010262913E+01  0.100026096914E+01  0.100067626809E+01  0.100151406652E+01
  0.100407122967E+01  0.100004632782E+01  0.100010206695E+01  0.100026248763E+01  0.100067321808E+01  0.100152236122E+01  0.100004606787E+01
  0.100010297140E+01  0.100026054016E+01  0.100067751709E+01  0.100004645378E+01  0.100010182460E+01  0.100026306117E+01  0.100004595972E+01
  0.100010324965E+01  0.100004657016E+01
  0.000000000000E+00  0.449593352900E+00  0.000000000000E+00  0.466825398265E+00  0.440699933335E+00  0.000000000000E+00  0.478308359590E+00
  0.466821122094E+00  0.440524001667E+00  0.000000000000E+00  0.490778191310E+00  0.478628693471E+00  0.466715287818E+00  0.440725073001E+00
  0.000000000000E+00  0.495764090871E+00  0.490885585642E+00  0.478575000615E+00  0.466806967743E+00  0.440748462897E+00  0.000000000000E+00
  0.498207211807E+00  0.495797826588E+00  0.490860888601E+00  0.478645245389E+00  0.466815216980E+00  0.440762500400E+00  0.000000000000E+00
  0.499129051130E+00  0.498219542283E+00  0.495786105801E+00  0.490891628085E+00  0.478649755215E+00  0.466824717933E+00  0.440748462797E+00
  0.000000000000E+00  0.499626511969E+00  0.499133915172E+00  0.498213506019E+00  0.495800465017E+00  0.490890890896E+00  0.478658524628E+00
  0.466815216468E+00  0.440725071960E+00  0.000000000000E+00  0.499828597380E+00  0.499628869385E+00  0.499130880681E+00  0.498220384973E+00
  0.495799067651E+00  0.490896043526E+00  0.478649754714E+00  0.466806967103E+00  0.440523997757E+00  0.000000000000E+00  0.499908270798E+00
  0.499829901871E+00  0.499627247032E+00  0.499134154970E+00  0.498218889319E+00  0.495802406740E+00  0.490890890597E+00  0.478645244671E+00
  0.466715283404E+00  0.440699920476E+00  0.000000000000E+00  0.499908900419E+00  0.499828942127E+00  0.499628824701E+00  0.499132951599E+00
  0.498220881299E+00  0.495799067411E+00  0.490891628056E+00  0.478574996909E+00  0.466821130166E+00  0.449593342375E+00  0.499908446211E+00
  0.499829741671E+00  0.499628100924E+00  0.499134192384E+00  0.498218889240E+00  0.495800464755E+00  0.490860887738E+00  0.478628690416E+00
  0.466825428299E+00  0.499908768932E+00  0.499829346897E+00  0.499628854010E+00  0.499132951531E+00  0.498220385012E+00  0.495786104997E+00
  0.490885588533E+00  0.478308356434E+00  0.499908692144E+00  0.499829819246E+00  0.499628100896E+00  0.499134154956E+00  0.498213505908E+00
  0.495797826323E+00  0.490778195783E+00  0.499908868538E+00  0.499829346889E+00  0.499628824712E+00  0.499130880599E+00  0.498219542404E+00
  0.495764091175E+00  0.499908692156E+00  0.499829741671E+00  0.499627247022E+00  0.499133915122E+00  0.498207212372E+00  0.499908768934E+00
  0.499828942112E+00  0.499628869399E+00  0.499129051367E+00  0.499908446203E+00  0.499829901887E+00  0.499626512128E+00  0.499908900433E+00
  0.499828597462E+00  0.499908270847E+00
  0.000000000000E+00  0.000000000000E+00  0.000000000000E+00  0.000000000000E+00 -0.100239021857E-02  0.000000000000E+00  0.000000000000E+00
 -0.248483709418E-03 -0.683868647011E-04  0.000000000000E+00  0.000000000000E+00 -0.722497595326E-04 -0.186278378550E-04  0.249402507110E-05
  0.000000000000E+00  0.000000000000E+00 -0.123772156263E-05 -0.688536212627E-05 -0.111808986132E-04  0.230496891612E-04  0.000000000000E+00
  0.000000000000E+00  0.326550101944E-05  0.449678288214E-05 -0.202542382474E-05  0.638992106675E-05 -0.495847311000E-10  0.000000000000E+00
  0.000000000000E+00  0.196172267684E-05  0.265704390197E-05  0.226915693852E-05  0.546589297536E-05  0.211574485329E-09 -0.230486168043E-04
  0.000000000000E+00  0.000000000000E+00  0.646190159320E-06  0.174585642676E-05  0.224574814771E-05  0.308825788643E-05  0.303091312431E-12
 -0.638907165981E-05 -0.248886507914E-05  0.000000000000E+00  0.000000000000E+00  0.171373014071E-06  0.845696480477E-06  0.140516576038E-05
  0.172224510415E-05  0.804449654437E-10 -0.546635310749E-05  0.111841730446E-04  0.684064177966E-04  0.000000000000E+00  0.000000000000E+00
  0.505638222309E-07  0.384498096202E-06  0.607603833536E-06  0.906627685157E-06 -0.465819011473E-10 -0.308818953051E-05  0.202371199972E-05
  0.186333497929E-04  0.100241230108E-02  0.000000000000E+00  0.559146841901E-07  0.162398177336E-06  0.216414789544E-06  0.458715259915E-06
  0.652754811761E-11 -0.172248047416E-05 -0.226914456207E-05  0.687352417451E-05  0.248507955928E-03  0.000000000000E+00  0.708079548226E-07
  0.729245671747E-07  0.230386720669E-06 -0.863114172644E-11 -0.906684814942E-06 -0.224602372447E-05 -0.449979180282E-05  0.722340982765E-04
  0.000000000000E+00  0.801348249347E-07  0.110791161436E-06 -0.269455463828E-12 -0.458771040553E-06 -0.140519001866E-05 -0.265799361690E-05
  0.123292592456E-05  0.000000000000E+00  0.703695250487E-07  0.557635154808E-12 -0.230406985348E-06 -0.607613212504E-06 -0.174615965545E-05
 -0.326626613681E-05  0.000000000000E+00 -0.336061589725E-12 -0.110801808706E-06 -0.216409518448E-06 -0.845811412217E-06 -0.196188884812E-05
  0.000000000000E+00 -0.703760797526E-07 -0.729261491222E-07 -0.384538359807E-06 -0.646243405854E-06  0.000000000000E+00 -0.801367760628E-07
 -0.162414069075E-06 -0.171398261680E-06  0.000000000000E+00 -0.708073536229E-07 -0.505717921662E-07  0.000000000000E+00 -0.559128273694E-07
  0.000000000000E+00  0.000000000000E+00
  0.000000000000E+00  0.287454207100E+00  0.000000000000E+00  0.101249431208E+00  0.288302974048E+00  0.000000000000E+00  0.313899913946E-01
  0.100457073929E+00  0.288164006010E+00  0.000000000000E+00  0.895671681613E-02  0.313181262947E-01  0.100315197128E+00  0.288158400570E+00
  0.000000000000E+00  0.205083018297E-02  0.899098173386E-02  0.312615129855E-01  0.100240747481E+00  0.288165183028E+00  0.000000000000E+00
  0.381753201330E-03  0.207921698050E-02  0.895660095897E-02  0.312508745708E-01  0.100238399470E+00  0.288167107028E+00  0.000000000000E+00
 -0.353788343338E-04  0.393651740168E-03  0.206340099454E-02  0.896135003051E-02  0.312503882084E-01  0.100240564250E+00  0.288165182519E+00
  0.000000000000E+00 -0.553745783063E-04 -0.319504207004E-04  0.387468325649E-03  0.207130057467E-02  0.895957847542E-02  0.312514408847E-01
  0.100238399923E+00  0.288158399874E+00  0.000000000000E+00 -0.388249824233E-04 -0.545795184756E-04 -0.336054755019E-04  0.392358012308E-03
  0.207012509881E-02  0.896102652873E-02  0.312503886915E-01  0.100240752471E+00  0.288164010512E+00  0.000000000000E+00  0.250289442674E-04
 -0.386629275248E-04 -0.548399983775E-04 -0.315715761534E-04  0.391499466505E-03  0.207160355972E-02  0.895957850531E-02  0.312508773677E-01
  0.100315207097E+00  0.288302951112E+00  0.000000000000E+00  0.246930447752E-04 -0.386507564943E-04 -0.542551599032E-04 -0.319909075939E-04
  0.392556255393E-03  0.207012512086E-02  0.896135005467E-02  0.312615186135E-01  0.100457023452E+00  0.287454152318E+00  0.249846205446E-04
 -0.385878877962E-04 -0.543707456308E-04 -0.312887265701E-04  0.391499429808E-03  0.207130057131E-02  0.895660066077E-02  0.313181064801E-01
  0.101249302043E+00  0.247070821419E-04 -0.385409594975E-04 -0.538928054752E-04 -0.319909467706E-04  0.392358005542E-03  0.206340033237E-02
  0.899097679862E-02  0.313899389101E-01  0.249318925465E-04 -0.383040562124E-04 -0.543707615402E-04 -0.315716206831E-04  0.387468044864E-03
  0.207921525333E-02  0.895670362660E-02  0.248254972078E-04 -0.385409593209E-04 -0.542552035796E-04 -0.336055849154E-04  0.393651399441E-03
  0.205082528838E-02  0.249319032702E-04 -0.385879221481E-04 -0.548400214992E-04 -0.319505771634E-04  0.381751564182E-03  0.247070727326E-04
 -0.386507733643E-04 -0.545795632624E-04 -0.353795287440E-04  0.249846085560E-04 -0.386629471468E-04 -0.553748392573E-04  0.246930333613E-04
 -0.388250751000E-04  0.250289074303E-04
  0.130196995818E+01  0.805703509385E+00  0.130053815194E+01  0.774923221293E+00  0.803152174119E+00  0.130028622426E+01  0.741395916699E+00
  0.774517438995E+00  0.803171583600E+00  0.130033509312E+01  0.724193059529E+00  0.741172049476E+00  0.774582106477E+00  0.802953116189E+00
  0.130035689893E+01  0.718361156731E+00  0.724125010583E+00  0.741186448544E+00  0.774504064774E+00  0.802927927372E+00  0.130035738350E+01
  0.715807866217E+00  0.718340733618E+00  0.724136207849E+00  0.741137818429E+00  0.774495495218E+00  0.802919195205E+00  0.130035689706E+01
  0.714963448138E+00  0.715799625236E+00  0.718347048813E+00  0.724116330047E+00  0.741133517172E+00  0.774488356612E+00  0.802927927935E+00
  0.130033508770E+01  0.714548548726E+00  0.714959177893E+00  0.715804133517E+00  0.718338438504E+00  0.724116441767E+00  0.741128346260E+00
  0.774495495967E+00  0.802953119904E+00  0.130028623445E+01  0.714389088314E+00  0.714546028891E+00  0.714962196921E+00  0.715799883450E+00
  0.718339420050E+00  0.724113446307E+00  0.741133517491E+00  0.774504065958E+00  0.803171590364E+00  0.130053826528E+01  0.714332253869E+00
  0.714387661496E+00  0.714547970026E+00  0.714959779255E+00  0.715801000986E+00  0.718337523714E+00  0.724116442023E+00  0.741137818165E+00
  0.774582113452E+00  0.803152206372E+00  0.130197015516E+01  0.714331626376E+00  0.714388807718E+00  0.714546463771E+00  0.714960796989E+00
  0.715799775694E+00  0.718339420219E+00  0.724116329842E+00  0.741186451165E+00  0.774517422324E+00  0.805703558643E+00  0.714332137033E+00
  0.714387909843E+00  0.714547266233E+00  0.714959955301E+00  0.715801001043E+00  0.718338438439E+00  0.724136208764E+00  0.741172040646E+00
  0.774923184851E+00  0.714331739333E+00  0.714388459760E+00  0.714546649287E+00  0.714960797027E+00  0.715799883314E+00  0.718347049315E+00
  0.724125004983E+00  0.741395899503E+00  0.714332001475E+00  0.714388033302E+00  0.714547266250E+00  0.714959779194E+00  0.715804133600E+00
  0.718340732465E+00  0.724193050665E+00  0.714331791796E+00  0.714388459772E+00  0.714546463724E+00  0.714962196988E+00  0.715799624729E+00
  0.718361154464E+00  0.714332001479E+00  0.714387909818E+00  0.714547970048E+00  0.714959177758E+00  0.715807865153E+00  0.714331739321E+00
  0.714388807726E+00  0.714546028819E+00  0.714963447726E+00  0.714332137033E+00  0.714387661457E+00  0.714548548534E+00  0.714331626355E+00
  0.714389088231E+00  0.714332253810E+00
  0.000000000000E+00  0.531091377239E+00  0.000000000000E+00  0.470424967964E+00  0.524268867948E+00  0.000000000000E+00  0.476620767477E+00
  0.470303492252E+00  0.524037440381E+00  0.000000000000E+00  0.489890584694E+00  0.476956853518E+00  0.470167567454E+00  0.524222655192E+00
  0.000000000000E+00  0.495365328566E+00  0.490004803695E+00  0.476899269116E+00  0.470249509141E+00  0.524248455193E+00  0.000000000000E+00
  0.498056040438E+00  0.495401168645E+00  0.489978525456E+00  0.476972899772E+00  0.470257936366E+00  0.524262162767E+00  0.000000000000E+00
  0.499061402659E+00  0.498069180864E+00  0.495388761096E+00  0.490011172449E+00  0.476977760945E+00  0.470268254560E+00  0.524248454742E+00
  0.000000000000E+00  0.499600316869E+00  0.499066684107E+00  0.498062702684E+00  0.495403992765E+00  0.490010406624E+00  0.476986979372E+00
  0.470257935899E+00  0.524222653613E+00  0.000000000000E+00  0.499818235357E+00  0.499602925374E+00  0.499063356956E+00  0.498070002177E+00
  0.495402495951E+00  0.490015844490E+00  0.476977760448E+00  0.470249509411E+00  0.524037439174E+00  0.000000000000E+00  0.499903626258E+00
  0.499819682836E+00  0.499601110857E+00  0.499066864901E+00  0.498068394830E+00  0.495406023845E+00  0.490010406301E+00  0.476972899243E+00
  0.470167564539E+00  0.524268842249E+00  0.000000000000E+00  0.499904322841E+00  0.499818608690E+00  0.499602835751E+00  0.499065562384E+00
  0.498070507524E+00  0.495402495695E+00  0.490011172441E+00  0.476899265523E+00  0.470303491455E+00  0.531091333917E+00  0.499903813448E+00
  0.499819496311E+00  0.499602035536E+00  0.499066886005E+00  0.498068394745E+00  0.495403992509E+00  0.489978524501E+00  0.476956850308E+00
  0.470424974041E+00  0.499904178858E+00  0.499819049639E+00  0.499602847804E+00  0.499065562312E+00  0.498070002230E+00  0.495388760241E+00
  0.490004807038E+00  0.476620763207E+00  0.499904075324E+00  0.499819561613E+00  0.499602035506E+00  0.499066864892E+00  0.498062702565E+00
  0.495401168488E+00  0.489890589784E+00  0.499904271493E+00  0.499819049630E+00  0.499602835766E+00  0.499063356868E+00  0.498069181035E+00
  0.495365329073E+00  0.499904075335E+00  0.499819496314E+00  0.499601110844E+00  0.499066684070E+00  0.498056041108E+00  0.499904178862E+00
  0.499818608674E+00  0.499602925396E+00  0.499061402937E+00  0.499903813440E+00  0.499819682856E+00  0.499600317047E+00  0.499904322857E+00
  0.499818235448E+00  0.499903626313E+00
  0.100000000000E+01  0.100959395828E+01  0.100000000000E+01  0.103107889817E+01  0.100901627881E+01  0.100000000000E+01  0.101143149469E+01
  0.103087125747E+01  0.100904777233E+01  0.100000000000E+01  0.100396124771E+01  0.101133430406E+01  0.103089131216E+01  0.100896789430E+01
  0.100000000000E+01  0.100162776051E+01  0.100393490120E+01  0.101133697203E+01  0.103085158017E+01  0.100895782957E+01  0.100000000000E+01
  0.100060772525E+01  0.100161961680E+01  0.100393902610E+01  0.101131738622E+01  0.103084733163E+01  0.100895412306E+01  0.100000000000E+01
  0.100027112619E+01  0.100060449306E+01  0.100162216566E+01  0.100393129593E+01  0.101131561511E+01  0.103084416878E+01  0.100895782992E+01
  0.100000000000E+01  0.100010487926E+01  0.100026944943E+01  0.100060625653E+01  0.100161872331E+01  0.100393128750E+01  0.101131371297E+01
  0.103084733192E+01  0.100896789557E+01  0.100000000000E+01  0.100004146963E+01  0.100010387315E+01  0.100027062466E+01  0.100060457382E+01
  0.100161911021E+01  0.100393018187E+01  0.101131561525E+01  0.103085158081E+01  0.100904777389E+01  0.100000000000E+01  0.100001858433E+01
  0.100004089729E+01  0.100010464296E+01  0.100026968572E+01  0.100060502170E+01  0.100161836066E+01  0.100393128760E+01  0.101131738621E+01
  0.103089131535E+01  0.100901628855E+01  0.100000000000E+01  0.100001831634E+01  0.100004135515E+01  0.100010405294E+01  0.100027008391E+01
  0.100060453759E+01  0.100161911028E+01  0.100393129585E+01  0.101133697322E+01  0.103087124924E+01  0.100959397778E+01  0.100001853720E+01
  0.100004100262E+01  0.100010435917E+01  0.100026975101E+01  0.100060502172E+01  0.100161872328E+01  0.100393902646E+01  0.101133429936E+01
  0.103107888005E+01  0.100001836634E+01  0.100004121031E+01  0.100010412186E+01  0.100027008393E+01  0.100060457376E+01  0.100162216586E+01
  0.100393489895E+01  0.101143148502E+01  0.100001847340E+01  0.100004105164E+01  0.100010435918E+01  0.100026968570E+01  0.100060625656E+01
  0.100161961633E+01  0.100396124416E+01  0.100001839425E+01  0.100004121032E+01  0.100010405292E+01  0.100027062468E+01  0.100060449286E+01
  0.100162775960E+01  0.100001847340E+01  0.100004100261E+01  0.100010464297E+01  0.100026944938E+01  0.100060772482E+01  0.100001836634E+01
  0.100004135516E+01  0.100010387312E+01  0.100027112603E+01  0.100001853720E+01  0.100004089727E+01  0.100010487918E+01  0.100001831633E+01
  0.100004146959E+01  0.100001858431E+01
        67        57        46        56
        57        47        37        46
        47        38        29        37
        38        30        22        29
        30        23        16        22
        23        17        11        16
        17        12         7        11
        12         8         4         7
         8         5         2         4
         5         3         1         2
        77        68        57        67
        68        58        47        57
        58        48        38        47
        48        39        30        38
        39        31        23        30
        31        24        17        23
        24        18        12        17
        18        13         8        12
        13         9         5         8
         9         6         3         5
        86        78        68        77
        78        69        58        68
        69        59        48        58
        59        49        39        48
        49        40        31        39
        40        32        24        31
        32        25        18        24
        25        19        13        18
        19        14         9        13
        14        10         6         9
        94        87        78        86
        87        79        69        78
        79        70        59        69
        70        60        49        59
        60        50        40        49
        50        41        32        40
        41        33        25        32
        33        26        19        25
        26        20        14        19
        20        15        10        14
       101        95        87        94
        95        88        79        87
        88        80        70        79
        80        71        60        70
        71        61        50        60
        61        51        41        50
        51        42        33        41
        42        34        26        33
        34        27        20        26
        27        21        15        20
       107       102        95       101
       102        96        88        95
        96        89        80        88
        89        81        71        80
        81        72        61        71
        72        62        51        61
        62        52        42        51
        52        43        34        42
        43        35        27        34
        35        28        21        27
       112       108       102       107
       108       103        96       102
       103        97        89        96
        97        90        81        89
        90        82        72        81
        82        73        62        72
        73        63        52        62
        63        53        43        52
        53        44        35        43
        44        36        28        35
       116       113       108       112
       113       109       103       108
       109       104        97       103
       104        98        90        97
        98        91        82        90
        91        83        73        82
        83        74        63        73
        74        64        53        63
        64        54        44        53
        54        45        36        44
       119       117       113       116
       117       114       109       113
       114       110       104       109
       110       105        98       104
       105        99        91        98
        99        92        83        91
        92        84        74        83
        84        75        64        74
        75        65        54        64
        65        55        45        54
       121       120       117       119
       120       118       114       117
       118       115       110       114
       115       111       105       110
       111       106        99       105
       106       100        92        99
       100        93        84        92
        93        85        75        84
        85        76        65        75
        76        66        55        65
zone t="boundary 2 bc-2", solutiontime= 0.4000000E+02, strandid=1002, i=121, j=100, f=feblock
  0.000000000000E+00  0.500000000000E+00  0.000000000000E+00  0.100000000000E+01  0.500000000000E+00  0.000000000000E+00  0.150000000000E+01
  0.100000000000E+01  0.500000000000E+00  0.000000000000E+00  0.200000000000E+01  0.150000000000E+01  0.100000000000E+01  0.500000000000E+00
  0.000000000000E+00  0.250000000000E+01  0.200000000000E+01  0.150000000000E+01  0.100000000000E+01  0.500000000000E+00  0.000000000000E+00
  0.300000000000E+01  0.250000000000E+01  0.200000000000E+01  0.150000000000E+01  0.100000000000E+01  0.500000000000E+00  0.000000000000E+00
  0.350000000000E+01  0.300000000000E+01  0.250000000000E+01  0.200000000000E+01  0.150000000000E+01  0.100000000000E+01  0.500000000000E+00
  0.000000000000E+00  0.400000000000E+01  0.350000000000E+01  0.300000000000E+01  0.250000000000E+01  0.200000000000E+01  0.150000000000E+01
  0.100000000000E+01  0.500000000000E+00  0.000000000000E+00  0.450000000000E+01  0.400000000000E+01  0.350000000000E+01  0.300000000000E+01
  0.250000000000E+01  0.200000000000E+01  0.150000000000E+01  0.100000000000E+01  0.500000000000E+00  0.000000000000E+00  0.500000000000E+01