# vtk DataFile Version 2.0
FUN3D:global_image_vtk
ASCII
DATASET UNSTRUCTURED_GRID
POINTS 1331 double
    0.0000000000000000E+00    0.2500000000000000E+01    0.0000000000000000E+00
    0.5000000000000000E+00    0.2500000000000000E+01    0.0000000000000000E+00
    0.1000000000000000E+01    0.2500000000000000E+01    0.0000000000000000E+00
    0.1500000000000000E+01    0.2500000000000000E+01    0.0000000000000000E+00
    0.2000000000000000E+01    0.2500000000000000E+01    0.0000000000000000E+00
    0.2500000000000000E+01    0.2500000000000000E+01    0.0000000000000000E+00
    0.3000000000000000E+01    0.2500000000000000E+01    0.0000000000000000E+00
    0.3500000000000000E+01    0.2500000000000000E+01    0.0000000000000000E+00
    0.4000000000000000E+01    0.2500000000000000E+01    0.0000000000000000E+00
    0.4500000000000000E+01    0.2500000000000000E+01    0.0000000000000000E+00
    0.5000000000000000E+01    0.2500000000000000E+01    0.0000000000000000E+00
    0.0000000000000000E+00    0.2500000000000000E+01    0.4999999999999982E+00
    0.4999999999999998E+00    0.2500000000000000E+01    0.4999999999999984E+00
    0.9999999999999998E+00    0.2500000000000000E+01    0.4999999999999987E+00
    0.1500000000000000E+01    0.2500000000000000E+01    0.4999999999999989E+00
    0.2000000000000000E+01    0.2500000000000000E+01    0.4999999999999991E+00
    0.2500000000000000E+01    0.2500000000000000E+01    0.4999999999999993E+00
    0.3000000000000000E+01    0.2500000000000000E+01    0.4999999999999996E+00
    0.3500000000000000E+01    0.2500000000000000E+01    0.4999999999999998E+00
    0.4000000000000000E+01    0.2500000000000000E+01    0.5000000000000000E+00
    0.4500000000000002E+01    0.2500000000000000E+01    0.5000000000000002E+00
    0.5000000000000000E+01    0.2500000000000000E+01    0.5000000000000004E+00
    0.0000000000000000E+00    0.2500000000000000E+01    0.1000000000000001E+01
    0.4999999999999997E+00    0.2500000000000000E+01    0.1000000000000001E+01
    0.1000000000000000E+01    0.2500000000000000E+01    0.1000000000000001E+01
    0.1500000000000000E+01    0.2500000000000000E+01    0.1000000000000001E+01
    0.2000000000000000E+01    0.2500000000000000E+01    0.1000000000000001E+01
    0.2500000000000000E+01    0.2500000000000000E+01    0.1000000000000001E+01
    0.3000000000000000E+01    0.2500000000000000E+01    0.1000000000000001E+01
    0.3500000000000000E+01    0.2500000000000000E+01    0.1000000000000001E+01
    0.4000000000000000E+01    0.2500000000000000E+01    0.1000000000000001E+01
    0.4499999999999999E+01    0.2500000000000000E+01    0.1000000000000001E+01
    0.5000000000000000E+01    0.2500000000000000E+01    0.1000000000000001E+01
    0.0000000000000000E+00    0.2500000000000000E+01    0.1499999999999999E+01
    0.4999999999999994E+00    0.2500000000000000E+01    0.1499999999999999E+01
    0.1000000000000000E+01    0.2500000000000000E+01    0.1499999999999999E+01
    0.1500000000000000E+01    0.2500000000000000E+01    0.1499999999999999E+01
    0.2000000000000001E+01    0.2500000000000000E+01    0.1499999999999999E+01
    0.2500000000000000E+01    0.2500000000000000E+01    0.1499999999999999E+01
    0.2999999999999999E+01    0.2500000000000000E+01    0.1499999999999999E+01
    0.3500000000000000E+01    0.2500000000000000E+01    0.1499999999999999E+01
    0.4000000000000001E+01    0.2500000000000000E+01    0.1499999999999999E+01
    0.4500000000000001E+01    0.2500000000000000E+01    0.1499999999999999E+01
    0.5000000000000000E+01    0.2500000000000000E+01    0.1499999999999999E+01
    0.0000000000000000E+00    0.2500000000000000E+01    0.2000000000000002E+01
    0.4999999999999992E+00    0.2500000000000000E+01    0.2000000000000001E+01
    0.1000000000000000E+01    0.2500000000000000E+01    0.2000000000000001E+01
    0.1500000000000000E+01    0.2500000000000000E+01    0.2000000000000001E+01
    0.2000000000000001E+01    0.2500000000000000E+01    0.2000000000000001E+01
    0.2500000000000000E+01    0.2500000000000000E+01    0.2000000000000001E+01
    0.2999999999999999E+01    0.2500000000000000E+01    0.2000000000000000E+01
    0.3500000000000000E+01    0.2500000000000000E+01    0.2000000000000000E+01
    0.4000000000000000E+01    0.2500000000000000E+01    0.2000000000000000E+01
    0.4500000000000000E+01    0.2500000000000000E+01    0.2000000000000000E+01
    0.5000000000000000E+01    0.2500000000000000E+01    0.2000000000000000E+01
    0.0000000000000000E+00    0.2500000000000000E+01    0.2500000000000000E+01
    0.4999999999999991E+00    0.2500000000000000E+01    0.2500000000000000E+01
    0.1000000000000000E+01    0.2500000000000000E+01    0.2500000000000000E+01
    0.1500000000000000E+01    0.2500000000000000E+01    0.2500000000000000E+01
    0.2000000000000001E+01    0.2500000000000000E+01    0.2500000000000000E+01
    0.2500000000000000E+01    0.2500000000000000E+01    0.2500000000000000E+01
    0.2999999999999999E+01    0.2500000000000000E+01    0.2500000000000000E+01
    0.3500000000000001E+01    0.2500000000000000E+01    0.2500000000000000E+01
    0.4000000000000000E+01    0.2500000000000000E+01    0.2500000000000000E+01
    0.4500000000000001E+01    0.2500000000000000E+01    0.2500000000000000E+01
    0.5000000000000000E+01    0.2500000000000000E+01    0.2500000000000000E+01
    0.0000000000000000E+00    0.2500000000000000E+01    0.2999999999999998E+01
    0.4999999999999989E+00    0.2500000000000000E+01    0.2999999999999998E+01
    0.1000000000000000E+01    0.2500000000000000E+01    0.2999999999999999E+01
    0.1499999999999999E+01    0.2500000000000000E+01    0.2999999999999999E+01
    0.2000000000000001E+01    0.2500000000000000E+01    0.2999999999999999E+01
    0.2500000000000000E+01    0.2500000000000000E+01    0.2999999999999999E+01
    0.2999999999999999E+01    0.2500000000000000E+01    0.2999999999999999E+01
    0.3500000000000001E+01    0.2500000000000000E+01    0.3000000000000000E+01
    0.4000000000000000E+01    0.2500000000000000E+01    0.3000000000000000E+01
    0.4500000000000001E+01    0.2500000000000000E+01    0.3000000000000000E+01
    0.5000000000000000E+01    0.2500000000000000E+01    0.3000000000000000E+01
    0.0000000000000000E+00    0.2500000000000000E+01    0.3500000000000001E+01
    0.4999999999999988E+00    0.2500000000000000E+01    0.3500000000000001E+01
    0.1000000000000001E+01    0.2500000000000000E+01    0.3500000000000001E+01
    0.1499999999999999E+01    0.2500000000000000E+01    0.3500000000000001E+01
    0.2000000000000001E+01    0.2500000000000000E+01    0.3500000000000001E+01
    0.2500000000000000E+01    0.2500000000000000E+01    0.3500000000000001E+01
    0.2999999999999999E+01    0.2500000000000000E+01    0.3500000000000001E+01
    0.3500000000000001E+01    0.2500000000000000E+01    0.3500000000000001E+01
    0.4000000000000001E+01    0.2500000000000000E+01    0.3500000000000001E+01
    0.4500000000000001E+01    0.2500000000000000E+01    0.3500000000000001E+01
    0.5000000000000000E+01    0.2500000000000000E+01    0.3500000000000001E+01
    0.0000000000000000E+00    0.2500000000000000E+01    0.3999999999999999E+01
    0.4999999999999986E+00    0.2500000000000000E+01    0.4000000000000000E+01
    0.1000000000000001E+01    0.2500000000000000E+01    0.3999999999999999E+01
    0.1499999999999999E+01    0.2500000000000000E+01    0.3999999999999999E+01
    0.2000000000000001E+01    0.2500000000000000E+01    0.3999999999999999E+01
    0.2500000000000000E+01    0.2500000000000000E+01    0.3999999999999999E+01
    0.2999999999999998E+01    0.2500000000000000E+01    0.3999999999999999E+01
    0.3500000000000001E+01    0.2500000000000000E+01    0.3999999999999999E+01
    0.3999999999999999E+01    0.2500000000000000E+01    0.3999999999999999E+01
    0.4500000000000003E+01    0.2500000000000000E+01    0.3999999999999999E+01
    0.5000000000000000E+01    0.2500000000000000E+01    0.3999999999999999E+01
    0.0000000000000000E+00    0.2500000000000000E+01    0.4500000000000002E+01
    0.4999999999999984E+00    0.2500000000000000E+01    0.4500000000000002E+01
    0.1000000000000001E+01    0.2500000000000000E+01    0.4500000000000001E+01
    0.1499999999999999E+01    0.2500000000000000E+01    0.4500000000000003E+01
    0.2000000000000002E+01    0.2500000000000000E+01    0.4500000000000001E+01
    0.2500000000000000E+01    0.2500000000000000E+01    0.4500000000000001E+01
    0.2999999999999998E+01    0.2500000000000000E+01    0.4500000000000001E+01
    0.3500000000000001E+01    0.2500000000000000E+01    0.4499999999999999E+01
    0.3999999999999999E+01    0.2500000000000000E+01    0.4499999999999999E+01
    0.4500000000000002E+01    0.2500000000000000E+01    0.4500000000000000E+01
    0.5000000000000000E+01    0.2500000000000000E+01    0.4500000000000000E+01
    0.0000000000000000E+00    0.2500000000000000E+01    0.5000000000000000E+01
    0.4999999999999982E+00    0.2500000000000000E+01    0.5000000000000000E+01
    0.1000000000000001E+01    0.2500000000000000E+01    0.5000000000000000E+01
    0.1499999999999999E+01    0.2500000000000000E+01    0.5000000000000000E+01
    0.2000000000000002E+01    0.2500000000000000E+01    0.5000000000000000E+01
    0.2500000000000000E+01    0.2500000000000000E+01    0.5000000000000000E+01
    0.2999999999999998E+01    0.2500000000000000E+01    0.5000000000000000E+01
    0.3500000000000001E+01    0.2500000000000000E+01    0.5000000000000000E+01
    0.3999999999999999E+01    0.2500000000000000E+01    0.5000000000000000E+01
    0.4500000000000002E+01    0.2500000000000000E+01    0.5000000000000000E+01
    0.5000000000000000E+01    0.2500000000000000E+01    0.5000000000000000E+01
    0.0000000000000000E+00    0.2000000000000000E+01    0.0000000000000000E+00
    0.5000000000000000E+00    0.2000000000000000E+01    0.0000000000000000E+00
    0.1000000000000000E+01    0.2000000000000000E+01    0.0000000000000000E+00
    0.1500000000000000E+01    0.2000000000000000E+01    0.0000000000000000E+00
[...]
POINT_DATA 1331
SCALARS rho double 1
LOOKUP_TABLE default
   0.9190424450135370E+00
   0.9062822235133797E+00
   0.9415270093416768E+00
   0.9717679845212387E+00
   0.9707478717267231E+00
   0.9667423549844525E+00
   0.9689359001686708E+00
   0.9709013443803717E+00
   0.9554555517801144E+00
   0.8371422685656741E+00
   0.4014913481591223E+00
   0.9945531804871505E+00
   0.9834033353743985E+00
   0.9866969929242125E+00
   0.9854079435945818E+00
   0.9838713763613893E+00
   0.9830546425617356E+00
   0.9825699674837088E+00
   0.9806582961852826E+00
   0.9786099443125813E+00
   0.9711991533053516E+00
   0.9945898054173657E+00
   0.1005462223872536E+01
   0.9911548141565152E+00
   0.9926850734829190E+00
   0.9963710251591806E+00
   0.9959178371923890E+00
   0.9937242322594108E+00
   0.9918153837571499E+00
   0.9902378786769462E+00
   0.9847566480630559E+00
   0.9830057454929633E+00
   0.9583018601441839E+00
   0.9953548290940162E+00
   0.9955197532211735E+00
   0.9959571022398921E+00
   0.9953361270261376E+00
   0.9951883829892542E+00
   0.9951094726741899E+00
   0.9948273491438659E+00
   0.9947821510619148E+00
   0.9942374907113912E+00
   0.9970982404338228E+00
   0.9972641002058674E+00
   0.9966644882096297E+00
   0.9951354380645435E+00
   0.9939229417360024E+00
   0.9940970610194388E+00
   0.9945988770698651E+00
   0.9949110566254719E+00
   0.9951176313410074E+00
   0.9957573699400890E+00
   0.9956701671366156E+00
   0.9983831794032226E+00
   0.9987620601063296E+00
   0.9954448587908643E+00
   0.9951401436220989E+00
   0.9952169955084497E+00
   0.9950410747704935E+00
   0.9946303720134505E+00
   0.9943475063637887E+00
   0.9942952265977105E+00
   0.9949535613351670E+00
   0.9953775892251885E+00
   0.9975395018748920E+00
   0.9987562051833692E+00
   0.9957022421505759E+00
   0.9959673278109925E+00
   0.9959574926118911E+00
   0.9957363285739103E+00
   0.9954002207801439E+00
   0.9951443021597877E+00
   0.9949523319699334E+00
   0.9952700426808216E+00
   0.9954939049066700E+00
   0.9966681477514625E+00
   0.9975643239295248E+00
   0.9960524442280748E+00
   0.9961129970366512E+00
   0.9960256603080850E+00
   0.9959659142001417E+00
   0.9958733998100820E+00
   0.9958300540543371E+00
   0.9957780871927780E+00
   0.9960485259028791E+00
   0.9963314276243063E+00
   0.9970850820005377E+00
   0.9979498430416346E+00
   0.9966819555246029E+00
   0.9966176291279275E+00
   0.9964185549019636E+00
   0.9963222004824515E+00
   0.9962489393560177E+00
   0.9962989145592902E+00
   0.9963621639557323E+00
   0.9966813034696776E+00
   0.9970948020075652E+00
   0.9977300253267122E+00
   0.9986554407384134E+00
   0.9974356108226926E+00
   0.9971366376762951E+00
   0.9967701892895281E+00
   0.9965238540394250E+00
   0.9963438239904263E+00
   0.9963204683128865E+00
   0.9963859502684838E+00
   0.9967037946659912E+00
   0.9972544434984733E+00
   0.9980605544786905E+00
   0.9991372457512563E+00
   0.9985110411348448E+00
   0.9975824960006534E+00
   0.9969132702529884E+00
   0.9964831352601117E+00
   0.9962235421400999E+00
   0.9962499581724730E+00
   0.9964174373490606E+00
   0.9968923928568054E+00
   0.9976885120315626E+00
   0.9986049058911637E+00
   0.9996185906586313E+00
   0.9180480870950124E+00
   0.9061334884716294E+00
   0.9416223801787381E+00
   0.9717811564673303E+00
   0.9705921204758324E+00
   0.9665248142941780E+00
   0.9686012890939713E+00
   0.9705150027389262E+00
   0.9550379207754615E+00
   0.8370912508193920E+00
   0.4030746827978884E+00
   0.9944500636811344E+00
   0.9833614607149678E+00
   0.9867987416229991E+00
   0.9854081385626277E+00
   0.9838793481285513E+00
   0.9830441338513922E+00
   0.9825012496813664E+00
   0.9804388501518863E+00
   0.9780971638041049E+00
   0.9705671202530342E+00
   0.9943552571755961E+00
   0.1005290492354041E+01
   0.9911491292452641E+00
   0.9926975918759949E+00
   0.9963700085883213E+00
   0.9959228830620350E+00
   0.9937256583567567E+00
   0.9917926643884331E+00
   0.9901629420600084E+00
   0.9846146738440777E+00
   0.9828089547965433E+00
   0.9581215777046026E+00
   0.9953468965310744E+00
   0.9954928819056762E+00
   0.9959541329623917E+00
   0.9953280399315877E+00
   0.9951861807824620E+00
   0.9951111128336427E+00
   0.9948222428567127E+00
   0.9947506107821142E+00
   0.9941488007738402E+00
   0.9969484595142216E+00
   0.9971181101991359E+00
   0.9966530836519620E+00
   0.9951152324408292E+00
   0.9939089294681130E+00
   0.9940895862701139E+00
   0.9946012697196305E+00
   0.9949181146914174E+00
   0.9951244912491974E+00
   0.9957513357400177E+00
   0.9956412272798250E+00
   0.9983208923098252E+00
   0.9986953893539311E+00
   0.9954429522714933E+00
   0.9951259199708128E+00
   0.9952016047016510E+00
   0.9950290617254928E+00
   0.9946274726509720E+00
   0.9943513100018954E+00
   0.9943037302186015E+00
   0.9949590451918822E+00
   0.9953760705568520E+00
   0.9975244351534818E+00
   0.9987442345559933E+00
   0.9957018645977651E+00
   0.9959553147375257E+00
   0.9959425598155260E+00
   0.9957230653807229E+00
   0.9953975543570819E+00
   0.9951497069759120E+00
   0.9949656745391471E+00
   0.9952837297763042E+00
   0.9955083470972986E+00
   0.9966801208910799E+00
   0.9975877703226708E+00
   0.9960517218709543E+00
   0.9961029663107147E+00
   0.9960138209269762E+00
   0.9959545164693940E+00
   0.9958685379809099E+00
   0.9958302439995582E+00
   0.9957827328808116E+00
   0.9960544255200533E+00
   0.9963415190746390E+00
   0.9971002013844249E+00
   0.9979863118995134E+00
   0.9966808497073555E+00
   0.9966082357725967E+00
   0.9964087543502225E+00
   0.9963135102327372E+00
   0.9962498767535216E+00
   0.9963064719939695E+00
   0.9963780741851502E+00
   0.9967000535066495E+00
   0.9971184115074301E+00
   0.9977589067054075E+00
   0.9987023734196120E+00
   0.9974350994614296E+00
   0.9971294097078240E+00
   0.9967608894398442E+00
   0.9965126515420394E+00
   0.9963353224801577E+00
   0.9963131733827293E+00
   0.9963830244559897E+00
   0.9967037968702704E+00
   0.9972622450449642E+00
   0.9980789163420987E+00
   0.9991815391484267E+00
   0.9985100676824878E+00
   0.9975727385769687E+00
   0.9969058462420168E+00
   0.9964809423777364E+00
   0.9962404108906699E+00
   0.9962807245479667E+00
   0.9964675268311457E+00
   0.9969509789183167E+00
   0.9977541866057651E+00
   0.9986772051563674E+00
   0.9996880421488540E+00
   0.9178249132731614E+00
   0.9062326619349744E+00
   0.9417778402557572E+00
   0.9719278208737491E+00
   0.9708120969958585E+00
   0.9667611900528174E+00
   0.9689339166062185E+00
   0.9708821831276350E+00
   0.9555408727224457E+00
   0.8377388495763971E+00
   0.4038049920126607E+00
   0.9944139932552299E+00
   0.9834383836021698E+00
   0.9868220806789549E+00
   0.9854246410866508E+00
   0.9839110872350981E+00
   0.9830824371905907E+00
   0.9825817623761454E+00
   0.9805779907977682E+00
   0.9783590904545112E+00
   0.9710145075113227E+00
   0.9948460287127762E+00
   0.1005287092567469E+01
   0.9911599199030791E+00
   0.9926937574492186E+00
   0.9963672366353021E+00
   0.9959191914742545E+00
   0.9937238664582347E+00
   0.9918164314695044E+00
   0.9902303753550005E+00
   0.9847543162547007E+00
   0.9830554643775170E+00
   0.9584307518656842E+00
   0.9953503328313601E+00
   0.9955157904327668E+00
   0.9959692259399137E+00
   0.9953347480194229E+00
   0.9951878731901523E+00
   0.9951059867131894E+00
   0.9948199342249630E+00
   0.9947653692757267E+00
   0.9942038763862983E+00
   0.9970721360434869E+00
   0.9972856121052621E+00
   0.9966515690847986E+00
   0.9951289166561716E+00
   0.9939206569113198E+00
   0.9940969757599221E+00
   0.9946014037424541E+00
   0.9949121516229269E+00
   0.9951168359078167E+00
   0.9957542335165444E+00
   0.9956633542773408E+00
   0.9983764725278150E+00
   0.9987676648998127E+00
   0.9954424336515827E+00
   0.9951378421351920E+00
   0.9952144008134276E+00
   0.9950381359969432E+00
   0.9946286868506378E+00
   0.9943466014638258E+00
   0.9942944291533011E+00
   0.9949522115262094E+00
   0.9953747926806303E+00
   0.9975347927775873E+00
   0.9987541529931627E+00
   0.9957014989366477E+00
   0.9959672736225514E+00
   0.9959565788760039E+00
   0.9957345707896409E+00
   0.9953985219346008E+00
   0.9951429960169379E+00
   0.9949513282909008E+00
   0.9952690819622567E+00
   0.9954931370174542E+00
   0.9966666694005001E+00
   0.9975629243624484E+00
   0.9960520305749553E+00
   0.9961130755925535E+00
   0.9960254992769820E+00
   0.9959650994650008E+00
   0.9958721847711155E+00
   0.9958288337433672E+00
   0.9957770619049701E+00
   0.9960475587107521E+00
   0.9963308089935722E+00
   0.9970843278539215E+00
   0.9979490063308125E+00
   0.9966817413919506E+00
   0.9966176777269339E+00
   0.9964187186251666E+00
   0.9963220666688402E+00
   0.9962484282113293E+00
   0.9962982300244481E+00
   0.9963615085312173E+00
   0.9966806302605679E+00
   0.9970943381592695E+00
   0.9977296427737767E+00
   0.9986550248499974E+00
   0.9974355261351755E+00
   0.9971366555840837E+00
   0.9967703928976925E+00
   0.9965239346754114E+00
   0.9963436222520532E+00
   0.9963200398062222E+00
   0.9963854610820839E+00
   0.9967032527052353E+00
   0.9972540387500287E+00
   0.9980602785064631E+00
   0.9991370725069907E+00
   0.9985110096319364E+00
   0.9975823333543388E+00
   0.9969132130029145E+00
   0.9964831849727935E+00
   0.9962235345544836E+00
   0.9962498549217088E+00
   0.9964172572158873E+00
   0.9968921499088694E+00
   0.9976881953938795E+00
   0.9986047035831306E+00
   0.9996183729941418E+00
   0.9178482302569753E+00
   0.9061799248509967E+00
   0.9416940043150606E+00
   0.9718074907985707E+00
   0.9706052171233543E+00
   0.9665298014247755E+00
   0.9686002357330611E+00
   0.9705186721750487E+00
   0.9551022024924211E+00
   0.8372854931420932E+00
   0.4033425050986376E+00
   0.9944190589892633E+00
   0.9834242348775628E+00
   0.9868336347129671E+00
   0.9854174823179400E+00
   0.9838906704514069E+00
   0.9830456587411701E+00
   0.9825028282196272E+00
   0.9804337852554847E+00
   0.9781067894448239E+00
   0.9706304337501669E+00
   0.9944003224811085E+00
   0.1005272672016062E+01
   0.9911600401137498E+00
   0.9926998927180491E+00
   0.9963714990954952E+00
   0.9959225347182712E+00
   0.9937221992450151E+00
   0.9917924049648233E+00
   0.9901652198054577E+00
   0.9846298227860915E+00
   0.9828430353981740E+00
   0.9581603746707084E+00
   0.9953450135804918E+00
   0.9955045710155330E+00
   0.9959656787211044E+00
   0.9953331581370002E+00
   0.9951912911227481E+00
   0.9951130017164300E+00
   0.9948225185192943E+00
   0.9947485697576390E+00
   0.9941493676439782E+00
   0.9969597941850046E+00
   0.9971364281495659E+00
   0.9966501048123674E+00
   0.9951180184404400E+00
   0.9939105451255132E+00
   0.9940901376848450E+00
   0.9946021068270188E+00
   0.9949178007822023E+00
   0.9951247065395117E+00
   0.9957520476873628E+00
   0.9956439225676820E+00
   0.9983272142638697E+00
   0.9987015548013759E+00
   0.9954424273379284E+00
   0.9951280294252756E+00
   0.9952043380570625E+00
   0.9950303683941478E+00
   0.9946277406109681E+00
   0.9943506495254004E+00
   0.9943032448459386E+00
   0.9949587222678863E+00
   0.9953764634012729E+00
   0.9975258780259922E+00
   0.9987448273559044E+00
   0.9957017286013439E+00
   0.9959563047292612E+00
   0.9959443896775573E+00
   0.9957245188994291E+00
   0.9953982189572385E+00
   0.9951494581971989E+00
   0.9949651919432554E+00
   0.9952831443613585E+00
   0.9955082648354622E+00
   0.9966805726372577E+00
   0.9975876892239061E+00
   0.9960517995735084E+00
   0.9961032117543208E+00
   0.9960148022365628E+00
   0.9959556420503900E+00
   0.9958693106927505E+00
   0.9958303834798773E+00
   0.9957825698089033E+00
   0.9960539475645915E+00
   0.9963411818456351E+00
   0.9971000522504221E+00
   0.9979862150024179E+00
   0.9966810132712793E+00
   0.9966082692455943E+00
   0.9964092746522428E+00
   0.9963143502820547E+00
   0.9962507125893019E+00
   0.9963069946085299E+00
   0.9963783754626924E+00
   0.9967000349907214E+00
   0.9971183366950341E+00
   0.9977588842512227E+00
   0.9987025254386679E+00
   0.9974352290516836E+00
   0.9971294205733250E+00
   0.9967612210610781E+00
   0.9965132540285127E+00
   0.9963359956386773E+00
   0.9963136427744592E+00
   0.9963832980057479E+00
   0.9967037898302664E+00
   0.9972621581395461E+00
   0.9980788793929927E+00
   0.9991818003091688E+00
   0.9985102592908087E+00
   0.9975726716255686E+00
   0.9969056992368225E+00
   0.9964810095351684E+00
   0.9962407839889821E+00
   0.9962813107776072E+00
   0.9964682058528064E+00
   0.9969516319681239E+00
   0.9977546465164434E+00
   0.9986776421204820E+00
   0.9996884417596690E+00
   0.9178180950788574E+00
   0.9062672213960665E+00
   0.9418120104224862E+00
   0.9719366363664150E+00
   0.9708162029786778E+00
   0.9667650935431367E+00
   0.9689369725870757E+00
   0.9708861558384324E+00
   0.9555613901129660E+00
   0.8377927696646817E+00
   0.4038450538752331E+00
   0.9944170520109795E+00
   0.9834295351315734E+00
   0.9868446537303973E+00
   0.9854265857347312E+00
   0.9839189700486680E+00
   0.9830879506294615E+00
   0.9825830751135159E+00
   0.9805660657579885E+00
   0.9783200082576645E+00
   0.9709829961784804E+00
   0.9948639446055791E+00
   0.1005270890018584E+01
   0.9911628802039705E+00
   0.9927028573460553E+00
   0.9963682433397733E+00
   0.9959222612830333E+00
   0.9937258257344140E+00
   0.9918179181813368E+00
   0.9902295966626133E+00
   0.9847536894984523E+00
   0.9830649595763313E+00
   0.9584540783011161E+00
   0.9953457467982365E+00
   0.9955106915086530E+00
   0.9959727762275650E+00
   0.9953336161207591E+00
   0.9951872966276325E+00
   0.9951042898456748E+00
   0.9948174173911301E+00
   0.9947606790556085E+00
   0.9941949000992684E+00
   0.9970648750523584E+00
   0.9972875690127222E+00
   0.9966494814765472E+00
   0.9951264445854365E+00
   0.9939202821370691E+00
   0.9940958521706702E+00
   0.9946011663987526E+00
   0.9949112483748388E+00
   0.9951156827633099E+00
   0.9957525830551506E+00
   0.9956606098152492E+00
   0.9983738009297922E+00
   0.9987670501635687E+00
   0.9954415912963217E+00
   0.9951361062586286E+00
   0.9952137449120362E+00
   0.9950372647915009E+00
   0.9946280933166354E+00
   0.9943455558259305E+00
   0.9942931083670292E+00
   0.9949504322148627E+00
   0.9953722516134983E+00
   0.9975316212238041E+00
   0.9987516640706547E+00
   0.9957012833037502E+00
   0.9959665635163468E+00
   0.9959560052536744E+00
   0.9957339893644269E+00
   0.9953982370938793E+00
   0.9951425432366211E+00
   0.9949506870227167E+00
   0.9952680789527956E+00
   0.9954917968519956E+00
   0.9966648731352834E+00
   0.9975614310156452E+00
   0.9960520029503716E+00
   0.9961126796690348E+00
   0.9960249896058877E+00
   0.9959645802297582E+00
   0.9958719289371234E+00
   0.9958286125853619E+00
   0.9957768433826899E+00
   0.9960470913580424E+00
   0.9963301664497141E+00
   0.9970833670992906E+00
   0.9979483926049233E+00
   0.9966817635873624E+00
   0.9966175118584567E+00
   0.9964183906389280E+00
   0.9963216921973046E+00
   0.9962482479314456E+00
   0.9962982025200690E+00
   0.9963616035762822E+00
   0.9966806471560461E+00
   0.9970942490764775E+00
   0.9977294019917006E+00
   0.9986549563905879E+00
   0.9974355331055381E+00
   0.9971365857357737E+00
   0.9967702293695893E+00
   0.9965237375081163E+00
   0.9963435486880340E+00
   0.9963200680491802E+00
   0.9963855863357851E+00
   0.9967033278501594E+00
   0.9972540696201719E+00
   0.9980602877791120E+00
   0.9991372014996804E+00
   0.9985110666777871E+00
   0.9975823977474018E+00
   0.9969130149103581E+00
   0.9964827178978154E+00
   0.9962229884564070E+00
   0.9962494946613304E+00
   0.9964171713646092E+00
   0.9968923891587061E+00
   0.9976885291669233E+00
   0.9986051012102601E+00
   0.9996187476547879E+00
   0.9178481892932125E+00
   0.9061880182802343E+00
   0.9417037725187500E+00
   0.9718117936778364E+00
   0.9706086815319442E+00
   0.9665331924983072E+00
   0.9686037909478501E+00
   0.9705227496116717E+00
   0.9551106939066154E+00
   0.8373026789721921E+00
   0.4033557053307503E+00
   0.9944174597468534E+00
   0.9834226316842704E+00
   0.9868356703037851E+00
   0.9854190584480206E+00
   0.9838973737239644E+00
   0.9830507266695886E+00
   0.9825063410230604E+00
   0.9804346781494401E+00
   0.9781027313995936E+00
   0.9706282840537086E+00
   0.9944121923840635E+00
   0.1005267485039683E+01
   0.9911591815989397E+00
   0.9926990029971089E+00
   0.9963709197558653E+00
   0.9959241310453613E+00
   0.9937231586389180E+00
   0.9917939996828015E+00
   0.9901676252547263E+00
   0.9846342521869731E+00
   0.9828509861348657E+00
   0.9581708768124791E+00
   0.9953447161226130E+00
   0.9955049762623237E+00
   0.9959665586964609E+00
   0.9953326228842554E+00
   0.9951915928854846E+00
   0.9951126344374472E+00
   0.9948219958705075E+00
   0.9947479470919450E+00
   0.9941486058352837E+00
   0.9969599484573671E+00
   0.9971385163462212E+00
   0.9966496204730786E+00
   0.9951185968563772E+00
   0.9939104962714570E+00
   0.9940895151257478E+00
   0.9946022079695070E+00
   0.9949175907269922E+00
   0.9951244529325367E+00
   0.9957518938124885E+00
   0.9956441421370971E+00
   0.9983278375005225E+00
   0.9987021747615581E+00
   0.9954421291238982E+00
   0.9951283934480889E+00
   0.9952045386506679E+00
   0.9950300503723746E+00
   0.9946275610336742E+00
   0.9943502616407933E+00
   0.9943027933907808E+00
   0.9949581970252694E+00
   0.9953759809850233E+00
   0.9975253212599524E+00
   0.9987442536241248E+00
   0.9957016333605414E+00
   0.9959567053241200E+00
   0.9959446813905558E+00
   0.9957244544009288E+00
   0.9953981702696389E+00
   0.9951493114756339E+00
   0.9949650380352658E+00
   0.9952829087273712E+00
   0.9955080822588837E+00
   0.9966803022778812E+00
   0.9975874383764826E+00
   0.9960517786808416E+00
   0.9961034360883798E+00
   0.9960149831937348E+00
   0.9959555934471276E+00
   0.9958692327719217E+00
   0.9958302705349609E+00
   0.9957825259620126E+00
   0.9960538646696143E+00
   0.9963411652774796E+00
   0.9970999686461477E+00
   0.9979862595667439E+00
   0.9966810213836063E+00
   0.9966084326271745E+00
   0.9964094289359829E+00
   0.9963143477407738E+00
   0.9962506568885667E+00
   0.9963069337726627E+00
   0.9963784253182099E+00
   0.9967001278891739E+00
   0.9971185018555448E+00
   0.9977590531676821E+00
   0.9987027081247698E+00
   0.9974352362926447E+00
   0.9971295183051077E+00
   0.9967613328226596E+00
   0.9965132811572363E+00
   0.9963359850008738E+00
   0.9963136177519317E+00
   0.9963833487218891E+00
   0.9967038677594910E+00
   0.9972623041340650E+00
   0.9980790808955440E+00
   0.9991819744389892E+00
   0.9985102442732544E+00
   0.9975727996398315E+00
   0.9969058571084954E+00
   0.9964810283495313E+00
   0.9962406068450043E+00
   0.9962810513695802E+00
   0.9964680155882598E+00
   0.9969516603989731E+00
   0.9977548454511166E+00
   0.9986780133068773E+00
   0.9996887756698586E+00
   0.9178180950617737E+00
   0.9062672208318732E+00
   0.9418120104296084E+00
   0.9719366368654567E+00
   0.9708162032658668E+00
   0.9667650936358884E+00
   0.9689369726098032E+00
   0.9708861558595769E+00
   0.9555613899751133E+00
   0.8377927694014984E+00
   0.4038450539048776E+00
   0.9944170520493691E+00
   0.9834295351244876E+00
   0.9868446537085015E+00
   0.9854265856246939E+00
   0.9839189699599136E+00
   0.9830879505369786E+00
   0.9825830751052822E+00
   0.9805660657298282E+00
   0.9783200083157322E+00
   0.9709829961997299E+00
   0.9948639447522295E+00
   0.1005270890194381E+01
   0.9911628802967186E+00
   0.9927028573729819E+00
   0.9963682433426626E+00
   0.9959222613386860E+00
   0.9937258257616279E+00
   0.9918179182436250E+00
   0.9902295967154261E+00
   0.9847536896209765E+00
   0.9830649597444746E+00
   0.9584540785176906E+00
   0.9953457468629301E+00
   0.9955106916513087E+00
   0.9959727763645353E+00
   0.9953336162001820E+00
   0.9951872966851307E+00
   0.9951042898516731E+00
   0.9948174174061039E+00
   0.9947606790578676E+00