# vtk DataFile Version 2.0
FUN3D:global_image_vtk
ASCII
DATASET UNSTRUCTURED_GRID
POINTS 1331 double
    0.0000000000000000E+00    0.2500000000000000E+01    0.0000000000000000E+00
    0.5000000000000000E+00    0.2500000000000000E+01    0.0000000000000000E+00
    0.1000000000000000E+01    0.2500000000000000E+01    0.0000000000000000E+00
    0.1500000000000000E+01    0.2500000000000000E+01    0.0000000000000000E+00
    0.2000000000000000E+01    0.2500000000000000E+01    0.0000000000000000E+00
    0.2500000000000000E+01    0.2500000000000000E+01    0.0000000000000000E+00
    0.3000000000000000E+01    0.2500000000000000E+01    0.0000000000000000E+00
    0.3500000000000000E+01    0.2500000000000000E+01    0.0000000000000000E+00
    0.4000000000000000E+01    0.2500000000000000E+01    0.0000000000000000E+00
    0.4500000000000000E+01    0.2500000000000000E+01    0.0000000000000000E+00
    0.5000000000000000E+01    0.2500000000000000E+01    0.0000000000000000E+00
    0.0000000000000000E+00    0.2500000000000000E+01    0.4999999999999982E+00
    0.4999999999999998E+00    0.2500000000000000E+01    0.4999999999999984E+00
    0.9999999999999998E+00    0.2500000000000000E+01    0.4999999999999987E+00
    0.1500000000000000E+01    0.2500000000000000E+01    0.4999999999999989E+00
    0.2000000000000000E+01    0.2500000000000000E+01    0.4999999999999991E+00
    0.2500000000000000E+01    0.2500000000000000E+01    0.4999999999999993E+00
    0.3000000000000000E+01    0.2500000000000000E+01    0.4999999999999996E+00
    0.3500000000000000E+01    0.2500000000000000E+01    0.4999999999999998E+00
    0.4000000000000000E+01    0.2500000000000000E+01    0.5000000000000000E+00
    0.4500000000000002E+01    0.2500000000000000E+01    0.5000000000000002E+00
    0.5000000000000000E+01    0.2500000000000000E+01    0.5000000000000004E+00
    0.0000000000000000E+00    0.2500000000000000E+01    0.1000000000000001E+01
    0.4999999999999997E+00    0.2500000000000000E+01    0.1000000000000001E+01
    0.1000000000000000E+01    0.2500000000000000E+01    0.1000000000000001E+01
    0.1500000000000000E+01    0.2500000000000000E+01    0.1000000000000001E+01
    0.2000000000000000E+01    0.2500000000000000E+01    0.1000000000000001E+01
    0.2500000000000000E+01    0.2500000000000000E+01    0.1000000000000001E+01
    0.3000000000000000E+01    0.2500000000000000E+01    0.1000000000000001E+01
    0.3500000000000000E+01    0.2500000000000000E+01    0.1000000000000001E+01
    0.4000000000000000E+01    0.2500000000000000E+01    0.1000000000000001E+01
    0.4499999999999999E+01    0.2500000000000000E+01    0.1000000000000001E+01
    0.5000000000000000E+01    0.2500000000000000E+01    0.1000000000000001E+01
    0.0000000000000000E+00    0.2500000000000000E+01    0.1499999999999999E+01
    0.4999999999999994E+00    0.2500000000000000E+01    0.1499999999999999E+01
    0.1000000000000000E+01    0.2500000000000000E+01    0.1499999999999999E+01
    0.1500000000000000E+01    0.2500000000000000E+01    0.1499999999999999E+01
    0.2000000000000001E+01    0.2500000000000000E+01    0.1499999999999999E+01
    0.2500000000000000E+01    0.2500000000000000E+01    0.1499999999999999E+01
    0.2999999999999999E+01    0.2500000000000000E+01    0.1499999999999999E+01
    0.3500000000000000E+01    0.2500000000000000E+01    0.1499999999999999E+01
    0.4000000000000001E+01    0.2500000000000000E+01    0.1499999999999999E+01
    0.4500000000000001E+01    0.2500000000000000E+01    0.1499999999999999E+01
    0.5000000000000000E+01    0.2500000000000000E+01    0.1499999999999999E+01
    0.0000000000000000E+00    0.2500000000000000E+01    0.2000000000000002E+01
    0.4999999999999992E+00    0.2500000000000000E+01    0.2000000000000001E+01
    0.1000000000000000E+01    0.2500000000000000E+01    0.2000000000000001E+01
    0.1500000000000000E+01    0.2500000000000000E+01    0.2000000000000001E+01
    0.2000000000000001E+01    0.2500000000000000E+01    0.2000000000000001E+01
    0.2500000000000000E+01    0.2500000000000000E+01    0.2000000000000001E+01
    0.2999999999999999E+01    0.2500000000000000E+01    0.2000000000000000E+01
    0.3500000000000000E+01    0.2500000000000000E+01    0.2000000000000000E+01
    0.4000000000000000E+01    0.2500000000000000E+01    0.2000000000000000E+01
    0.4500000000000000E+01    0.2500000000000000E+01    0.2000000000000000E+01
    0.5000000000000000E+01    0.2500000000000000E+01    0.2000000000000000E+01
    0.0000000000000000E+00    0.2500000000000000E+01    0.2500000000000000E+01
    0.4999999999999991E+00    0.2500000000000000E+01    0.2500000000000000E+01
    0.1000000000000000E+01    0.2500000000000000E+01    0.2500000000000000E+01
    0.1500000000000000E+01    0.2500000000000000E+01    0.2500000000000000E+01
    0.2000000000000001E+01    0.2500000000000000E+01    0.2500000000000000E+01
    0.2500000000000000E+01    0.2500000000000000E+01    0.2500000000000000E+01
    0.2999999999999999E+01    0.2500000000000000E+01    0.2500000000000000E+01
    0.3500000000000001E+01    0.2500000000000000E+01    0.2500000000000000E+01
    0.4000000000000000E+01    0.2500000000000000E+01    0.2500000000000000E+01
    0.4500000000000001E+01    0.2500000000000000E+01    0.2500000000000000E+01
    0.5000000000000000E+01    0.2500000000000000E+01    0.2500000000000000E+01
    0.0000000000000000E+00    0.2500000000000000E+01    0.2999999999999998E+01
    0.4999999999999989E+00    0.2500000000000000E+01    0.2999999999999998E+01
    0.1000000000000000E+01    0.2500000000000000E+01    0.2999999999999999E+01
    0.1499999999999999E+01    0.2500000000000000E+01    0.2999999999999999E+01
    0.2000000000000001E+01    0.2500000000000000E+01    0.2999999999999999E+01
    0.2500000000000000E+01    0.2500000000000000E+01    0.2999999999999999E+01
    0.2999999999999999E+01    0.2500000000000000E+01    0.2999999999999999E+01
    0.3500000000000001E+01    0.2500000000000000E+01    0.3000000000000000E+01
    0.4000000000000000E+01    0.2500000000000000E+01    0.3000000000000000E+01
    0.4500000000000001E+01    0.2500000000000000E+01    0.3000000000000000E+01
    0.5000000000000000E+01    0.2500000000000000E+01    0.3000000000000000E+01
    0.0000000000000000E+00    0.2500000000000000E+01    0.3500000000000001E+01
    0.4999999999999988E+00    0.2500000000000000E+01    0.3500000000000001E+01
    0.1000000000000001E+01    0.2500000000000000E+01    0.3500000000000001E+01
    0.1499999999999999E+01    0.2500000000000000E+01    0.3500000000000001E+01
    0.2000000000000001E+01    0.2500000000000000E+01    0.3500000000000001E+01
    0.2500000000000000E+01    0.2500000000000000E+01    0.3500000000000001E+01
    0.2999999999999999E+01    0.2500000000000000E+01    0.3500000000000001E+01
    0.3500000000000001E+01    0.2500000000000000E+01    0.3500000000000001E+01
    0.4000000000000001E+01    0.2500000000000000E+01    0.3500000000000001E+01
    0.4500000000000001E+01    0.2500000000000000E+01    0.3500000000000001E+01
    0.5000000000000000E+01    0.2500000000000000E+01    0.3500000000000001E+01
    0.0000000000000000E+00    0.2500000000000000E+01    0.3999999999999999E+01
    0.4999999999999986E+00    0.2500000000000000E+01    0.4000000000000000E+01
    0.1000000000000001E+01    0.2500000000000000E+01    0.3999999999999999E+01
    0.1499999999999999E+01    0.2500000000000000E+01    0.3999999999999999E+01
    0.2000000000000001E+01    0.2500000000000000E+01    0.3999999999999999E+01
    0.2500000000000000E+01    0.2500000000000000E+01    0.3999999999999999E+01
    0.2999999999999998E+01    0.2500000000000000E+01    0.3999999999999999E+01
    0.3500000000000001E+01    0.2500000000000000E+01    0.3999999999999999E+01
    0.3999999999999999E+01    0.2500000000000000E+01    0.3999999999999999E+01
    0.4500000000000003E+01    0.2500000000000000E+01    0.3999999999999999E+01
    0.5000000000000000E+01    0.2500000000000000E+01    0.3999999999999999E+01
    0.0000000000000000E+00    0.2500000000000000E+01    0.4500000000000002E+01
    0.4999999999999984E+00    0.2500000000000000E+01    0.4500000000000002E+01
    0.1000000000000001E+01    0.2500000000000000E+01    0.4500000000000001E+01
    0.1499999999999999E+01    0.2500000000000000E+01    0.4500000000000003E+01
    0.2000000000000002E+01    0.2500000000000000E+01    0.4500000000000001E+01
    0.2500000000000000E+01    0.2500000000000000E+01    0.4500000000000001E+01
    0.2999999999999998E+01    0.2500000000000000E+01    0.4500000000000001E+01
    0.3500000000000001E+01    0.2500000000000000E+01    0.4499999999999999E+01
    0.3999999999999999E+01    0.2500000000000000E+01    0.4499999999999999E+01
    0.4500000000000002E+01    0.2500000000000000E+01    0.4500000000000000E+01
    0.5000000000000000E+01    0.2500000000000000E+01    0.4500000000000000E+01
    0.0000000000000000E+00    0.2500000000000000E+01    0.5000000000000000E+01
    0.4999999999999982E+00    0.2500000000000000E+01    0.5000000000000000E+01
    0.1000000000000001E+01    0.2500000000000000E+01    0.5000000000000000E+01
    0.1499999999999999E+01    0.2500000000000000E+01    0.5000000000000000E+01
    0.2000000000000002E+01    0.2500000000000000E+01    0.5000000000000000E+01
    0.2500000000000000E+01    0.2500000000000000E+01    0.5000000000000000E+01
    0.2999999999999998E+01    0.2500000000000000E+01    0.5000000000000000E+01
    0.3500000000000001E+01    0.2500000000000000E+01    0.5000000000000000E+01
    0.3999999999999999E+01    0.2500000000000000E+01    0.5000000000000000E+01
    0.4500000000000002E+01    0.2500000000000000E+01    0.5000000000000000E+01
    0.5000000000000000E+01    0.2500000000000000E+01    0.5000000000000000E+01
    0.0000000000000000E+00    0.2000000000000000E+01    0.0000000000000000E+00
    0.5000000000000000E+00    0.2000000000000000E+01    0.0000000000000000E+00
    0.1000000000000000E+01    0.2000000000000000E+01    0.0000000000000000E+00
    0.1500000000000000E+01    0.2000000000000000E+01    0.0000000000000000E+00
[...]
POINT_DATA 1331
SCALARS rho double 1
LOOKUP_TABLE default
   0.8219055746305016E+00
   0.9402483515225376E+00
   0.9569299896497944E+00
   0.9674339549994792E+00
   0.9725777154462324E+00
   0.9742582801023399E+00
   0.9757846560946684E+00
   0.9762293971716068E+00
   0.9631295270134088E+00
   0.8532949833466822E+00
   0.3950418860249832E+00
   0.9952003490193015E+00
   0.9949834836583638E+00
   0.9948041264308116E+00
   0.9943992386220658E+00
   0.9939931963620949E+00
   0.9929176971088520E+00
   0.9923768771864951E+00
   0.9889187282966381E+00
   0.9890556272321706E+00
   0.9798323855799227E+00
   0.1006018683134256E+01
   0.9953761915464030E+00
   0.9952710621796980E+00
   0.9951230403441438E+00
   0.9949337536416091E+00
   0.9945745328016043E+00
   0.9941924949132457E+00
   0.9931526990917885E+00
   0.9924015348213115E+00
   0.9866814301829001E+00
   0.9856519130651089E+00
   0.9607021840117427E+00
   0.9954330944896131E+00
   0.9953981461473745E+00
   0.9952408767149794E+00
   0.9950179339514426E+00
   0.9946922778678576E+00
   0.9943234830423551E+00
   0.9938043639283833E+00
   0.9938054295564868E+00
   0.9934356036285212E+00
   0.9962802697039559E+00
   0.9948708405367076E+00
   0.9956407151227388E+00
   0.9956292126895201E+00
   0.9955033459081638E+00
   0.9953502790329074E+00
   0.9950869715601707E+00
   0.9948906845685822E+00
   0.9943583203510100E+00
   0.9944399697508995E+00
   0.9934755471718079E+00
   0.9955726419768652E+00
   0.9957156048416084E+00
   0.9958992154937938E+00
   0.9958958939641935E+00
   0.9957803562903387E+00
   0.9956591275573364E+00
   0.9954787654700806E+00
   0.9954286636954773E+00
   0.9952814558043497E+00
   0.9957183335132185E+00
   0.9958556712785536E+00
   0.9973128008578019E+00
   0.9980785737071025E+00
   0.9962127138187550E+00
   0.9962100943688006E+00
   0.9960894439155167E+00
   0.9959806617663683E+00
   0.9958254006538415E+00
   0.9958047552602300E+00
   0.9957162250522659E+00
   0.9960729166169910E+00
   0.9963322011080323E+00
   0.9974837776287419E+00
   0.9985316977496300E+00
   0.9965932537980831E+00
   0.9965780703372293E+00
   0.9964272236381749E+00
   0.9963103467778373E+00
   0.9961852511521732E+00
   0.9962039073056592E+00
   0.9962463443819400E+00
   0.9966197861329839E+00
   0.9970340379174211E+00
   0.9979140143173134E+00
   0.9988202492317456E+00
   0.9970582916502146E+00
   0.9969812389909657E+00
   0.9967598248131582E+00
   0.9965946914656310E+00
   0.9964485680774919E+00
   0.9964397382505201E+00
   0.9964968456441661E+00
   0.9968197865112405E+00
   0.9972636999501516E+00
   0.9980533132728701E+00
   0.9989580020953792E+00
   0.9977134121414931E+00
   0.9974520670737024E+00
   0.9970939820731367E+00
   0.9968482357221893E+00
   0.9966655635788502E+00
   0.9966216280657002E+00
   0.9966743832725758E+00
   0.9969506445346699E+00
   0.9973931340172737E+00
   0.9981464572524125E+00
   0.9990677799320651E+00
   0.9985961204476512E+00
   0.9978557423978505E+00
   0.9973627298253737E+00
   0.9970310610946305E+00
   0.9967964166127117E+00
   0.9966889516195758E+00
   0.9966814185780081E+00
   0.9968638741022485E+00
   0.9972396609359662E+00
   0.9979904286212207E+00
   0.9990133386137188E+00
   0.8218478969758141E+00
   0.9402147100389644E+00
   0.9570671113429821E+00
   0.9674667680843830E+00
   0.9724384551678761E+00
   0.9740692256822593E+00
   0.9754753500397844E+00
   0.9758572019038734E+00
   0.9629054687166293E+00
   0.8540925670686847E+00
   0.3977844512453207E+00
   0.9952063367159206E+00
   0.9949924634190718E+00
   0.9948165906009154E+00
   0.9944145801117535E+00
   0.9940129368092027E+00
   0.9929367043277437E+00
   0.9923740937675769E+00
   0.9888154131801380E+00
   0.9887244451505959E+00
   0.9796543103896903E+00
   0.1006198762799585E+01
   0.9953727460039941E+00
   0.9952715967001008E+00
   0.9951247707892085E+00
   0.9949345952909106E+00
   0.9945734902711597E+00
   0.9941860336629118E+00
   0.9931364039572945E+00
   0.9923695257158069E+00
   0.9866451084418052E+00
   0.9856649497496774E+00
   0.9608259245234796E+00
   0.9954333657187109E+00
   0.9953987607569993E+00
   0.9952429375039100E+00
   0.9950209789902560E+00
   0.9946956803674137E+00
   0.9943242843356751E+00
   0.9937963785728434E+00
   0.9937795486824457E+00
   0.9933808208948729E+00
   0.9962279829015457E+00
   0.9948789231939790E+00
   0.9956407175543555E+00
   0.9956294179011584E+00
   0.9955039685622351E+00
   0.9953511086004995E+00
   0.9950875441137234E+00
   0.9948900118249722E+00
   0.9943543114626651E+00
   0.9944315677956067E+00
   0.9934607659668868E+00
   0.9955555050379236E+00
   0.9957156864876751E+00
   0.9958992220857622E+00
   0.9958960829343936E+00
   0.9957809345390671E+00
   0.9956600378790431E+00
   0.9954795695628725E+00
   0.9954286022623255E+00
   0.9952789712800645E+00
   0.9957121893326427E+00
   0.9958463076222375E+00
   0.9973030763988175E+00
   0.9980769507382998E+00
   0.9962125902182855E+00
   0.9962100484408666E+00
   0.9960895635952498E+00
   0.9959809951442323E+00
   0.9958257522859439E+00
   0.9958048267749070E+00
   0.9957153465197578E+00
   0.9960704148525437E+00
   0.9963283973409647E+00
   0.9974796283144171E+00
   0.9985301095685178E+00
   0.9965931374042551E+00
   0.9965780458826440E+00
   0.9964273382765695E+00
   0.9963106144394238E+00
   0.9961854779296776E+00
   0.9962038963217266E+00
   0.9962457657541841E+00
   0.9966183073621171E+00
   0.9970320186086682E+00
   0.9979117801819322E+00
   0.9988190394218434E+00
   0.9970581543025545E+00
   0.9969811300045521E+00
   0.9967597850875598E+00
   0.9965947603658839E+00
   0.9964486729829412E+00
   0.9964397985075161E+00
   0.9964966376739257E+00
   0.9968191065739664E+00
   0.9972626122699445E+00
   0.9980518681799723E+00
   0.9989570227498080E+00
   0.9977132850975818E+00
   0.9974519524192001E+00
   0.9970938997510924E+00
   0.9968482360766387E+00
   0.9966656166692447E+00
   0.9966217161842248E+00
   0.9966743034801682E+00
   0.9969502366880796E+00
   0.9973923404242352E+00
   0.9981452563753661E+00
   0.9990668122758175E+00
   0.9985960341869971E+00
   0.9978556165614839E+00
   0.9973625868719775E+00
   0.9970309467290507E+00
   0.9967963529935007E+00
   0.9966889672077347E+00
   0.9966814288462027E+00
   0.9968638196096016E+00
   0.9972394072979361E+00
   0.9979897625524199E+00
   0.9990125172412279E+00
   0.8218771141716766E+00
   0.9402993750236515E+00
   0.9571964993883526E+00
   0.9675949861770375E+00
   0.9726166753663354E+00
   0.9742552123600472E+00
   0.9757392551093645E+00
   0.9761557423449237E+00
   0.9633163052668001E+00
   0.8544616616958721E+00
   0.3978124520233498E+00
   0.9952064585721343E+00
   0.9949890968883613E+00
   0.9948116299447779E+00
   0.9944083766114334E+00
   0.9940054497567606E+00
   0.9929292239554449E+00
   0.9923731562752562E+00
   0.9888294263987667E+00
   0.9887840318457464E+00
   0.9797355763096315E+00
   0.1006215285993948E+01
   0.9953747568734207E+00
   0.9952715451484634E+00
   0.9951236144577575E+00
   0.9949335484285784E+00
   0.9945732997110162E+00
   0.9941876008179971E+00
   0.9931421176757916E+00
   0.9923813631612217E+00
   0.9866654127064998E+00
   0.9856827627166544E+00
   0.9608205197105723E+00
   0.9954336893573769E+00
   0.9953985885818066E+00
   0.9952417678917710E+00
   0.9950189704362881E+00
   0.9946934548678371E+00
   0.9943230154059887E+00
   0.9937987358924864E+00
   0.9937884026468764E+00
   0.9933998108502676E+00
   0.9962539075702201E+00
   0.9948887632530748E+00
   0.9956408640081382E+00
   0.9956294285014662E+00
   0.9955036190155624E+00
   0.9953504716648984E+00
   0.9950869786911567E+00
   0.9948900950109066E+00
   0.9943563156610061E+00
   0.9944365029074045E+00
   0.9934683051806453E+00
   0.9955649804817797E+00
   0.9957182155932393E+00
   0.9958992950730442E+00
   0.9958959845316511E+00
   0.9957805087191587E+00
   0.9956592723266612E+00
   0.9954787793743738E+00
   0.9954282619987782E+00
   0.9952799834090158E+00
   0.9957156075924017E+00
   0.9958517006899626E+00
   0.9973089932647045E+00
   0.9980781942960050E+00
   0.9962127446410854E+00
   0.9962101242288007E+00
   0.9960894669405834E+00
   0.9959806635965885E+00
   0.9958253334089612E+00
   0.9958045628895275E+00
   0.9957157222681445E+00
   0.9960720154541325E+00
   0.9963309476582817E+00
   0.9974823272429385E+00
   0.9985310031507465E+00
   0.9965932643176501E+00
   0.9965780858261829E+00
   0.9964272364835466E+00
   0.9963103399929086E+00
   0.9961851864288294E+00
   0.9962037396676304E+00
   0.9962460060997137E+00
   0.9966192514842723E+00
   0.9970334308838951E+00
   0.9979134559155328E+00
   0.9988200199645095E+00
   0.9970582903692292E+00
   0.9969812399747888E+00
   0.9967598235631597E+00
   0.9965946829417983E+00
   0.9964485364245043E+00
   0.9964396594435867E+00
   0.9964966910108108E+00
   0.9968195351185705E+00
   0.9972634018628437E+00
   0.9980530380869423E+00
   0.9989579108530593E+00
   0.9977134078481653E+00
   0.9974520655806914E+00
   0.9970939786774409E+00
   0.9968482241496263E+00
   0.9966655362251573E+00
   0.9966215759907423E+00
   0.9966742973323409E+00
   0.9969505185458215E+00
   0.9973929883678282E+00
   0.9981463272395780E+00
   0.9990677787580061E+00
   0.9985961170548119E+00
   0.9978557393108751E+00
   0.9973627275956277E+00
   0.9970310569864368E+00
   0.9967964010246383E+00
   0.9966889124622047E+00
   0.9966813498263966E+00
   0.9968637739913947E+00
   0.9972395529974416E+00
   0.9979903481547662E+00
   0.9990133720646804E+00
   0.8218710797358394E+00
   0.9402282224657201E+00
   0.9571193506772290E+00
   0.9675035465823778E+00
   0.9724483869911748E+00
   0.9740654520362334E+00
   0.9754659878085028E+00
   0.9758658676813176E+00
   0.9630114677619438E+00
   0.8543032489702820E+00
   0.3978221771010356E+00
   0.9952073881641776E+00
   0.9949907875667630E+00
   0.9948139888184148E+00
   0.9944106626306206E+00
   0.9940070220116333E+00
   0.9929267116460446E+00
   0.9923613679149351E+00
   0.9887999455730371E+00
   0.9887277897748546E+00
   0.9796991390773262E+00
   0.1006240849026724E+01
   0.9953743571289374E+00
   0.9952716101876578E+00
   0.9951239711988924E+00
   0.9949335961168989E+00
   0.9945724573535565E+00
   0.9941850219391488E+00
   0.9931369739342719E+00
   0.9923738579444573E+00
   0.9866588046770853E+00
   0.9856856560484298E+00
   0.9608360480165700E+00
   0.9954337859483052E+00
   0.9953990418081022E+00
   0.9952426891314047E+00
   0.9950200034745211E+00
   0.9946938427277247E+00
   0.9943212537700455E+00
   0.9937929383037614E+00
   0.9937773062111485E+00
   0.9933832828373188E+00
   0.9962415007347526E+00
   0.9948923032809113E+00
   0.9956407661842877E+00
   0.9956294059109938E+00
   0.9955037800509384E+00
   0.9953507284531812E+00
   0.9950870278669163E+00
   0.9948893595437934E+00
   0.9943538920226288E+00
   0.9944322754102174E+00
   0.9934624832718545E+00
   0.9955595139059153E+00
   0.9957176256049692E+00
   0.9958992389913068E+00
   0.9958960757585197E+00
   0.9957807890097279E+00
   0.9956596623173823E+00
   0.9954789566346265E+00
   0.9954278334762620E+00
   0.9952782731684588E+00
   0.9957122920568514E+00
   0.9958473360399751E+00
   0.9973051439766729E+00
   0.9980782052127901E+00
   0.9962125707820859E+00
   0.9962100260108325E+00
   0.9960895074926523E+00
   0.9959808756175605E+00
   0.9958255353994160E+00
   0.9958045407423894E+00
   0.9957150555369436E+00
   0.9960704541303272E+00
   0.9963288124717921E+00
   0.9974805420153696E+00
   0.9985311031338880E+00
   0.9965931180125300E+00
   0.9965780142334443E+00
   0.9964272756456904E+00
   0.9963105196233302E+00
   0.9961853503954691E+00
   0.9962037628600429E+00
   0.9962456432199317E+00
   0.9966183486764423E+00
   0.9970322663647774E+00
   0.9979122727284765E+00
   0.9988194403298291E+00
   0.9970581473542411E+00
   0.9969811132213614E+00
   0.9967597467846020E+00
   0.9965947000382557E+00
   0.9964485961328459E+00
   0.9964397340382404E+00
   0.9964965998944590E+00
   0.9968191471698973E+00
   0.9972627358902261E+00
   0.9980520529323550E+00
   0.9989570650956200E+00
   0.9977132807189750E+00
   0.9974519415358621E+00
   0.9970938779188013E+00
   0.9968482036929265E+00
   0.9966655722604240E+00
   0.9966216720640546E+00
   0.9966742743058680E+00
   0.9969502540270232E+00
   0.9973924169255806E+00
   0.9981453611169394E+00
   0.9990668307731996E+00
   0.9985960311229245E+00
   0.9978556119971063E+00
   0.9973625740346216E+00
   0.9970309202939583E+00
   0.9967963121848598E+00
   0.9966889261418872E+00
   0.9966814080643348E+00
   0.9968638364135143E+00
   0.9972394503976391E+00
   0.9979898031075805E+00
   0.9990125215051241E+00
   0.8218680580611337E+00
   0.9403040464081912E+00
   0.9572091620208043E+00
   0.9676037230798735E+00
   0.9726183430752791E+00
   0.9742513611680131E+00
   0.9757326415084469E+00
   0.9761532479428892E+00
   0.9633377031198789E+00
   0.8545086136675178E+00
   0.3978361060125945E+00
   0.9952074498125044E+00
   0.9949907466331361E+00
   0.9948136983788249E+00
   0.9944101737342368E+00
   0.9940068891032345E+00
   0.9929271464337580E+00
   0.9923632666272575E+00
   0.9888037994025380E+00
   0.9887315383969383E+00
   0.9797000337066267E+00
   0.1006242335825293E+01
   0.9953743001042538E+00
   0.9952715322499158E+00
   0.9951237340770664E+00
   0.9949331505364692E+00
   0.9945720131743605E+00
   0.9941847242701813E+00
   0.9931373622718228E+00
   0.9923754998080896E+00
   0.9866615560566875E+00
   0.9856890815994036E+00
   0.9608391840484142E+00
   0.9954338505631800E+00
   0.9953987720153279E+00
   0.9952421221223023E+00
   0.9950192485211258E+00
   0.9946932888350756E+00
   0.9943212230024718E+00
   0.9937935882339770E+00
   0.9937790251863268E+00
   0.9933852603644751E+00
   0.9962433462309911E+00
   0.9948929093694485E+00
   0.9956409248353814E+00
   0.9956294357690384E+00
   0.9955035923717211E+00
   0.9953502972856555E+00
   0.9950865510668946E+00
   0.9948891918517494E+00
   0.9943544501005138E+00
   0.9944338341283011E+00
   0.9934647455058558E+00
   0.9955614456617409E+00
   0.9957182158881260E+00
   0.9958993488525431E+00
   0.9958960285681621E+00
   0.9957805417660215E+00
   0.9956592228331995E+00
   0.9954785012771475E+00
   0.9954275215627121E+00
   0.9952783911584185E+00
   0.9957131310147699E+00
   0.9958487609176599E+00
   0.9973069177399106E+00
   0.9980792345554337E+00
   0.9962127519506503E+00
   0.9962101221321883E+00
   0.9960894372300828E+00
   0.9959805858421306E+00
   0.9958251691832396E+00
   0.9958042445289718E+00
   0.9957151018906473E+00
   0.9960710094418378E+00
   0.9963296519937758E+00
   0.9974812012956150E+00
   0.9985308548060841E+00
   0.9965932689042508E+00
   0.9965780887687253E+00
   0.9964272186696058E+00
   0.9963102762789262E+00
   0.9961850424655502E+00
   0.9962034833738038E+00
   0.9962455938386321E+00
   0.9966186634973304E+00
   0.9970327308830268E+00
   0.9979127983373453E+00
   0.9988197369036922E+00
   0.9970582851822464E+00
   0.9969812379724374E+00
   0.9967598121830619E+00
   0.9965946463839781E+00
   0.9964484524644616E+00
   0.9964395102572354E+00
   0.9964964678409985E+00
   0.9968192322712618E+00
   0.9972630407408418E+00
   0.9980526693238920E+00
   0.9989577535469838E+00
   0.9977133999052682E+00
   0.9974520626038943E+00
   0.9970939698884289E+00
   0.9968481968575087E+00
   0.9966654790979580E+00
   0.9966214794639597E+00
   0.9966741593132290E+00
   0.9969503366196147E+00
   0.9973927639324903E+00
   0.9981460926352157E+00
   0.9990677097784773E+00
   0.9985961101621025E+00
   0.9978557331861578E+00
   0.9973627224368445E+00
   0.9970310464818045E+00
   0.9967963699569689E+00
   0.9966888406776004E+00
   0.9966812295115282E+00
   0.9968636212973827E+00
   0.9972393972359630E+00
   0.9979902018638381E+00
   0.9990133586530433E+00
   0.8218730423182159E+00
   0.9402298313263162E+00
   0.9571216680944480E+00
   0.9675049460258103E+00
   0.9724482388740771E+00
   0.9740641814526125E+00
   0.9754648140274308E+00
   0.9758664960109491E+00
   0.9630169791032883E+00
   0.8543136092437389E+00
   0.3978284922501549E+00
   0.9952077431726983E+00
   0.9949908442771469E+00
   0.9948138511396629E+00
   0.9944101964361656E+00
   0.9940063018081394E+00
   0.9929253466552569E+00
   0.9923592548936532E+00
   0.9887978465063877E+00
   0.9887221405077480E+00
   0.9796941638122901E+00
   0.1006244043741850E+01
   0.9953745913167140E+00
   0.9952716558984501E+00
   0.9951238151878311E+00
   0.9949332813704682E+00
   0.9945719681455051E+00
   0.9941842623193439E+00
   0.9931362046531115E+00
   0.9923738204063933E+00
   0.9866599393839708E+00
   0.9856884950797189E+00
   0.9608397190733972E+00
   0.9954339117115120E+00
   0.9953990896102877E+00
   0.9952425404799772E+00
   0.9950196094500432E+00
   0.9946932877819713E+00
   0.9943205449914723E+00
   0.9937919997057133E+00
   0.9937764550486530E+00
   0.9933822558658795E+00
   0.9962413118848866E+00
   0.9948930523605535E+00
   0.9956407918471162E+00
   0.9956294400187444E+00
   0.9955037596261250E+00
   0.9953505871385790E+00
   0.9950867341786954E+00
   0.9948890028704018E+00
   0.9943536639786174E+00
   0.9944325094240335E+00
   0.9934630597446621E+00
   0.9955603350977681E+00
   0.9957184973265000E+00
   0.9958992392845121E+00
   0.9958960626896863E+00
   0.9957807250655010E+00
   0.9956595357884054E+00
   0.9954787581404599E+00
   0.9954275562671576E+00
   0.9952779638500999E+00
   0.9957121811163211E+00
   0.9958474403547648E+00
   0.9973056311040365E+00
   0.9980786033803537E+00
   0.9962125726170460E+00
   0.9962100241696966E+00
   0.9960894816403875E+00
   0.9959808030895939E+00
   0.9958254185539703E+00
   0.9958044188095468E+00
   0.9957149701452342E+00
   0.9960705245883601E+00
   0.9963289431223111E+00
   0.9974805481177780E+00
   0.9985308490970971E+00
   0.9965931053103717E+00
   0.9965780033130522E+00
   0.9964272582614738E+00
   0.9963104861057506E+00
   0.9961852843790704E+00
   0.9962036754584189E+00
   0.9962455550715569E+00
   0.9966183629133896E+00
   0.9970324121195270E+00
   0.9979124278229664E+00
   0.9988196189872073E+00
   0.9970581379758020E+00
   0.9969811022370648E+00
   0.9967597286556894E+00
   0.9965946802728980E+00
   0.9964485748234529E+00
   0.9964397157606533E+00
   0.9964965754419268E+00
   0.9968191408286379E+00
   0.9972627933354827E+00
   0.9980521984388069E+00
   0.9989572909149645E+00
   0.9977132772567575E+00
   0.9974519326900568E+00
   0.9970938634436104E+00
   0.9968481872242169E+00
   0.9966655530344576E+00
   0.9966216559139136E+00
   0.9966742631950890E+00
   0.9969502641893320E+00
   0.9973924850153209E+00
   0.9981454956571703E+00
   0.9990669063984465E+00
   0.9985960353239351E+00
   0.9978556067285871E+00
   0.9973625559295703E+00
   0.9970308962820040E+00
   0.9967962995069903E+00
   0.9966889365336788E+00
   0.9966814330377022E+00
   0.9968638428259446E+00
   0.9972394402801383E+00
   0.9979898371800049E+00
   0.9990124625648150E+00
   0.8218680580759198E+00
   0.9403040461762678E+00
   0.9572091617599741E+00
   0.9676037229405057E+00
   0.9726183429029868E+00
   0.9742513610800312E+00
   0.9757326414785850E+00
   0.9761532482065889E+00
   0.9633377033474351E+00
   0.8545086132626967E+00
   0.3978361059426803E+00
   0.9952074498033537E+00
   0.9949907466216186E+00
   0.9948136983672059E+00
   0.9944101737199440E+00
   0.9940068890799126E+00
   0.9929271463977455E+00
   0.9923632665847535E+00
   0.9888037993176422E+00
   0.9887315383428781E+00
   0.9797000335864297E+00
   0.1006242335882616E+01
   0.9953743001022235E+00
   0.9952715322442436E+00
   0.9951237340697636E+00
   0.9949331505318774E+00
   0.9945720131785227E+00
   0.9941847242875375E+00
   0.9931373622981379E+00
   0.9923754998544052E+00
   0.9866615561215841E+00
   0.9856890816812991E+00
   0.9608391840739640E+00
   0.9954338505559910E+00
   0.9953987720089182E+00
   0.9952421221148755E+00
   0.9950192485057944E+00
   0.9946932888056292E+00
   0.9943212229667058E+00
   0.9937935881985510E+00
   0.9937790251950125E+00