TITLE="fun3d_case_title"
VARIABLES="Iteration" "R_1" "R_2" "R_3" "R_4" "R_5" "C_L" "C_D" "C_M_x" "C_M_y" "C_M_z" "Wall Time" "C_x" "C_y" "C_z" "C_Lp" "C_Dp" "C_Lv" "C_Dv" "C_M_xp" "C_M_yp" "C_M_zp" "C_M_xv" "C_M_yv" "C_M_zv" "C_xp" "C_yp" "C_zp" "C_xv" "C_yv" "C_zv"
ZONE  I=100 F=POINT
1  0.3666221613E-02  0.1180648706E-03  0.2343424983E-16  0.9939568239E-03  0.2285427013E-01 -0.1817363250E+01  0.7272231157E-02 -0.3412975162E-06 -0.6923701113E+01 -0.1203741232E-07  0.7893000000E+00  0.7272231157E-02 -0.6501428932E-11 -0.1817363250E+01 -0.1817541384E+01  0.0000000000E+00  0.1781344349E-03  0.7272231157E-02 -0.3482718491E-06 -0.6923856961E+01  0.0000000000E+00  0.6974332903E-08  0.1558481359E-03 -0.1203741232E-07  0.0000000000E+00  0.0000000000E+00 -0.1817541384E+01  0.7272231157E-02 -0.6501428932E-11  0.1781344349E-03
2  0.3165115708E-02  0.8378043727E-03  0.2530123835E-07  0.1206772696E-02  0.5890050434E-02  0.2982018764E+00  0.7232905680E-02 -0.1455159593E-06 -0.1536878689E+02  0.1426755694E-06  0.1137400000E+01  0.7232905680E-02 -0.4576536010E-11  0.2982018764E+00  0.2979811371E+00  0.0000000000E+00  0.2207393085E-03  0.7232905680E-02 -0.6059799462E-07 -0.1536914022E+02  0.0000000000E+00 -0.8491796467E-07  0.3533301778E-03  0.1426755694E-06  0.0000000000E+00  0.0000000000E+00  0.2979811371E+00  0.7232905680E-02 -0.4576536010E-11  0.2207393085E-03
3  0.2574711772E-02  0.7183572591E-03  0.3667575390E-05  0.1028200676E-02  0.3005624364E-02  0.6789859783E+00  0.7164366465E-02 -0.6204267654E-07 -0.1883462763E+02  0.3083411586E-06  0.1466800000E+01  0.7164366465E-02 -0.1249365344E-11  0.6789859783E+00  0.6787737739E+00  0.0000000000E+00  0.2122044467E-03  0.7164366465E-02  0.1119343011E-06 -0.1883515212E+02  0.0000000000E+00 -0.1739769776E-06  0.5244897042E-03  0.3083411586E-06  0.0000000000E+00  0.0000000000E+00  0.6787737739E+00  0.7164366465E-02 -0.1249365344E-11  0.2122044467E-03
4  0.1817533689E-02  0.6677523210E-03  0.5466283563E-05  0.1033597798E-02  0.1173052034E-02  0.8925068947E+00  0.7088839276E-02  0.1604312903E-06 -0.2015145765E+02  0.4406464722E-06  0.1795800000E+01  0.7088839276E-02  0.2090408516E-12  0.8925068947E+00  0.8922907444E+00  0.0000000000E+00  0.2161502997E-03  0.7088839276E-02  0.3928547685E-06 -0.2015207460E+02  0.0000000000E+00 -0.2324234782E-06  0.6169553620E-03  0.4406464722E-06  0.0000000000E+00  0.0000000000E+00  0.8922907444E+00  0.7088839276E-02  0.2090408516E-12  0.2161502997E-03
5  0.1114556648E-02  0.5618188901E-03  0.5255380819E-05  0.1140529390E-02  0.9113105549E-03  0.1423074458E+01  0.7021141818E-02  0.3980691998E-06 -0.2075105940E+02  0.5335963474E-06  0.2125500000E+01  0.7021141818E-02  0.4081707094E-12  0.1423074458E+01  0.1422853145E+01  0.0000000000E+00  0.2213137174E-03  0.7021141818E-02  0.6697874922E-06 -0.2075172313E+02  0.0000000000E+00 -0.2717182924E-06  0.6637335615E-03  0.5335963474E-06  0.0000000000E+00  0.0000000000E+00  0.1422853145E+01  0.7021141818E-02  0.4081707094E-12  0.2213137174E-03
6  0.6595587267E-03  0.4637917514E-03  0.4456600711E-05  0.1024604745E-02  0.7741552176E-03  0.2068251157E+01  0.6963810668E-02  0.5726502722E-06 -0.2109955810E+02  0.5959918730E-06  0.2454600000E+01  0.6963810668E-02  0.2326801767E-12  0.2068251157E+01  0.2068033824E+01  0.0000000000E+00  0.2173332397E-03  0.6963810668E-02  0.8742468339E-06 -0.2110025335E+02  0.0000000000E+00 -0.3015965617E-06  0.6952466318E-03  0.5959918730E-06  0.0000000000E+00  0.0000000000E+00  0.2068033824E+01  0.6963810668E-02  0.2326801767E-12  0.2173332397E-03
7  0.4272198346E-03  0.3946411219E-03  0.3812036903E-05  0.7874549946E-03  0.6112770047E-03  0.2566080997E+01  0.6912356064E-02  0.6637389540E-06 -0.2129335583E+02  0.6357300230E-06  0.2785400000E+01  0.6912356064E-02  0.1915608838E-13  0.2566080997E+01  0.2565873837E+01  0.0000000000E+00  0.2071601703E-03  0.6912356064E-02  0.9897322847E-06 -0.2129407812E+02  0.0000000000E+00 -0.3259933307E-06  0.7222898595E-03  0.6357300230E-06  0.0000000000E+00  0.0000000000E+00  0.2565873837E+01  0.6912356064E-02  0.1915608838E-13  0.2071601703E-03
8  0.3121123334E-03  0.3408554403E-03  0.3299720899E-05  0.5506280250E-03  0.4354259501E-03  0.2836359884E+01  0.6865257716E-02  0.6942931162E-06 -0.2138377706E+02  0.6583820593E-06  0.3114800000E+01  0.6865257716E-02 -0.1122959677E-12  0.2836359884E+01  0.2836162547E+01  0.0000000000E+00  0.1973369851E-03  0.6865257716E-02  0.1040099320E-05 -0.2138452221E+02  0.0000000000E+00 -0.3458062037E-06  0.7451455712E-03  0.6583820593E-06  0.0000000000E+00  0.0000000000E+00  0.2836162547E+01  0.6865257716E-02 -0.1122959677E-12  0.1973369851E-03
9  0.2431605578E-03  0.2954470058E-03  0.2805749032E-05  0.3692063040E-03  0.3054929754E-03  0.2934003438E+01  0.6822486214E-02  0.6925318837E-06 -0.2142890126E+02  0.6685975648E-06  0.3350700000E+01  0.6822486214E-02 -0.1754962897E-12  0.2934003438E+01  0.2933811989E+01  0.0000000000E+00  0.1914489414E-03  0.6822486214E-02  0.1053277860E-05 -0.2142966451E+02  0.0000000000E+00 -0.3607459761E-06  0.7632534049E-03  0.6685975648E-06  0.0000000000E+00  0.0000000000E+00  0.2933811989E+01  0.6822486214E-02 -0.1754962897E-12  0.1914489414E-03
10  0.1910955575E-03  0.2581654566E-03  0.2303763340E-05  0.2489947904E-03  0.2351278368E-03  0.2951589258E+01  0.6784587653E-02  0.6771523891E-06 -0.2148653400E+02  0.6706506090E-06  0.3680200000E+01  0.6784587653E-02 -0.2344330048E-12  0.2951589258E+01  0.2951399501E+01  0.0000000000E+00  0.1897569436E-03  0.6784587653E-02  0.1047400860E-05 -0.2148731058E+02  0.0000000000E+00 -0.3702484708E-06  0.7765866343E-03  0.6706506090E-06  0.0000000000E+00  0.0000000000E+00  0.2951399501E+01  0.6784587653E-02 -0.2344330048E-12  0.1897569436E-03
11  0.1455806219E-03  0.2295062472E-03  0.1822634262E-05  0.1756710011E-03  0.1976105897E-03  0.2943517509E+01  0.6750831280E-02  0.6577042164E-06 -0.2153642418E+02  0.6687088576E-06  0.3503480000E+02  0.6750831280E-02 -0.3054627498E-12  0.2943517509E+01  0.2943326888E+01  0.0000000000E+00  0.1906205152E-03  0.6750831280E-02  0.1032835843E-05 -0.2153721132E+02  0.0000000000E+00 -0.3751316261E-06  0.7871373858E-03  0.6687088576E-06  0.0000000000E+00  0.0000000000E+00  0.2943326888E+01  0.6750831280E-02 -0.3054627498E-12  0.1906205152E-03
12  0.1058902981E-03  0.2074301274E-03  0.1429905050E-05  0.1316733025E-03  0.1665152414E-03  0.2943383684E+01  0.6720574443E-02  0.6394959978E-06 -0.2159166509E+02  0.6656030337E-06  0.3536450000E+02  0.6720574443E-02 -0.3291094593E-12  0.2943383684E+01  0.2943191092E+01  0.0000000000E+00  0.1925922388E-03  0.6720574443E-02  0.1016058932E-05 -0.2159246049E+02  0.0000000000E+00 -0.3765629338E-06  0.7954035477E-03  0.6656030337E-06  0.0000000000E+00  0.0000000000E+00  0.2943191092E+01  0.6720574443E-02 -0.3291094593E-12  0.1925922388E-03
13  0.7476360030E-04  0.1891611819E-03  0.1159338098E-05  0.1029317455E-03  0.1387618161E-03  0.2961778220E+01  0.6693525989E-02  0.6243246934E-06 -0.2165681431E+02  0.6629483572E-06  0.3560070000E+02  0.6693525989E-02 -0.2527720882E-12  0.2961778220E+01  0.2961583542E+01  0.0000000000E+00  0.1946779058E-03  0.6693525989E-02  0.1000351516E-05 -0.2165761613E+02  0.0000000000E+00 -0.3760268223E-06  0.8018135650E-03  0.6629483572E-06  0.0000000000E+00  0.0000000000E+00  0.2961583542E+01  0.6693525989E-02 -0.2527720882E-12  0.1946779058E-03
14  0.5356198763E-04  0.1724364052E-03  0.9863134607E-06  0.8285297888E-04  0.1175713064E-03  0.2996910433E+01  0.6669356891E-02  0.6128197292E-06 -0.2173415632E+02  0.6614418631E-06  0.3592990000E+02  0.6669356891E-02 -0.5224961844E-13  0.2996910433E+01  0.2996714051E+01  0.0000000000E+00  0.1963819039E-03  0.6669356891E-02  0.9875289950E-06 -0.2173496316E+02  0.0000000000E+00 -0.3747092658E-06  0.8068378932E-03  0.6614418631E-06  0.0000000000E+00  0.0000000000E+00  0.2996714051E+01  0.6669356891E-02 -0.5224961844E-13  0.1963819039E-03
15  0.4016421685E-04  0.1562844734E-03  0.8627439775E-06  0.6905839091E-04  0.1031911377E-03  0.3040035437E+01  0.6647813301E-02  0.6056480921E-06 -0.2181334337E+02  0.6610806691E-06  0.3616630000E+02  0.6647813301E-02  0.2783217583E-12  0.3040035437E+01  0.3039837826E+01  0.0000000000E+00  0.1976113714E-03  0.6647813301E-02  0.9790177352E-06 -0.2181415410E+02  0.0000000000E+00 -0.3733696431E-06  0.8107234449E-03  0.6610806691E-06  0.0000000000E+00  0.0000000000E+00  0.3039837826E+01  0.6647813301E-02  0.2783217583E-12  0.1976113714E-03
16  0.3132386486E-04  0.1405910528E-03  0.7614536343E-06  0.5976861768E-04  0.9271387802E-04  0.3084611243E+01  0.6628615982E-02  0.6016292488E-06 -0.2189145471E+02  0.6616169825E-06  0.3649560000E+02  0.6628615982E-02  0.7115933280E-12  0.3084611243E+01  0.3084412794E+01  0.0000000000E+00  0.1984488298E-03  0.6628615982E-02  0.9739683908E-06 -0.2189226843E+02  0.0000000000E+00 -0.3723391421E-06  0.8137258702E-03  0.6616169825E-06  0.0000000000E+00  0.0000000000E+00  0.3084412794E+01  0.6628615982E-02  0.7115933280E-12  0.1984488298E-03
17  0.2484228014E-04  0.1256617419E-03  0.6768675482E-06  0.5287497611E-04  0.8373661019E-04  0.3126254103E+01  0.6611617560E-02  0.5998128257E-06 -0.2196385941E+02  0.6626886516E-06  0.3673190000E+02  0.6611617560E-02  0.1226820903E-11  0.3126254103E+01  0.3126055056E+01  0.0000000000E+00  0.1990475629E-03  0.6611617560E-02  0.9714797887E-06 -0.2196467535E+02  0.0000000000E+00 -0.3716669630E-06  0.8159421371E-03  0.6626886516E-06  0.0000000000E+00  0.0000000000E+00  0.3126055056E+01  0.6611617560E-02  0.1226820903E-11  0.1990475629E-03
18  0.1981951693E-04  0.1117745958E-03  0.6074437470E-06  0.4693709470E-04  0.7487240780E-04  0.3162916954E+01  0.6596645846E-02  0.5991846796E-06 -0.2202952473E+02  0.6639785782E-06  0.3696800000E+02  0.6596645846E-02  0.1798801385E-11  0.3162916954E+01  0.3162717431E+01  0.0000000000E+00  0.1995229616E-03  0.6596645846E-02  0.9704432632E-06 -0.2203034224E+02  0.0000000000E+00 -0.3712585836E-06  0.8175069515E-03  0.6639785782E-06  0.0000000000E+00  0.0000000000E+00  0.3162717431E+01  0.6596645846E-02  0.1798801385E-11  0.1995229616E-03
19  0.1601298875E-04  0.9907598756E-04  0.5515468422E-06  0.4147634135E-04  0.6618685664E-04  0.3194314279E+01  0.6583541378E-02  0.5990040897E-06 -0.2208878106E+02  0.6652462361E-06  0.3720420000E+02  0.6583541378E-02  0.2407602755E-11  0.3194314279E+01  0.3194114324E+01  0.0000000000E+00  0.1999556296E-03  0.6583541378E-02  0.9699829924E-06 -0.2208959959E+02  0.0000000000E+00 -0.3709789027E-06  0.8185301313E-03  0.6652462361E-06  0.0000000000E+00  0.0000000000E+00  0.3194114324E+01  0.6583541378E-02  0.2407602755E-11  0.1999556296E-03
20  0.1321065979E-04  0.8757599065E-04  0.5062361245E-06  0.3650816475E-04  0.5802426175E-04  0.3220939654E+01  0.6572087860E-02  0.5987728302E-06 -0.2214293810E+02  0.6663438842E-06  0.3753340000E+02  0.6572087860E-02  0.3038984394E-11  0.3220939654E+01  0.3220739275E+01  0.0000000000E+00  0.2003790842E-03  0.6572087860E-02  0.9694905049E-06 -0.2214375725E+02  0.0000000000E+00 -0.3707176746E-06  0.8191512471E-03  0.6663438842E-06  0.0000000000E+00  0.0000000000E+00  0.3220739275E+01  0.6572087860E-02  0.3038984394E-11  0.2003790842E-03
21  0.1113900515E-04  0.7718738454E-04  0.4683497419E-06  0.3210168705E-04  0.5069848526E-04  0.3243508121E+01  0.6562202651E-02  0.5980917871E-06 -0.2219149486E+02  0.6671914939E-06  0.6872640000E+02  0.6562202651E-02  0.3677239698E-11  0.3243508121E+01  0.3243307309E+01  0.0000000000E+00  0.2008115660E-03  0.6562202651E-02  0.9684961746E-06 -0.2219231428E+02  0.0000000000E+00 -0.3704043875E-06  0.8194226146E-03  0.6671914939E-06  0.0000000000E+00  0.0000000000E+00  0.3243307309E+01  0.6562202651E-02  0.3677239698E-11  0.2008115660E-03
22  0.9476906108E-05  0.6783517598E-04  0.4353932039E-06  0.2822691774E-04  0.4407396241E-04  0.3262685175E+01  0.6553729522E-02  0.5969117570E-06 -0.2223523822E+02  0.6677851380E-06  0.6896270000E+02  0.6553729522E-02  0.4305577182E-11  0.3262685175E+01  0.3262483935E+01  0.0000000000E+00  0.2012405663E-03  0.6553729522E-02  0.9669300411E-06 -0.2223605768E+02  0.0000000000E+00 -0.3700182842E-06  0.8194598273E-03  0.6677851380E-06  0.0000000000E+00  0.0000000000E+00  0.3262483935E+01  0.6553729522E-02  0.4305577182E-11  0.2012405663E-03
23  0.8069564566E-05  0.5945732117E-04  0.4059705935E-06  0.2482352565E-04  0.3813509450E-04  0.3279118851E+01  0.6546513738E-02  0.5953188007E-06 -0.2227481149E+02  0.6681593459E-06  0.6919910000E+02  0.6546513738E-02  0.4910707597E-11  0.3279118851E+01  0.3278917199E+01  0.0000000000E+00  0.2016520025E-03  0.6546513738E-02  0.9648893273E-06 -0.2227563085E+02  0.0000000000E+00 -0.3695705266E-06  0.8193575311E-03  0.6681593459E-06  0.0000000000E+00  0.0000000000E+00  0.3278917199E+01  0.6546513738E-02  0.4910707597E-11  0.2016520025E-03
24  0.6864796106E-05  0.5199478494E-04  0.3789524187E-06  0.2181993132E-04  0.3281054818E-04  0.3293280749E+01  0.6540379643E-02  0.5934392106E-06 -0.2231062105E+02  0.6683651815E-06  0.6952860000E+02  0.6540379643E-02  0.5482798970E-11  0.3293280749E+01  0.3293078718E+01  0.0000000000E+00  0.2020304662E-03  0.6540379643E-02  0.9625241225E-06 -0.2231144025E+02  0.0000000000E+00 -0.3690849119E-06  0.8192008012E-03  0.6683651815E-06  0.0000000000E+00  0.0000000000E+00  0.3293078718E+01  0.6540379643E-02  0.5482798970E-11  0.2020304662E-03
25  0.5865745532E-05  0.4537156337E-04  0.3533204491E-06  0.1915302124E-04  0.2805659890E-04  0.3305614648E+01  0.6535218437E-02  0.5913759276E-06 -0.2234272029E+02  0.6684604325E-06  0.6976490000E+02  0.6535218437E-02  0.6010550844E-11  0.3305614648E+01  0.3305412284E+01  0.0000000000E+00  0.2023645181E-03  0.6535218437E-02  0.9599716672E-06 -0.2234353934E+02  0.0000000000E+00 -0.3685957396E-06  0.8190448262E-03  0.6684604325E-06  0.0000000000E+00  0.0000000000E+00  0.3305412284E+01  0.6535218437E-02  0.6010550844E-11  0.2023645181E-03
26  0.5052122707E-05  0.3951441481E-04  0.3287705954E-06  0.1677664419E-04  0.2378734353E-04  0.3316321187E+01  0.6530894503E-02  0.5892577799E-06 -0.2237109250E+02  0.6685020492E-06  0.7000110000E+02  0.6530894503E-02  0.6485263635E-11  0.3316321187E+01  0.3316118541E+01  0.0000000000E+00  0.2026454642E-03  0.6530894503E-02  0.9573920411E-06 -0.2237191144E+02  0.0000000000E+00 -0.3681342612E-06  0.8189388074E-03  0.6685020492E-06  0.0000000000E+00  0.0000000000E+00  0.3316118541E+01  0.6530894503E-02  0.6485263635E-11  0.2026454642E-03
27  0.4407976192E-05  0.3435382115E-04  0.3051701777E-06  0.1465709485E-04  0.2000923619E-04  0.3325576109E+01  0.6527284187E-02  0.5871951759E-06 -0.2239581474E+02  0.6685350110E-06  0.7023760000E+02  0.6527284187E-02  0.6901846037E-11  0.3325576109E+01  0.3325373237E+01  0.0000000000E+00  0.2028720555E-03  0.6527284187E-02  0.9549197455E-06 -0.2239663364E+02  0.0000000000E+00 -0.3677245696E-06  0.8189053338E-03  0.6685350110E-06  0.0000000000E+00  0.0000000000E+00  0.3325373237E+01  0.6527284187E-02  0.6901846037E-11  0.2028720555E-03
28  0.3902470615E-05  0.2982668287E-04  0.2824682385E-06  0.1276777922E-04  0.1672840327E-04  0.3333537416E+01  0.6524270374E-02  0.5852734499E-06 -0.2241709065E+02  0.6685884200E-06  0.7056700000E+02  0.6524270374E-02  0.7259411191E-11  0.3333537416E+01  0.3333334368E+01  0.0000000000E+00  0.2030474736E-03  0.6524270374E-02  0.9526535626E-06 -0.2241790960E+02  0.0000000000E+00 -0.3673801127E-06  0.8189503436E-03  0.6685884200E-06  0.0000000000E+00  0.0000000000E+00  0.3333334368E+01  0.6524270374E-02  0.7259411191E-11  0.2030474736E-03
29  0.3502353375E-05  0.2587233329E-04  0.2606313386E-06  0.1108821747E-04  0.1394556123E-04  0.3340398002E+01  0.6521766588E-02  0.5835558596E-06 -0.2243519141E+02  0.6686808692E-06  0.7080360000E+02  0.6521766588E-02  0.7558814500E-11  0.3340398002E+01  0.3340194825E+01  0.0000000000E+00  0.2031772789E-03  0.6521766588E-02  0.9506648679E-06 -0.2243601048E+02  0.0000000000E+00 -0.3671090084E-06  0.8190682254E-03  0.6686808692E-06  0.0000000000E+00  0.0000000000E+00  0.3340194825E+01  0.6521766588E-02  0.7558814500E-11  0.2031772789E-03
30  0.3172659679E-05  0.2243193742E-04  0.2398073794E-06  0.9607325458E-05  0.1162912200E-04  0.3346262530E+01  0.6519684785E-02  0.5820677787E-06 -0.2245034806E+02  0.6688199551E-06  0.7113340000E+02  0.6519684785E-02  0.7804081255E-11  0.3346262530E+01  0.3346059262E+01  0.0000000000E+00  0.2032682972E-03  0.6519684785E-02  0.9489797616E-06 -0.2245116730E+02  0.0000000000E+00 -0.3669119828E-06  0.8192480961E-03  0.6688199551E-06  0.0000000000E+00  0.0000000000E+00  0.3346059262E+01  0.6519684785E-02  0.7804081255E-11  0.2032682972E-03
31  0.2888923248E-05  0.1944565324E-04  0.2200474763E-06  0.8314385640E-05  0.9746401459E-05  0.3351247632E+01  0.6517952244E-02  0.5808184417E-06 -0.2246285747E+02  0.6690050431E-06  0.1023402000E+03  0.6517952244E-02  0.8001101129E-11  0.3351247632E+01  0.3351044304E+01  0.0000000000E+00  0.2033286807E-03  0.6517952244E-02  0.9476037426E-06 -0.2246367694E+02  0.0000000000E+00 -0.3667853009E-06  0.8194720274E-03  0.6690050431E-06  0.0000000000E+00  0.0000000000E+00  0.3351044304E+01  0.6517952244E-02  0.8001101129E-11  0.2033286807E-03
32  0.2631749113E-05  0.1685651885E-04  0.2014238687E-06  0.7196175557E-05  0.8245677362E-05  0.3355462142E+01  0.6516505765E-02  0.5797925060E-06 -0.2247305857E+02  0.6692294693E-06  0.1025768000E+03  0.6516505765E-02  0.8157187399E-11  0.3355462142E+01  0.3355258776E+01  0.0000000000E+00  0.2033662135E-03  0.6516505765E-02  0.9465143157E-06 -0.2247387829E+02  0.0000000000E+00 -0.3667218097E-06  0.8197212017E-03  0.6692294693E-06  0.0000000000E+00  0.0000000000E+00  0.3355258776E+01  0.6516505765E-02  0.8157187399E-11  0.2033662135E-03
33  0.2388218282E-05  0.1461155552E-04  0.1839718320E-06  0.6233840255E-05  0.7067309128E-05  0.3359012455E+01  0.6515292963E-02  0.5789631467E-06 -0.2248130464E+02  0.6694831328E-06  0.1028134000E+03  0.6515292963E-02  0.8280066584E-11  0.3359012455E+01  0.3358809067E+01  0.0000000000E+00  0.2033878936E-03  0.6515292963E-02  0.9456756632E-06 -0.2248212462E+02  0.0000000000E+00 -0.3667125165E-06  0.8199777189E-03  0.6694831328E-06  0.0000000000E+00  0.0000000000E+00  0.3358809067E+01  0.6515292963E-02  0.8280066584E-11  0.2033878936E-03
34  0.2150754488E-05  0.1266387249E-04  0.1677103810E-06  0.5404933575E-05  0.6146817485E-05  0.3361997330E+01  0.6514271093E-02  0.5782973511E-06 -0.2248793487E+02  0.6697547388E-06  0.1030498000E+03  0.6514271093E-02  0.8377190858E-11  0.3361997330E+01  0.3361793930E+01  0.0000000000E+00  0.2033995373E-03  0.6514271093E-02  0.9450452140E-06 -0.2248875509E+02  0.0000000000E+00 -0.3667478628E-06  0.8202264250E-03  0.6697547388E-06  0.0000000000E+00  0.0000000000E+00  0.3361793930E+01  0.6514271093E-02  0.8377190858E-11  0.2033995373E-03
35  0.1916246112E-05  0.1097346222E-04  0.1526334856E-06  0.4686752065E-05  0.5420848366E-05  0.3364505215E+01  0.6513405699E-02  0.5777600796E-06 -0.2249325830E+02  0.6700333693E-06  0.1032863000E+03  0.6513405699E-02  0.8455190423E-11  0.3364505215E+01  0.3364301809E+01  0.0000000000E+00  0.2034056809E-03  0.6513405699E-02  0.9445786737E-06 -0.2249407875E+02  0.0000000000E+00 -0.3668185941E-06  0.8204557057E-03  0.6700333693E-06  0.0000000000E+00  0.0000000000E+00  0.3364301809E+01  0.6513405699E-02  0.8455190423E-11  0.2034056809E-03
36  0.1685029445E-05  0.9506918195E-05  0.1387052802E-06  0.4059606717E-05  0.4832984028E-05  0.3366615618E+01  0.6512668909E-02  0.5773172093E-06 -0.2249756019E+02  0.6703092150E-06  0.1036159000E+03  0.6512668909E-02  0.8519522373E-11  0.3366615618E+01  0.3366412208E+01  0.0000000000E+00  0.2034095978E-03  0.6512668909E-02  0.9442333715E-06 -0.2249838085E+02  0.0000000000E+00 -0.3669161622E-06  0.8206578235E-03  0.6703092150E-06  0.0000000000E+00  0.0000000000E+00  0.3366412208E+01  0.6512668909E-02  0.8519522373E-11  0.2034095978E-03
37  0.1460018879E-05  0.8236029515E-05  0.1258607507E-06  0.3508522722E-05  0.4338324703E-05  0.3368396183E+01  0.6512039467E-02  0.5769440735E-06 -0.2250105271E+02  0.6705746655E-06  0.1038523000E+03  0.6512039467E-02  0.8574435140E-11  0.3368396183E+01  0.3368192769E+01  0.0000000000E+00  0.2034135013E-03  0.6512039467E-02  0.9439772700E-06 -0.2250187353E+02  0.0000000000E+00 -0.3670331965E-06  0.8208285320E-03  0.6705746655E-06  0.0000000000E+00  0.0000000000E+00  0.3368192769E+01  0.6512039467E-02  0.8574435140E-11  0.2034135013E-03
38  0.1245173118E-05  0.7137122489E-05  0.1140403433E-06  0.3023517404E-05  0.3903720989E-05  0.3369901863E+01  0.6511499746E-02  0.5766175806E-06 -0.2250391993E+02  0.6708240615E-06  0.1040889000E+03  0.6511499746E-02  0.8622929812E-11  0.3369901863E+01  0.3369698444E+01  0.0000000000E+00  0.2034185472E-03  0.6511499746E-02  0.9437810968E-06 -0.2250474090E+02  0.0000000000E+00 -0.3671635162E-06  0.8209672350E-03  0.6708240615E-06  0.0000000000E+00  0.0000000000E+00  0.3369698444E+01  0.6511499746E-02  0.8622929812E-11  0.2034185472E-03
39  0.1045209785E-05  0.6188667593E-05  0.1031671038E-06  0.2597921069E-05  0.3508443279E-05  0.3371181565E+01  0.6511035624E-02  0.5763231019E-06 -0.2250631258E+02  0.6710535840E-06  0.1043253000E+03  0.6511035624E-02  0.8666888805E-11  0.3371181565E+01  0.3370978140E+01  0.0000000000E+00  0.2034252074E-03  0.6511035624E-02  0.9436250326E-06 -0.2250713365E+02  0.0000000000E+00 -0.3673019306E-06  0.8210757479E-03  0.6710535840E-06  0.0000000000E+00  0.0000000000E+00  0.3370978140E+01  0.6511035624E-02  0.8666888805E-11  0.2034252074E-03
40  0.8645009540E-06  0.5371029661E-05  0.9318139402E-07  0.2227078796E-05  0.3140968466E-05  0.3372276707E+01  0.6510635619E-02  0.5760530717E-06 -0.2250834598E+02  0.6712611523E-06  0.1045618000E+03  0.6510635619E-02  0.8707336727E-11  0.3372276707E+01  0.3372073274E+01  0.0000000000E+00  0.2034334181E-03  0.6510635619E-02  0.9434972518E-06 -0.2250916714E+02  0.0000000000E+00 -0.3674441801E-06  0.8211577460E-03  0.6712611523E-06  0.0000000000E+00  0.0000000000E+00  0.3372073274E+01  0.6510635619E-02  0.8707336727E-11  0.2034334181E-03
41  0.7063758760E-06  0.4666177828E-05  0.8404223949E-07  0.1906834544E-05  0.2795943412E-05  0.3373220922E+01  0.6510290224E-02  0.5758049212E-06 -0.2251010456E+02  0.6714462264E-06  0.1357255000E+03  0.6510290224E-02  0.8744683653E-11  0.3373220922E+01  0.3373017479E+01  0.0000000000E+00  0.2034427760E-03  0.6510290224E-02  0.9433917709E-06 -0.2251092577E+02  0.0000000000E+00 -0.3675868497E-06  0.8212179799E-03  0.6714462264E-06  0.0000000000E+00  0.0000000000E+00  0.3373017479E+01  0.6510290224E-02  0.8744683653E-11  0.2034427760E-03
42  0.5726915870E-06  0.4057803362E-05  0.7572162440E-07  0.1632616274E-05  0.2471765372E-05  0.3374041356E+01  0.6509991425E-02  0.5755792132E-06 -0.2251165121E+02  0.6716094644E-06  0.1360553000E+03  0.6509991425E-02  0.8778947583E-11  0.3374041356E+01  0.3373837904E+01  0.0000000000E+00  0.2034527190E-03  0.6509991425E-02  0.9433064512E-06 -0.2251247247E+02  0.0000000000E+00 -0.3677272380E-06  0.8212615081E-03  0.6716094644E-06  0.0000000000E+00  0.0000000000E+00  0.3373837904E+01  0.6509991425E-02  0.8778947583E-11  0.2034527190E-03
43  0.4637248877E-06  0.3531521904E-05  0.6819437279E-07  0.1399143340E-05  0.2168825629E-05  0.3374759170E+01  0.6509732599E-02  0.5753787340E-06 -0.2251302637E+02  0.6717525252E-06  0.1362921000E+03  0.6509732599E-02  0.8809961425E-11  0.3374759170E+01  0.3374555708E+01  0.0000000000E+00  0.2034626738E-03  0.6509732599E-02  0.9432419650E-06 -0.2251384766E+02  0.0000000000E+00 -0.3678632310E-06  0.8212930887E-03  0.6717525252E-06  0.0000000000E+00  0.0000000000E+00  0.3374555708E+01  0.6509732599E-02  0.8809961425E-11  0.2034626738E-03
44  0.3782005443E-06  0.3075149800E-05  0.6143039481E-07  0.1200606848E-05  0.1888289312E-05  0.3375390740E+01  0.6509508072E-02  0.5752060503E-06 -0.2251426074E+02  0.6718775829E-06  0.1365287000E+03  0.6509508072E-02  0.8837499629E-11  0.3375390740E+01  0.3375187268E+01  0.0000000000E+00  0.2034721312E-03  0.6509508072E-02  0.9431992337E-06 -0.2251508206E+02  0.0000000000E+00 -0.3679931834E-06  0.8213168226E-03  0.6718775829E-06  0.0000000000E+00  0.0000000000E+00  0.3375187268E+01  0.6509508072E-02  0.8837499629E-11  0.2034721312E-03
45  0.3135791993E-06  0.2678495050E-05  0.5538182320E-07  0.1031156740E-05  0.1631361899E-05  0.3375949005E+01  0.6509313075E-02  0.5750632142E-06 -0.2251537629E+02  0.6719870629E-06  0.1367653000E+03  0.6509313075E-02  0.8861382460E-11  0.3375949005E+01  0.3375745524E+01  0.0000000000E+00  0.2034807200E-03  0.6509313075E-02  0.9431790242E-06 -0.2251619763E+02  0.0000000000E+00 -0.3681158100E-06  0.8213358784E-03  0.6719870629E-06  0.0000000000E+00  0.0000000000E+00  0.3375745524E+01  0.6509313075E-02  0.8861382460E-11  0.2034807200E-03
46  0.2663058768E-06  0.2333246829E-05  0.4998581839E-07  0.8854656536E-06  0.1398925886E-05  0.3376443860E+01  0.6509143601E-02  0.5749510503E-06 -0.2251638778E+02  0.6720833998E-06  0.1370019000E+03  0.6509143601E-02  0.8881536589E-11  0.3376443860E+01  0.3376240372E+01  0.0000000000E+00  0.2034882149E-03  0.6509143601E-02  0.9431811796E-06 -0.2251720914E+02  0.0000000000E+00 -0.3682301293E-06  0.8213524872E-03  0.6720833998E-06  0.0000000000E+00  0.0000000000E+00  0.3376240372E+01  0.6509143601E-02  0.8881536589E-11  0.2034882149E-03
47  0.2322113570E-06  0.2032642282E-05  0.4516794079E-07  0.7591554193E-06  0.1191409943E-05  0.3376882735E+01  0.6508996288E-02  0.5748687794E-06 -0.2251730462E+02  0.6721688601E-06  0.1372387000E+03  0.6508996288E-02  0.8898019587E-11  0.3376882735E+01  0.3376679240E+01  0.0000000000E+00  0.2034945282E-03  0.6508996288E-02  0.9432042165E-06 -0.2251812599E+02  0.0000000000E+00 -0.3683354371E-06  0.8213680268E-03  0.6721688601E-06  0.0000000000E+00  0.0000000000E+00  0.3376679240E+01  0.6508996288E-02  0.8898019587E-11  0.2034945282E-03
48  0.2071089912E-06  0.1771093470E-05  0.4084990855E-07  0.6489814624E-06  0.1008800690E-05  0.3377271255E+01  0.6508868296E-02  0.5748141694E-06 -0.2251813248E+02  0.6722454260E-06  0.1374753000E+03  0.6508868296E-02  0.8911017724E-11  0.3377271255E+01  0.3377067755E+01  0.0000000000E+00  0.2034996867E-03  0.6508868296E-02  0.9432454657E-06 -0.2251895386E+02  0.0000000000E+00 -0.3684312964E-06  0.8213831748E-03  0.6722454260E-06  0.0000000000E+00  0.0000000000E+00  0.3377067755E+01  0.6508868296E-02  0.8911017724E-11  0.2034996867E-03
49  0.1874260224E-06  0.1543830851E-05  0.3695821491E-07  0.5527516475E-06  0.8506789698E-06  0.3377613854E+01  0.6508757213E-02  0.5747837724E-06 -0.2251887480E+02  0.6723147351E-06  0.1377118000E+03  0.6508757213E-02  0.8920828384E-11  0.3377613854E+01  0.3377410350E+01  0.0000000000E+00  0.2035037998E-03  0.6508757213E-02  0.9433013060E-06 -0.2251969619E+02  0.0000000000E+00 -0.3685175336E-06  0.8213980976E-03  0.6723147351E-06  0.0000000000E+00  0.0000000000E+00  0.3377410350E+01  0.6508757213E-02  0.8920828384E-11  0.2035037998E-03
50  0.1705940816E-06  0.1346614028E-05  0.3343047815E-07  0.4690597438E-06  0.7162151918E-06  0.3377914297E+01  0.6508660943E-02  0.5747733880E-06 -0.2251953429E+02  0.6723780613E-06  0.1380415000E+03  0.6508660943E-02  0.8927833894E-11  0.3377914297E+01  0.3377710790E+01  0.0000000000E+00  0.2035070266E-03  0.6508660943E-02  0.9433676231E-06 -0.2252035570E+02  0.0000000000E+00 -0.3685942352E-06  0.8214126415E-03  0.6723780613E-06  0.0000000000E+00  0.0000000000E+00  0.3377710790E+01  0.6508660943E-02  0.8927833894E-11  0.2035070266E-03
51  0.1550922778E-06  0.1175544410E-05  0.3021813860E-07  0.3969511765E-06  0.6041002458E-06  0.3378176056E+01  0.6508577679E-02  0.5747787266E-06 -0.2252011316E+02  0.6724363652E-06  0.1692768000E+03  0.6508577679E-02  0.8932468347E-11  0.3378176056E+01  0.3377972547E+01  0.0000000000E+00  0.2035095462E-03  0.6508577679E-02  0.9434404520E-06 -0.2252093458E+02  0.0000000000E+00 -0.3686617254E-06  0.8214265016E-03  0.6724363652E-06  0.0000000000E+00  0.0000000000E+00  0.3377972547E+01  0.6508577679E-02  0.8932468347E-11  0.2035095462E-03
52  0.1402344788E-06  0.1027022507E-05  0.2728549918E-07  0.3356099120E-06  0.5124332932E-06  0.3378402460E+01  0.6508505790E-02  0.5747955232E-06 -0.2252061472E+02  0.6724903115E-06  0.1695136000E+03  0.6508505790E-02  0.8935189412E-11  0.3378402460E+01  0.3378198948E+01  0.0000000000E+00  0.2035115321E-03  0.6508505790E-02  0.9435160699E-06 -0.2252143616E+02  0.0000000000E+00 -0.3687205467E-06  0.8214393491E-03  0.6724903115E-06  0.0000000000E+00  0.0000000000E+00  0.3378198948E+01  0.6508505790E-02  0.8935189412E-11  0.2035115321E-03
53  0.1258793499E-06  0.8977642730E-06  0.2460694400E-07  0.2841519826E-06  0.4386715674E-06  0.3378596978E+01  0.6508443812E-02  0.5748197786E-06 -0.2252104378E+02  0.6725403360E-06  0.1697503000E+03  0.6508443812E-02  0.8936450748E-11  0.3378596978E+01  0.3378393465E+01  0.0000000000E+00  0.2035131388E-03  0.6508443812E-02  0.9435911931E-06 -0.2252186523E+02  0.0000000000E+00 -0.3687714145E-06  0.8214509103E-03  0.6725403360E-06  0.0000000000E+00  0.0000000000E+00  0.3378393465E+01  0.6508443812E-02  0.8936450748E-11  0.2035131388E-03
54  0.1121428734E-06  0.7849037585E-06  0.2216422177E-07  0.2415149556E-06  0.3797099079E-06  0.3378763208E+01  0.6508390426E-02  0.5748482399E-06 -0.2252140658E+02  0.6725867042E-06  0.1699873000E+03  0.6508390426E-02  0.8936672266E-11  0.3378763208E+01  0.3378559693E+01  0.0000000000E+00  0.2035144901E-03  0.6508390426E-02  0.9436634048E-06 -0.2252222804E+02  0.0000000000E+00 -0.3688151648E-06  0.8214610185E-03  0.6725867042E-06  0.0000000000E+00  0.0000000000E+00  0.3378559693E+01  0.6508390426E-02  0.8936672266E-11  0.2035144901E-03