# vtk DataFile Version 2.0
FUN3D:global_image_vtk
ASCII
DATASET UNSTRUCTURED_GRID
POINTS 1331 double
    0.0000000000000000E+00    0.2500000000000000E+01    0.0000000000000000E+00
    0.5000000000000000E+00    0.2500000000000000E+01    0.0000000000000000E+00
    0.1000000000000000E+01    0.2500000000000000E+01    0.0000000000000000E+00
    0.1500000000000000E+01    0.2500000000000000E+01    0.0000000000000000E+00
    0.2000000000000000E+01    0.2500000000000000E+01    0.0000000000000000E+00
    0.2500000000000000E+01    0.2500000000000000E+01    0.0000000000000000E+00
    0.3000000000000000E+01    0.2500000000000000E+01    0.0000000000000000E+00
    0.3500000000000000E+01    0.2500000000000000E+01    0.0000000000000000E+00
    0.4000000000000000E+01    0.2500000000000000E+01    0.0000000000000000E+00
    0.4500000000000000E+01    0.2500000000000000E+01    0.0000000000000000E+00
    0.5000000000000000E+01    0.2500000000000000E+01    0.0000000000000000E+00
    0.0000000000000000E+00    0.2500000000000000E+01    0.4999999999999982E+00
    0.4999999999999998E+00    0.2500000000000000E+01    0.4999999999999984E+00
    0.9999999999999998E+00    0.2500000000000000E+01    0.4999999999999987E+00
    0.1500000000000000E+01    0.2500000000000000E+01    0.4999999999999989E+00
    0.2000000000000000E+01    0.2500000000000000E+01    0.4999999999999991E+00
    0.2500000000000000E+01    0.2500000000000000E+01    0.4999999999999993E+00
    0.3000000000000000E+01    0.2500000000000000E+01    0.4999999999999996E+00
    0.3500000000000000E+01    0.2500000000000000E+01    0.4999999999999998E+00
    0.4000000000000000E+01    0.2500000000000000E+01    0.5000000000000000E+00
    0.4500000000000002E+01    0.2500000000000000E+01    0.5000000000000002E+00
    0.5000000000000000E+01    0.2500000000000000E+01    0.5000000000000004E+00
    0.0000000000000000E+00    0.2500000000000000E+01    0.1000000000000001E+01
    0.4999999999999997E+00    0.2500000000000000E+01    0.1000000000000001E+01
    0.1000000000000000E+01    0.2500000000000000E+01    0.1000000000000001E+01
    0.1500000000000000E+01    0.2500000000000000E+01    0.1000000000000001E+01
    0.2000000000000000E+01    0.2500000000000000E+01    0.1000000000000001E+01
    0.2500000000000000E+01    0.2500000000000000E+01    0.1000000000000001E+01
    0.3000000000000000E+01    0.2500000000000000E+01    0.1000000000000001E+01
    0.3500000000000000E+01    0.2500000000000000E+01    0.1000000000000001E+01
    0.4000000000000000E+01    0.2500000000000000E+01    0.1000000000000001E+01
    0.4499999999999999E+01    0.2500000000000000E+01    0.1000000000000001E+01
    0.5000000000000000E+01    0.2500000000000000E+01    0.1000000000000001E+01
    0.0000000000000000E+00    0.2500000000000000E+01    0.1499999999999999E+01
    0.4999999999999994E+00    0.2500000000000000E+01    0.1499999999999999E+01
    0.1000000000000000E+01    0.2500000000000000E+01    0.1499999999999999E+01
    0.1500000000000000E+01    0.2500000000000000E+01    0.1499999999999999E+01
    0.2000000000000001E+01    0.2500000000000000E+01    0.1499999999999999E+01
    0.2500000000000000E+01    0.2500000000000000E+01    0.1499999999999999E+01
    0.2999999999999999E+01    0.2500000000000000E+01    0.1499999999999999E+01
    0.3500000000000000E+01    0.2500000000000000E+01    0.1499999999999999E+01
    0.4000000000000001E+01    0.2500000000000000E+01    0.1499999999999999E+01
    0.4500000000000001E+01    0.2500000000000000E+01    0.1499999999999999E+01
    0.5000000000000000E+01    0.2500000000000000E+01    0.1499999999999999E+01
    0.0000000000000000E+00    0.2500000000000000E+01    0.2000000000000002E+01
    0.4999999999999992E+00    0.2500000000000000E+01    0.2000000000000001E+01
    0.1000000000000000E+01    0.2500000000000000E+01    0.2000000000000001E+01
    0.1500000000000000E+01    0.2500000000000000E+01    0.2000000000000001E+01
    0.2000000000000001E+01    0.2500000000000000E+01    0.2000000000000001E+01
    0.2500000000000000E+01    0.2500000000000000E+01    0.2000000000000001E+01
    0.2999999999999999E+01    0.2500000000000000E+01    0.2000000000000000E+01
    0.3500000000000000E+01    0.2500000000000000E+01    0.2000000000000000E+01
    0.4000000000000000E+01    0.2500000000000000E+01    0.2000000000000000E+01
    0.4500000000000000E+01    0.2500000000000000E+01    0.2000000000000000E+01
    0.5000000000000000E+01    0.2500000000000000E+01    0.2000000000000000E+01
    0.0000000000000000E+00    0.2500000000000000E+01    0.2500000000000000E+01
    0.4999999999999991E+00    0.2500000000000000E+01    0.2500000000000000E+01
    0.1000000000000000E+01    0.2500000000000000E+01    0.2500000000000000E+01
    0.1500000000000000E+01    0.2500000000000000E+01    0.2500000000000000E+01
    0.2000000000000001E+01    0.2500000000000000E+01    0.2500000000000000E+01
    0.2500000000000000E+01    0.2500000000000000E+01    0.2500000000000000E+01
    0.2999999999999999E+01    0.2500000000000000E+01    0.2500000000000000E+01
    0.3500000000000001E+01    0.2500000000000000E+01    0.2500000000000000E+01
    0.4000000000000000E+01    0.2500000000000000E+01    0.2500000000000000E+01
    0.4500000000000001E+01    0.2500000000000000E+01    0.2500000000000000E+01
    0.5000000000000000E+01    0.2500000000000000E+01    0.2500000000000000E+01
    0.0000000000000000E+00    0.2500000000000000E+01    0.2999999999999998E+01
    0.4999999999999989E+00    0.2500000000000000E+01    0.2999999999999998E+01
    0.1000000000000000E+01    0.2500000000000000E+01    0.2999999999999999E+01
    0.1499999999999999E+01    0.2500000000000000E+01    0.2999999999999999E+01
    0.2000000000000001E+01    0.2500000000000000E+01    0.2999999999999999E+01
    0.2500000000000000E+01    0.2500000000000000E+01    0.2999999999999999E+01
    0.2999999999999999E+01    0.2500000000000000E+01    0.2999999999999999E+01
    0.3500000000000001E+01    0.2500000000000000E+01    0.3000000000000000E+01
    0.4000000000000000E+01    0.2500000000000000E+01    0.3000000000000000E+01
    0.4500000000000001E+01    0.2500000000000000E+01    0.3000000000000000E+01
    0.5000000000000000E+01    0.2500000000000000E+01    0.3000000000000000E+01
    0.0000000000000000E+00    0.2500000000000000E+01    0.3500000000000001E+01
    0.4999999999999988E+00    0.2500000000000000E+01    0.3500000000000001E+01
    0.1000000000000001E+01    0.2500000000000000E+01    0.3500000000000001E+01
    0.1499999999999999E+01    0.2500000000000000E+01    0.3500000000000001E+01
    0.2000000000000001E+01    0.2500000000000000E+01    0.3500000000000001E+01
    0.2500000000000000E+01    0.2500000000000000E+01    0.3500000000000001E+01
    0.2999999999999999E+01    0.2500000000000000E+01    0.3500000000000001E+01
    0.3500000000000001E+01    0.2500000000000000E+01    0.3500000000000001E+01
    0.4000000000000001E+01    0.2500000000000000E+01    0.3500000000000001E+01
    0.4500000000000001E+01    0.2500000000000000E+01    0.3500000000000001E+01
    0.5000000000000000E+01    0.2500000000000000E+01    0.3500000000000001E+01
    0.0000000000000000E+00    0.2500000000000000E+01    0.3999999999999999E+01
    0.4999999999999986E+00    0.2500000000000000E+01    0.4000000000000000E+01
    0.1000000000000001E+01    0.2500000000000000E+01    0.3999999999999999E+01
    0.1499999999999999E+01    0.2500000000000000E+01    0.3999999999999999E+01
    0.2000000000000001E+01    0.2500000000000000E+01    0.3999999999999999E+01
    0.2500000000000000E+01    0.2500000000000000E+01    0.3999999999999999E+01
    0.2999999999999998E+01    0.2500000000000000E+01    0.3999999999999999E+01
    0.3500000000000001E+01    0.2500000000000000E+01    0.3999999999999999E+01
    0.3999999999999999E+01    0.2500000000000000E+01    0.3999999999999999E+01
    0.4500000000000003E+01    0.2500000000000000E+01    0.3999999999999999E+01
    0.5000000000000000E+01    0.2500000000000000E+01    0.3999999999999999E+01
    0.0000000000000000E+00    0.2500000000000000E+01    0.4500000000000002E+01
    0.4999999999999984E+00    0.2500000000000000E+01    0.4500000000000002E+01
    0.1000000000000001E+01    0.2500000000000000E+01    0.4500000000000001E+01
    0.1499999999999999E+01    0.2500000000000000E+01    0.4500000000000003E+01
    0.2000000000000002E+01    0.2500000000000000E+01    0.4500000000000001E+01
    0.2500000000000000E+01    0.2500000000000000E+01    0.4500000000000001E+01
    0.2999999999999998E+01    0.2500000000000000E+01    0.4500000000000001E+01
    0.3500000000000001E+01    0.2500000000000000E+01    0.4499999999999999E+01
    0.3999999999999999E+01    0.2500000000000000E+01    0.4499999999999999E+01
    0.4500000000000002E+01    0.2500000000000000E+01    0.4500000000000000E+01
    0.5000000000000000E+01    0.2500000000000000E+01    0.4500000000000000E+01
    0.0000000000000000E+00    0.2500000000000000E+01    0.5000000000000000E+01
    0.4999999999999982E+00    0.2500000000000000E+01    0.5000000000000000E+01
    0.1000000000000001E+01    0.2500000000000000E+01    0.5000000000000000E+01
    0.1499999999999999E+01    0.2500000000000000E+01    0.5000000000000000E+01
    0.2000000000000002E+01    0.2500000000000000E+01    0.5000000000000000E+01
    0.2500000000000000E+01    0.2500000000000000E+01    0.5000000000000000E+01
    0.2999999999999998E+01    0.2500000000000000E+01    0.5000000000000000E+01
    0.3500000000000001E+01    0.2500000000000000E+01    0.5000000000000000E+01
    0.3999999999999999E+01    0.2500000000000000E+01    0.5000000000000000E+01
    0.4500000000000002E+01    0.2500000000000000E+01    0.5000000000000000E+01
    0.5000000000000000E+01    0.2500000000000000E+01    0.5000000000000000E+01
    0.0000000000000000E+00    0.2000000000000000E+01    0.0000000000000000E+00
    0.5000000000000000E+00    0.2000000000000000E+01    0.0000000000000000E+00
    0.1000000000000000E+01    0.2000000000000000E+01    0.0000000000000000E+00
    0.1500000000000000E+01    0.2000000000000000E+01    0.0000000000000000E+00
[...]
POINT_DATA 1331
SCALARS rho double 1
LOOKUP_TABLE default
   0.8235174380132627E+00
   0.9396220313256166E+00
   0.9565499739523562E+00
   0.9672675036368110E+00
   0.9721657362543944E+00
   0.9737204716137230E+00
   0.9749969988532987E+00
   0.9747978905676570E+00
   0.9596526098772105E+00
   0.8439530577087132E+00
   0.3949579038304991E+00
   0.9953599645846342E+00
   0.9949203187911798E+00
   0.9947752506355092E+00
   0.9943507265511523E+00
   0.9938647310195727E+00
   0.9926952964311054E+00
   0.9920125054627674E+00
   0.9882918227173353E+00
   0.9881114392261866E+00
   0.9782961924168446E+00
   0.1004309022598144E+01
   0.9954586702372229E+00
   0.9950680604125902E+00
   0.9949914266031039E+00
   0.9948488572935245E+00
   0.9945131308395001E+00
   0.9941834546652876E+00
   0.9932692785379809E+00
   0.9927863269941062E+00
   0.9873884926555156E+00
   0.9871724293685312E+00
   0.9628880166054691E+00
   0.9955662651540208E+00
   0.9955467851958445E+00
   0.9953652515834688E+00
   0.9951268216584501E+00
   0.9947807300074479E+00
   0.9943763321735597E+00
   0.9937581513723553E+00
   0.9936037886243915E+00
   0.9929762593345490E+00
   0.9954655709768020E+00
   0.9937469264936721E+00
   0.9955765272872827E+00
   0.9955265666814637E+00
   0.9954124421136215E+00
   0.9952624156774247E+00
   0.9949998707846994E+00
   0.9948207452902202E+00
   0.9943490611558996E+00
   0.9945235802511460E+00
   0.9936788136455126E+00
   0.9957807819816265E+00
   0.9959169485553034E+00
   0.9959442495291899E+00
   0.9959494754572954E+00
   0.9958165752413276E+00
   0.9956811236894166E+00
   0.9954845424603973E+00
   0.9954019394497995E+00
   0.9952027840589751E+00
   0.9956050551480088E+00
   0.9957544116476773E+00
   0.9973525503996091E+00
   0.9983383789243560E+00
   0.9961813610518422E+00
   0.9961740097518574E+00
   0.9960666329578632E+00
   0.9959674513271407E+00
   0.9958262813499625E+00
   0.9958309855538041E+00
   0.9957600717706832E+00
   0.9961101235273878E+00
   0.9963198867189319E+00
   0.9973847841423822E+00
   0.9983499068022383E+00
   0.9965922809295802E+00
   0.9965799702092001E+00
   0.9964168970254984E+00
   0.9962873955220993E+00
   0.9961488712990775E+00
   0.9961634760544772E+00
   0.9962221262156998E+00
   0.9966249802737872E+00
   0.9970780186145380E+00
   0.9979597001401672E+00
   0.9988462910459250E+00
   0.9970534236505528E+00
   0.9969735078404223E+00
   0.9967551529144455E+00
   0.9965937124553509E+00
   0.9964463837490000E+00
   0.9964272663780830E+00
   0.9964692910123711E+00
   0.9967759110716734E+00
   0.9972171286270056E+00
   0.9980322063214369E+00
   0.9989750591259051E+00
   0.9977081132949732E+00
   0.9974432316878757E+00
   0.9970806639088796E+00
   0.9968355670778214E+00
   0.9966593402373600E+00
   0.9966230660069464E+00
   0.9966795106915888E+00
   0.9969485737723905E+00
   0.9973678797499885E+00
   0.9981181923971483E+00
   0.9990517010672774E+00
   0.9985879386341461E+00
   0.9978490286632731E+00
   0.9973601321311563E+00
   0.9970253832439223E+00
   0.9967831450127831E+00
   0.9966716569305477E+00
   0.9966627473205684E+00
   0.9968646289990553E+00
   0.9972807862055353E+00
   0.9980324123787216E+00
   0.9990222370189142E+00
   0.8232372425177085E+00
   0.9396111464252365E+00
   0.9567075179469361E+00
   0.9672962902799075E+00
   0.9720218894510150E+00
   0.9735316234075910E+00
   0.9747110159987415E+00
   0.9744681000663286E+00
   0.9594084525134583E+00
   0.8445627303462994E+00
   0.3976837993989878E+00
   0.9953604178181794E+00
   0.9949447461203791E+00
   0.9948085267303418E+00
   0.9943847972443187E+00
   0.9939055521006435E+00
   0.9927346353922699E+00
   0.9920351654849516E+00
   0.9882137459237493E+00
   0.9878084717453750E+00
   0.9781214289653443E+00
   0.1004481950442239E+01
   0.9954380252574486E+00
   0.9950651042779809E+00
   0.9949911219530357E+00
   0.9948438342189592E+00
   0.9945044810174599E+00
   0.9941693695104347E+00
   0.9932463343986634E+00
   0.9927533406780138E+00
   0.9873560560413490E+00
   0.9872006598750003E+00
   0.9630414654798557E+00
   0.9955645108233777E+00
   0.9955448847015106E+00
   0.9953678768090640E+00
   0.9951320811975438E+00
   0.9947872611172982E+00
   0.9943801599113518E+00
   0.9937526101587834E+00
   0.9935785856171652E+00
   0.9929205662114556E+00
   0.9954098283932828E+00
   0.9937516398683128E+00
   0.9955755855762453E+00
   0.9955249449365068E+00
   0.9954108083778287E+00
   0.9952608075900176E+00
   0.9949986072277317E+00
   0.9948186660418281E+00
   0.9943443596700023E+00
   0.9945150109306730E+00
   0.9936633032723324E+00
   0.9957598092673698E+00
   0.9959097037594993E+00
   0.9959445711046138E+00
   0.9959492247885279E+00
   0.9958163011831155E+00
   0.9956808712135585E+00
   0.9954844135746939E+00
   0.9954010692461537E+00
   0.9951994462078653E+00
   0.9955976513668929E+00
   0.9957420626568576E+00
   0.9973360407158030E+00
   0.9983278159094567E+00
   0.9961814887035041E+00
   0.9961738938679676E+00
   0.9960663277561894E+00
   0.9959670016715123E+00
   0.9958255535243405E+00
   0.9958295324275319E+00
   0.9957571262977010E+00
   0.9961054123966632E+00
   0.9963137432046743E+00
   0.9973787313051640E+00
   0.9983484898735738E+00
   0.9965922180328206E+00
   0.9965799047047934E+00
   0.9964167785801060E+00
   0.9962874937501178E+00
   0.9961489808981692E+00
   0.9961631622968707E+00
   0.9962206372252456E+00
   0.9966221458728531E+00
   0.9970742532851039E+00
   0.9979568288623045E+00
   0.9988456803409678E+00
   0.9970534188347090E+00
   0.9969735230478471E+00
   0.9967551781092546E+00
   0.9965938391483132E+00
   0.9964462498466552E+00
   0.9964265237765328E+00
   0.9964673588373869E+00
   0.9967733573873803E+00
   0.9972150303924351E+00
   0.9980345398097781E+00
   0.9989823143382496E+00
   0.9977081866958829E+00
   0.9974434196663922E+00
   0.9970809828290746E+00
   0.9968358453671420E+00
   0.9966592239994454E+00
   0.9966224165305175E+00
   0.9966782102312531E+00
   0.9969473089748715E+00
   0.9973678291274506E+00
   0.9981235457024328E+00
   0.9990625996606550E+00
   0.9985881814115969E+00
   0.9978491515802342E+00
   0.9973603009715908E+00
   0.9970256954214727E+00
   0.9967834465299404E+00
   0.9966715336803279E+00
   0.9966609971962490E+00
   0.9968613771763721E+00
   0.9972761124933089E+00
   0.9980304170435443E+00
   0.9990243426051050E+00
   0.8233092087609126E+00
   0.9397083667933176E+00
   0.9568389906517080E+00
   0.9674263918648157E+00
   0.9722066554922530E+00
   0.9737252037401386E+00
   0.9749803253204421E+00
   0.9747640472725755E+00
   0.9598043647820482E+00
   0.8449510037480017E+00
   0.3977548223897693E+00
   0.9953607347875442E+00
   0.9949394522284737E+00
   0.9948000521470549E+00
   0.9943773539161441E+00
   0.9938973258170173E+00
   0.9927283414854716E+00
   0.9920318813134631E+00
   0.9882268868029076E+00
   0.9878620276616188E+00
   0.9781949937552762E+00
   0.1004479798909179E+01
   0.9954451782489980E+00
   0.9950687472941565E+00
   0.9949905676056906E+00
   0.9948437782016177E+00
   0.9945055698405558E+00
   0.9941726170343917E+00
   0.9932518254378522E+00
   0.9927603771709589E+00
   0.9873676124143070E+00
   0.9872044039969594E+00
   0.9630141824467523E+00
   0.9955647931208007E+00
   0.9955452845123697E+00
   0.9953663353173261E+00
   0.9951290763568853E+00
   0.9947834463043829E+00
   0.9943775113838335E+00
   0.9937547031934610E+00
   0.9935882690636457E+00
   0.9929411205171471E+00
   0.9954355010225717E+00
   0.9937545312671755E+00
   0.9955762323943659E+00
   0.9955263852438319E+00
   0.9954118384089095E+00
   0.9952616255157736E+00
   0.9949991697685518E+00
   0.9948196488524099E+00
   0.9943468852547096E+00
   0.9945202810177921E+00
   0.9936720121200380E+00
   0.9957721794054690E+00
   0.9959172305999078E+00
   0.9959443661775836E+00
   0.9959494451209481E+00
   0.9958166066127050E+00
   0.9956809528062009E+00
   0.9954840960033640E+00
   0.9954010003831186E+00
   0.9952007822021817E+00
   0.9956017856944959E+00
   0.9957499877640293E+00
   0.9973481242960706E+00
   0.9983383171109615E+00
   0.9961813252653103E+00
   0.9961739955521691E+00
   0.9960665994358250E+00
   0.9959673818787625E+00
   0.9958261183968086E+00
   0.9958306305785527E+00
   0.9957593459968477E+00
   0.9961088912135935E+00
   0.9963182840864379E+00
   0.9973831464835637E+00
   0.9983495966603576E+00
   0.9965922528633142E+00
   0.9965799403118771E+00
   0.9964168416771253E+00
   0.9962872899003222E+00
   0.9961487032148607E+00
   0.9961632122754434E+00
   0.9962217135869035E+00
   0.9966243662407017E+00
   0.9970773323277553E+00
   0.9979591269895478E+00
   0.9988462312992771E+00
   0.9970534041329546E+00
   0.9969734966682945E+00
   0.9967551297319860E+00
   0.9965936445564549E+00
   0.9964462525443262E+00
   0.9964270647660616E+00
   0.9964690237732151E+00
   0.9967755792416400E+00
   0.9972168163158239E+00
   0.9980320253491346E+00
   0.9989751689907886E+00
   0.9977080952102720E+00
   0.9974432115566665E+00
   0.9970806463951957E+00
   0.9968355262257536E+00
   0.9966592476801812E+00
   0.9966229155010445E+00
   0.9966793184011583E+00
   0.9969483527079560E+00
   0.9973676796894849E+00
   0.9981180938814876E+00
   0.9990517856964379E+00
   0.9985879300242786E+00
   0.9978490079873585E+00
   0.9973601189864642E+00
   0.9970253750801841E+00
   0.9967831088560044E+00
   0.9966715542238743E+00
   0.9966625733957870E+00
   0.9968644107930588E+00
   0.9972805991670156E+00
   0.9980323490999564E+00
   0.9990223295287050E+00
   0.8233220834849837E+00
   0.9396301184596275E+00
   0.9567548060420887E+00
   0.9673310553857352E+00
   0.9720346643880594E+00
   0.9735322206205343E+00
   0.9747064122099548E+00
   0.9744776136650567E+00
   0.9594949400990791E+00
   0.8447597905091822E+00
   0.3977509235336474E+00
   0.9953620968151067E+00
   0.9949399093597185E+00
   0.9948010463043071E+00
   0.9943770816178255E+00
   0.9938965338050285E+00
   0.9927231536392467E+00
   0.9920196824338172E+00
   0.9881971731255857E+00
   0.9878096581054885E+00
   0.9781631365589273E+00
   0.1004521786654707E+01
   0.9954442522268937E+00
   0.9950687172082160E+00
   0.9949912246037148E+00
   0.9948430121511028E+00
   0.9945035785217128E+00
   0.9941679628415619E+00
   0.9932456617715659E+00
   0.9927540981941977E+00
   0.9873643103985402E+00
   0.9872163639540966E+00
   0.9630462478444727E+00
   0.9955647926143002E+00
   0.9955457841575591E+00
   0.9953678030494291E+00
   0.9951307104843535E+00
   0.9947846776055713E+00
   0.9943761336607397E+00
   0.9937479968964740E+00
   0.9935753137740659E+00
   0.9929206819422695E+00
   0.9954177014564024E+00
   0.9937576902366186E+00
   0.9955762373405774E+00
   0.9955260131471954E+00
   0.9954115382581478E+00
   0.9952611681954192E+00
   0.9949986426691839E+00
   0.9948184309937089E+00
   0.9943440102635197E+00
   0.9945155717516871E+00
   0.9936650829614753E+00
   0.9957640567221410E+00
   0.9959144735363127E+00
   0.9959444980923908E+00
   0.9959493505751054E+00
   0.9958165634077485E+00
   0.9956810462802236E+00
   0.9954842780806561E+00
   0.9954006377397229E+00
   0.9951988858886729E+00
   0.9955977069902574E+00
   0.9957432823063510E+00
   0.9973396232853469E+00
   0.9983315922134213E+00
   0.9961815682655407E+00
   0.9961739882543215E+00
   0.9960664095486667E+00
   0.9959671194269257E+00
   0.9958256623730869E+00
   0.9958296082481507E+00
   0.9957571725812296E+00
   0.9961056812048187E+00
   0.9963142570783372E+00
   0.9973798785889409E+00
   0.9983490222539120E+00
   0.9965923030663020E+00
   0.9965799434541124E+00
   0.9964168174395466E+00
   0.9962875277960344E+00
   0.9961489936744513E+00
   0.9961631738211313E+00
   0.9962206787791498E+00
   0.9966223730356299E+00
   0.9970746398241337E+00
   0.9979573186365694E+00
   0.9988456420762468E+00
   0.9970534807860451E+00
   0.9969735601028172E+00
   0.9967552162529359E+00
   0.9965938966142990E+00
   0.9964463211154926E+00
   0.9964265924229804E+00
   0.9964674196128324E+00
   0.9967734753036420E+00
   0.9972151853910668E+00
   0.9980346540880977E+00
   0.9989822034818104E+00
   0.9977082097152613E+00
   0.9974434288792668E+00
   0.9970809819055274E+00
   0.9968358825312682E+00
   0.9966593245958310E+00
   0.9966225511845597E+00
   0.9966783311533542E+00
   0.9969474123466027E+00
   0.9973678856465501E+00
   0.9981235197880587E+00
   0.9990624850698219E+00
   0.9985881750933550E+00
   0.9978491806160449E+00
   0.9973603296668851E+00
   0.9970257095582030E+00
   0.9967834745380232E+00
   0.9966716122286121E+00
   0.9966611419787822E+00
   0.9968615868406945E+00
   0.9972762944341046E+00
   0.9980304088413019E+00
   0.9990241934122902E+00
   0.8232999252290545E+00
   0.9397060074017353E+00
   0.9568478515991589E+00
   0.9674342487667447E+00
   0.9722071928273399E+00
   0.9737199480618939E+00
   0.9749727737204571E+00
   0.9747592938798816E+00
   0.9598185238912488E+00
   0.8449899581694400E+00
   0.3977672389108361E+00
   0.9953611661705152E+00
   0.9949406936686961E+00
   0.9948020055962655E+00
   0.9943782635589463E+00
   0.9938971843241348E+00
   0.9927240837106166E+00
   0.9920192756214075E+00
   0.9881961732347400E+00
   0.9878034924884248E+00
   0.9781486169117468E+00
   0.1004495107497312E+01
   0.9954425531118009E+00
   0.9950679068740607E+00
   0.9949907907542436E+00
   0.9948435789329521E+00
   0.9945044758971323E+00
   0.9941700267352678E+00
   0.9932479024222024E+00
   0.9927559446330828E+00
   0.9873646843029567E+00
   0.9872099453275881E+00
   0.9630314469968908E+00
   0.9955645685149785E+00
   0.9955451604329681E+00
   0.9953667868733803E+00
   0.9951297611695109E+00
   0.9947838230608117E+00
   0.9943762996762694E+00
   0.9937501166465567E+00
   0.9935793014489954E+00
   0.9929274401997321E+00
   0.9954247176436068E+00
   0.9937589678994447E+00
   0.9955758315153567E+00
   0.9955258484237945E+00
   0.9954113826218302E+00
   0.9952611910098367E+00
   0.9949986210304236E+00
   0.9948187661670843E+00
   0.9943453012966865E+00
   0.9945180047139974E+00
   0.9936693776336140E+00
   0.9957708453607158E+00
   0.9959196106741686E+00
   0.9959443444510494E+00
   0.9959492411881216E+00
   0.9958163105561283E+00
   0.9956806024513516E+00
   0.9954836178778889E+00
   0.9954001149603965E+00
   0.9951991464726210E+00
   0.9955991850634903E+00
   0.9957466003625257E+00
   0.9973450369341422E+00
   0.9983370154333333E+00
   0.9961813425135169E+00
   0.9961738957414470E+00
   0.9960663512200433E+00
   0.9959670051261348E+00
   0.9958256903626392E+00
   0.9958301289986160E+00
   0.9957586780849051E+00
   0.9961079186787331E+00
   0.9963168526440217E+00
   0.9973811590831564E+00
   0.9983483092075167E+00
   0.9965922326441834E+00
   0.9965799097460754E+00
   0.9964167282898106E+00
   0.9962870289875605E+00
   0.9961483025907875E+00
   0.9961626882840628E+00
   0.9962211019402468E+00
   0.9966237075189265E+00
   0.9970766767345126E+00
   0.9979583458493846E+00
   0.9988461920702334E+00
   0.9970533521284857E+00
   0.9969734727740311E+00
   0.9967550750318563E+00
   0.9965935173849456E+00
   0.9964460263471410E+00
   0.9964267190443544E+00
   0.9964685692662498E+00
   0.9967750606335263E+00
   0.9972163651309226E+00
   0.9980317061257806E+00
   0.9989754156580115E+00
   0.9977080466662229E+00
   0.9974431877841069E+00
   0.9970805862143799E+00
   0.9968353957925385E+00
   0.9966590634988911E+00
   0.9966227020167515E+00
   0.9966790716601571E+00
   0.9969480477975043E+00
   0.9973673506615438E+00
   0.9981178147279463E+00
   0.9990517394814116E+00
   0.9985878856328797E+00
   0.9978489748986741E+00
   0.9973601000658422E+00
   0.9970253348103857E+00
   0.9967830063864488E+00
   0.9966713814668509E+00
   0.9966623538329917E+00
   0.9968641399025783E+00
   0.9972803077779218E+00
   0.9980321288896543E+00
   0.9990222316099855E+00
   0.8233181711644808E+00
   0.9396317209984527E+00
   0.9567593161907310E+00
   0.9673338315896347E+00
   0.9720341450670884E+00
   0.9735296429004348E+00
   0.9747035383108690E+00
   0.9744760406548035E+00
   0.9594971240763308E+00
   0.8447656574973540E+00
   0.3977515254813797E+00
   0.9953621469229691E+00
   0.9949402546835482E+00
   0.9948014906163164E+00
   0.9943772271032103E+00
   0.9938963979218375E+00
   0.9927223474132821E+00
   0.9920181007670581E+00
   0.9881949875501684E+00
   0.9878034250041137E+00
   0.9781564484723085E+00
   0.1004523314109477E+01
   0.9954441968287867E+00
   0.9950687354090102E+00
   0.9949913249739950E+00
   0.9948432477368799E+00
   0.9945034863512892E+00
   0.9941672632770520E+00
   0.9932447909433461E+00
   0.9927544707547196E+00
   0.9873671816318774E+00
   0.9872220651982431E+00
   0.9630541426556434E+00
   0.9955650759604308E+00
   0.9955457400848428E+00
   0.9953674285632935E+00
   0.9951302661646360E+00
   0.9947842694897439E+00
   0.9943755062145768E+00
   0.9937467123454305E+00
   0.9935736077986855E+00
   0.9929191669718828E+00
   0.9954188517141807E+00
   0.9937614655820590E+00
   0.9955763189677175E+00
   0.9955262402395421E+00
   0.9954116157015427E+00
   0.9952610356637238E+00
   0.9949983811970661E+00
   0.9948181367310710E+00
   0.9943436972157736E+00
   0.9945152702613287E+00
   0.9936647027006968E+00
   0.9957642040452691E+00
   0.9959141100919975E+00
   0.9959445966936464E+00
   0.9959494490130569E+00
   0.9958165922239819E+00
   0.9956809562859721E+00
   0.9954840953018647E+00
   0.9954004095838026E+00
   0.9951986278967443E+00
   0.9955974561805334E+00
   0.9957427046070964E+00
   0.9973387797627300E+00
   0.9983307417833123E+00
   0.9961815815464233E+00
   0.9961740900328135E+00
   0.9960665292078583E+00
   0.9959671494825755E+00
   0.9958255992852064E+00
   0.9958295498704980E+00
   0.9957572209615921E+00
   0.9961059679731055E+00
   0.9963145590056139E+00
   0.9973798454944840E+00
   0.9983493190995538E+00
   0.9965922769978596E+00
   0.9965799726690701E+00
   0.9964169028565704E+00
   0.9962876174855471E+00
   0.9961490027266207E+00
   0.9961630972548376E+00
   0.9962205905421847E+00
   0.9966224858883797E+00
   0.9970750891266204E+00
   0.9979580191481955E+00
   0.9988467113589439E+00
   0.9970534683245298E+00
   0.9969735512229821E+00
   0.9967552536119194E+00
   0.9965940036444192E+00
   0.9964464396694847E+00
   0.9964266518950788E+00
   0.9964673884687650E+00
   0.9967734438587922E+00
   0.9972153556908803E+00
   0.9980351932239279E+00
   0.9989828014845491E+00
   0.9977082113686085E+00
   0.9974434106766588E+00
   0.9970809879632746E+00
   0.9968359347321405E+00
   0.9966593955967638E+00
   0.9966226116653810E+00
   0.9966783723767212E+00
   0.9969474641926978E+00
   0.9973680443982690E+00
   0.9981238689933060E+00
   0.9990625490804433E+00
   0.9985882053525603E+00
   0.9978491603463451E+00
   0.9973602800093837E+00
   0.9970257042236363E+00
   0.9967835880468715E+00
   0.9966718322716663E+00
   0.9966613764473872E+00
   0.9968616819857430E+00
   0.9972761812934244E+00
   0.9980303177788405E+00
   0.9990237724071336E+00
   0.8232999251483053E+00
   0.9397060072378945E+00
   0.9568478514685331E+00
   0.9674342487593400E+00
   0.9722071927461405E+00
   0.9737199479871541E+00
   0.9749727736127883E+00
   0.9747592939454235E+00
   0.9598185239829367E+00
   0.8449899579180480E+00
   0.3977672389238506E+00
   0.9953611661175440E+00
   0.9949406935950266E+00
   0.9948020055386616E+00
   0.9943782635363327E+00
   0.9938971843244568E+00
   0.9927240837194304E+00
   0.9920192756251250E+00
   0.9881961732010149E+00
   0.9878034924663406E+00
   0.9781486168631600E+00
   0.1004495107580889E+01
   0.9954425531375078E+00
   0.9950679069074075E+00
   0.9949907907749261E+00
   0.9948435789299394E+00
   0.9945044758848500E+00
   0.9941700267313599E+00
   0.9932479024323823E+00
   0.9927559446735864E+00
   0.9873646843700324E+00
   0.9872099453729382E+00
   0.9630314469748728E+00
   0.9955645684888988E+00
   0.9955451604070381E+00
   0.9953667868626616E+00
   0.9951297611587194E+00
   0.9947838230302929E+00
   0.9943762996264174E+00
   0.9937501165889316E+00
   0.9935793014224853E+00