title="tecplot geometry and solution file"
variables = x y z rho u v w p mach temperature
zone t="boundary 1 bc-1", solutiontime= 0.1000000E+03, strandid=1001, i=121, j=100, f=feblock
  0.000000000000E+00  0.000000000000E+00  0.000000000000E+00  0.000000000000E+00  0.000000000000E+00  0.000000000000E+00  0.000000000000E+00
  0.000000000000E+00  0.000000000000E+00  0.000000000000E+00  0.000000000000E+00  0.000000000000E+00  0.000000000000E+00  0.000000000000E+00
  0.000000000000E+00  0.000000000000E+00  0.000000000000E+00  0.000000000000E+00  0.000000000000E+00  0.000000000000E+00  0.000000000000E+00
  0.000000000000E+00  0.000000000000E+00  0.000000000000E+00  0.000000000000E+00  0.000000000000E+00  0.000000000000E+00  0.000000000000E+00
  0.000000000000E+00  0.000000000000E+00  0.000000000000E+00  0.000000000000E+00  0.000000000000E+00  0.000000000000E+00  0.000000000000E+00
  0.000000000000E+00  0.000000000000E+00  0.000000000000E+00  0.000000000000E+00  0.000000000000E+00  0.000000000000E+00  0.000000000000E+00
  0.000000000000E+00  0.000000000000E+00  0.000000000000E+00  0.000000000000E+00  0.000000000000E+00  0.000000000000E+00  0.000000000000E+00
  0.000000000000E+00  0.000000000000E+00  0.000000000000E+00  0.000000000000E+00  0.000000000000E+00  0.000000000000E+00  0.000000000000E+00
  0.000000000000E+00  0.000000000000E+00  0.000000000000E+00  0.000000000000E+00  0.000000000000E+00  0.000000000000E+00  0.000000000000E+00
  0.000000000000E+00  0.000000000000E+00  0.000000000000E+00  0.000000000000E+00  0.000000000000E+00  0.000000000000E+00  0.000000000000E+00
  0.000000000000E+00  0.000000000000E+00  0.000000000000E+00  0.000000000000E+00  0.000000000000E+00  0.000000000000E+00  0.000000000000E+00
  0.000000000000E+00  0.000000000000E+00  0.000000000000E+00  0.000000000000E+00  0.000000000000E+00  0.000000000000E+00  0.000000000000E+00
  0.000000000000E+00  0.000000000000E+00  0.000000000000E+00  0.000000000000E+00  0.000000000000E+00  0.000000000000E+00  0.000000000000E+00
  0.000000000000E+00  0.000000000000E+00  0.000000000000E+00  0.000000000000E+00  0.000000000000E+00  0.000000000000E+00  0.000000000000E+00
  0.000000000000E+00  0.000000000000E+00  0.000000000000E+00  0.000000000000E+00  0.000000000000E+00  0.000000000000E+00  0.000000000000E+00
  0.000000000000E+00  0.000000000000E+00  0.000000000000E+00  0.000000000000E+00  0.000000000000E+00  0.000000000000E+00  0.000000000000E+00
  0.000000000000E+00  0.000000000000E+00  0.000000000000E+00  0.000000000000E+00  0.000000000000E+00  0.000000000000E+00  0.000000000000E+00
  0.000000000000E+00  0.000000000000E+00
  0.250000000000E+01  0.250000000000E+01  0.200000000000E+01  0.250000000000E+01  0.200000000000E+01  0.150000000000E+01  0.250000000000E+01
  0.200000000000E+01  0.150000000000E+01  0.100000000000E+01  0.250000000000E+01  0.200000000000E+01  0.150000000000E+01  0.100000000000E+01
  0.500000000000E+00  0.250000000000E+01  0.200000000000E+01  0.150000000000E+01  0.100000000000E+01  0.500000000000E+00  0.000000000000E+00
  0.250000000000E+01  0.200000000000E+01  0.150000000000E+01  0.100000000000E+01  0.500000000000E+00  0.000000000000E+00 -0.500000000000E+00
  0.250000000000E+01  0.200000000000E+01  0.150000000000E+01  0.100000000000E+01  0.500000000000E+00  0.000000000000E+00 -0.500000000000E+00
 -0.100000000000E+01  0.250000000000E+01  0.200000000000E+01  0.150000000000E+01  0.100000000000E+01  0.500000000000E+00  0.000000000000E+00
 -0.500000000000E+00 -0.100000000000E+01 -0.150000000000E+01  0.250000000000E+01  0.200000000000E+01  0.150000000000E+01  0.100000000000E+01
  0.500000000000E+00  0.000000000000E+00 -0.500000000000E+00 -0.100000000000E+01 -0.150000000000E+01 -0.200000000000E+01  0.250000000000E+01
  0.200000000000E+01  0.150000000000E+01  0.100000000000E+01  0.500000000000E+00  0.000000000000E+00 -0.500000000000E+00 -0.100000000000E+01
 -0.150000000000E+01 -0.200000000000E+01 -0.250000000000E+01  0.200000000000E+01  0.150000000000E+01  0.100000000000E+01  0.500000000000E+00
  0.000000000000E+00 -0.500000000000E+00 -0.100000000000E+01 -0.150000000000E+01 -0.200000000000E+01 -0.250000000000E+01  0.150000000000E+01
  0.100000000000E+01  0.500000000000E+00  0.000000000000E+00 -0.500000000000E+00 -0.100000000000E+01 -0.150000000000E+01 -0.200000000000E+01
 -0.250000000000E+01  0.100000000000E+01  0.500000000000E+00  0.000000000000E+00 -0.500000000000E+00 -0.100000000000E+01 -0.150000000000E+01
 -0.200000000000E+01 -0.250000000000E+01  0.500000000000E+00  0.000000000000E+00 -0.500000000000E+00 -0.100000000000E+01 -0.150000000000E+01
 -0.200000000000E+01 -0.250000000000E+01  0.000000000000E+00 -0.500000000000E+00 -0.100000000000E+01 -0.150000000000E+01 -0.200000000000E+01
 -0.250000000000E+01 -0.500000000000E+00 -0.100000000000E+01 -0.150000000000E+01 -0.200000000000E+01 -0.250000000000E+01 -0.100000000000E+01
 -0.150000000000E+01 -0.200000000000E+01 -0.250000000000E+01 -0.150000000000E+01 -0.200000000000E+01 -0.250000000000E+01 -0.200000000000E+01
 -0.250000000000E+01 -0.250000000000E+01
  0.000000000000E+00  0.500000000000E+00  0.000000000000E+00  0.100000000000E+01  0.500000000000E+00  0.000000000000E+00  0.150000000000E+01
  0.100000000000E+01  0.500000000000E+00  0.000000000000E+00  0.200000000000E+01  0.150000000000E+01  0.100000000000E+01  0.500000000000E+00
  0.000000000000E+00  0.250000000000E+01  0.200000000000E+01  0.150000000000E+01  0.100000000000E+01  0.500000000000E+00  0.000000000000E+00
  0.300000000000E+01  0.250000000000E+01  0.200000000000E+01  0.150000000000E+01  0.100000000000E+01  0.500000000000E+00  0.000000000000E+00
  0.350000000000E+01  0.300000000000E+01  0.250000000000E+01  0.200000000000E+01  0.150000000000E+01  0.100000000000E+01  0.500000000000E+00
  0.000000000000E+00  0.400000000000E+01  0.350000000000E+01  0.300000000000E+01  0.250000000000E+01  0.200000000000E+01  0.150000000000E+01
  0.100000000000E+01  0.500000000000E+00  0.000000000000E+00  0.450000000000E+01  0.400000000000E+01  0.350000000000E+01  0.300000000000E+01
  0.250000000000E+01  0.200000000000E+01  0.150000000000E+01  0.100000000000E+01  0.500000000000E+00  0.000000000000E+00  0.500000000000E+01
  0.450000000000E+01  0.400000000000E+01  0.350000000000E+01  0.300000000000E+01  0.250000000000E+01  0.200000000000E+01  0.150000000000E+01
  0.100000000000E+01  0.500000000000E+00  0.000000000000E+00  0.500000000000E+01  0.450000000000E+01  0.400000000000E+01  0.350000000000E+01
  0.300000000000E+01  0.250000000000E+01  0.200000000000E+01  0.150000000000E+01  0.100000000000E+01  0.500000000000E+00  0.500000000000E+01
  0.450000000000E+01  0.400000000000E+01  0.350000000000E+01  0.300000000000E+01  0.250000000000E+01  0.200000000000E+01  0.150000000000E+01
  0.100000000000E+01  0.500000000000E+01  0.450000000000E+01  0.400000000000E+01  0.350000000000E+01  0.300000000000E+01  0.250000000000E+01
  0.200000000000E+01  0.150000000000E+01  0.500000000000E+01  0.450000000000E+01  0.400000000000E+01  0.350000000000E+01  0.300000000000E+01
  0.250000000000E+01  0.200000000000E+01  0.500000000000E+01  0.450000000000E+01  0.400000000000E+01  0.350000000000E+01  0.300000000000E+01
  0.250000000000E+01  0.500000000000E+01  0.450000000000E+01  0.400000000000E+01  0.350000000000E+01  0.300000000000E+01  0.500000000000E+01
  0.450000000000E+01  0.400000000000E+01  0.350000000000E+01  0.500000000000E+01  0.450000000000E+01  0.400000000000E+01  0.500000000000E+01
  0.450000000000E+01  0.500000000000E+01
  0.821841948039E+00  0.995179971332E+00  0.821837536507E+00  0.995365175443E+00  0.995187137955E+00  0.821838310373E+00  0.995415466471E+00
  0.995365601094E+00  0.995186579608E+00  0.821838257578E+00  0.995634988080E+00  0.995416597799E+00  0.995365426243E+00  0.995187832764E+00
  0.821838694054E+00  0.995886055134E+00  0.995635237179E+00  0.995416376634E+00  0.995365664374E+00  0.995187952212E+00  0.821838577088E+00
  0.996207412722E+00  0.995886196697E+00  0.995635168156E+00  0.995416727583E+00  0.995365717860E+00  0.995188073727E+00  0.821838694029E+00
  0.996583709296E+00  0.996207406847E+00  0.995886166919E+00  0.995635225039E+00  0.995416770567E+00  0.995365699628E+00  0.995187952207E+00
  0.821838257605E+00  0.997053291011E+00  0.996583662238E+00  0.996207445355E+00  0.995886183890E+00  0.995635279293E+00  0.995416782977E+00
  0.995365717854E+00  0.995187832759E+00  0.821838310303E+00  0.997707869613E+00  0.997053223535E+00  0.996583722007E+00  0.996207382340E+00
  0.995886243134E+00  0.995635216737E+00  0.995416770562E+00  0.995365664366E+00  0.995186579587E+00  0.821837536618E+00  0.998593806085E+00
  0.997707801771E+00  0.997053293391E+00  0.996583641638E+00  0.996207466940E+00  0.995886177286E+00  0.995635279289E+00  0.995416727575E+00
  0.995365426228E+00  0.995187137945E+00  0.821841948084E+00  0.998593765464E+00  0.997707869155E+00  0.997053207723E+00  0.996583729285E+00
  0.996207368545E+00  0.995886243130E+00  0.995635225032E+00  0.995416376620E+00  0.995365601083E+00  0.995179971291E+00  0.998593805276E+00
  0.997707791027E+00  0.997053292584E+00  0.996583630077E+00  0.996207466937E+00  0.995886183883E+00  0.995635168150E+00  0.995416597779E+00
  0.995365175474E+00  0.998593759747E+00  0.997707866594E+00  0.997053198616E+00  0.996583729283E+00  0.996207382335E+00  0.995886166911E+00
  0.995635237165E+00  0.995415466473E+00  0.998593803226E+00  0.997707784753E+00  0.997053292583E+00  0.996583641633E+00  0.996207445350E+00
  0.995886196683E+00  0.995634988093E+00  0.998593756366E+00  0.997707866593E+00  0.997053207720E+00  0.996583722001E+00  0.996207406838E+00
  0.995886055136E+00  0.998593803225E+00  0.997707791024E+00  0.997053293387E+00  0.996583662230E+00  0.996207412723E+00  0.998593759746E+00
  0.997707869151E+00  0.997053223529E+00  0.996583709293E+00  0.998593805274E+00  0.997707801767E+00  0.997053291008E+00  0.998593765462E+00
  0.997707869610E+00  0.998593806083E+00
  0.000000000000E+00  0.504826779635E+00  0.000000000000E+00  0.504643297291E+00  0.504804523293E+00  0.000000000000E+00  0.504565142001E+00
  0.504644220001E+00  0.504805401834E+00  0.000000000000E+00  0.504344276428E+00  0.504564119067E+00  0.504644387494E+00  0.504804192140E+00
  0.000000000000E+00  0.504091609996E+00  0.504344054888E+00  0.504564320660E+00  0.504644157149E+00  0.504804126132E+00  0.000000000000E+00
  0.503765973762E+00  0.504091495035E+00  0.504344105934E+00  0.504563983346E+00  0.504644106072E+00  0.504803993200E+00  0.000000000000E+00
  0.503382171797E+00  0.503765985037E+00  0.504091504059E+00  0.504344054175E+00  0.504563928917E+00  0.504644123455E+00  0.504804126138E+00
  0.000000000000E+00  0.502907041691E+00  0.503382224991E+00  0.503765941754E+00  0.504091496813E+00  0.504343993742E+00  0.504563925072E+00
  0.504644106078E+00  0.504804192144E+00  0.000000000000E+00  0.502259432537E+00  0.502907099410E+00  0.503382158168E+00  0.503766002730E+00
  0.504091422796E+00  0.504344058971E+00  0.504563928922E+00  0.504644157158E+00  0.504805401859E+00  0.000000000000E+00  0.501467001178E+00
  0.502259491439E+00  0.502907038589E+00  0.503382240553E+00  0.503765917390E+00  0.504091498571E+00  0.504343993745E+00  0.504563983354E+00
  0.504644387508E+00  0.504804523309E+00  0.000000000000E+00  0.501467025564E+00  0.502259432472E+00  0.502907112093E+00  0.503382148028E+00
  0.503766013415E+00  0.504091422800E+00  0.504344054183E+00  0.504564320672E+00  0.504644220008E+00  0.504826779695E+00  0.501467001771E+00
  0.502259500091E+00  0.502907037879E+00  0.503382249352E+00  0.503765917392E+00  0.504091496820E+00  0.504344105939E+00  0.504564119082E+00
  0.504643297267E+00  0.501467030157E+00  0.502259434084E+00  0.502907119508E+00  0.503382148030E+00  0.503766002735E+00  0.504091504066E+00
  0.504344054903E+00  0.504565141992E+00  0.501467003539E+00  0.502259505276E+00  0.502907037880E+00  0.503382240558E+00  0.503765941758E+00
  0.504091495049E+00  0.504344276418E+00  0.501467032994E+00  0.502259434085E+00  0.502907112096E+00  0.503382158173E+00  0.503765985047E+00
  0.504091609994E+00  0.501467003540E+00  0.502259500093E+00  0.502907038593E+00  0.503382224999E+00  0.503765973761E+00  0.501467030158E+00
  0.502259432475E+00  0.502907099416E+00  0.503382171799E+00  0.501467001772E+00  0.502259491443E+00  0.502907041694E+00  0.501467025567E+00
  0.502259432538E+00  0.501467001180E+00
  0.000000000000E+00  0.000000000000E+00  0.000000000000E+00  0.000000000000E+00  0.238202700287E-05  0.000000000000E+00  0.000000000000E+00
 -0.683683497815E-07  0.185202982637E-06  0.000000000000E+00  0.000000000000E+00  0.200522258314E-06  0.224987495608E-07  0.218740373118E-06
  0.000000000000E+00  0.000000000000E+00  0.116447587494E-07  0.897819849048E-09  0.930821907346E-07  0.661471588752E-08  0.000000000000E+00
  0.000000000000E+00  0.129619012383E-07 -0.880369058230E-08  0.484502900204E-07  0.230149075609E-07  0.523028079740E-12  0.000000000000E+00
  0.000000000000E+00  0.221751183836E-08 -0.784521977459E-08  0.201758276851E-07 -0.917507318621E-08 -0.828090945542E-12 -0.661031113913E-08
  0.000000000000E+00  0.000000000000E+00  0.913463853114E-09 -0.579614995864E-08  0.773168687797E-08 -0.237806333369E-08 -0.354490357801E-12
 -0.230153912706E-07 -0.218737310528E-06  0.000000000000E+00  0.000000000000E+00  0.105608680843E-09 -0.400716851563E-08  0.254974592606E-08
 -0.487101816500E-08 -0.668074172901E-12  0.917434327070E-08 -0.930813017149E-07 -0.185195408383E-06  0.000000000000E+00  0.000000000000E+00
  0.594304768948E-10 -0.248364068398E-08  0.784216036431E-09 -0.310216699865E-08 -0.439366600143E-12  0.237654165935E-08 -0.484526154355E-07
 -0.224954392942E-07 -0.238201062624E-05  0.000000000000E+00  0.150071375310E-09 -0.123477089254E-08  0.798982340070E-10 -0.220241883918E-08
 -0.624161279996E-12  0.487021128557E-08 -0.201770380509E-07 -0.903732563201E-09  0.683815772807E-07  0.000000000000E+00  0.115289751033E-09
  0.306405077634E-10 -0.135784975874E-08 -0.465135182053E-12  0.310143503273E-08 -0.773278101009E-08  0.880188508555E-08 -0.200527406604E-06
  0.000000000000E+00  0.233863172757E-09 -0.701607226380E-09 -0.335625304570E-12  0.220192122923E-08 -0.255092212818E-08  0.784409433133E-08
 -0.116463900674E-07  0.000000000000E+00  0.757048411371E-10 -0.294122627299E-12  0.135775235691E-08 -0.785100219662E-09  0.579576262876E-08
 -0.129623909495E-07  0.000000000000E+00  0.149495402872E-11  0.701493000697E-09 -0.805323213294E-10  0.400685274082E-08 -0.221821902368E-08
  0.000000000000E+00 -0.737900234557E-10 -0.312313201610E-10  0.248369158694E-08 -0.913964761186E-09  0.000000000000E+00 -0.230954807243E-09
  0.123475159594E-08 -0.106098904660E-09  0.000000000000E+00 -0.113443315358E-09 -0.597866214790E-10  0.000000000000E+00 -0.147813072539E-09
  0.000000000000E+00  0.000000000000E+00
  0.000000000000E+00  0.371465064884E-03  0.000000000000E+00  0.618965201651E-04  0.370371015954E-03  0.000000000000E+00  0.326129085252E-04
  0.637862302260E-04  0.370768733300E-03  0.000000000000E+00  0.248868513762E-05  0.322997366457E-04  0.639697485813E-04  0.370704698165E-03
  0.000000000000E+00  0.147900733570E-05  0.247750427849E-05  0.324129176067E-04  0.641542556435E-04  0.370829624245E-03  0.000000000000E+00
 -0.211564529417E-05  0.140532131606E-05  0.255120377310E-05  0.323696752043E-04  0.642024433760E-04  0.370817327150E-03  0.000000000000E+00
 -0.132205761367E-04 -0.214947508216E-05  0.145590246253E-05  0.255174460895E-05  0.323916152861E-04  0.642111735070E-04  0.370829618242E-03
  0.000000000000E+00 -0.771848203179E-04 -0.132477663708E-04 -0.211832857746E-05  0.142458117581E-05  0.257900054685E-05  0.323834236588E-04
  0.642024432739E-04  0.370704713340E-03  0.000000000000E+00 -0.284875984696E-03 -0.771966644006E-04 -0.132253169932E-04 -0.213698018996E-05
  0.144383261929E-05  0.257291380692E-05  0.323916148086E-04  0.641542580288E-04  0.370768713399E-03  0.000000000000E+00 -0.843761949504E-03
 -0.284885341787E-03 -0.771869335100E-04 -0.132438389248E-04 -0.212079209483E-05  0.142964121798E-05  0.257900052769E-05  0.323696753841E-04
  0.639697457652E-04  0.370371070151E-03  0.000000000000E+00 -0.843784290858E-03 -0.284877408985E-03 -0.771952500799E-04 -0.132300901758E-04
 -0.213207231432E-05  0.144383236578E-05  0.255174436749E-05  0.324129163821E-04  0.637862248394E-04  0.371465076780E-03 -0.843762531020E-03
 -0.284885872898E-03 -0.771893957280E-04 -0.132425696241E-04 -0.212079232389E-05  0.142458059964E-05  0.255120245683E-05  0.322997301408E-04
  0.618964900199E-04 -0.843787721129E-03 -0.284879349722E-03 -0.771947527572E-04 -0.132300903312E-04 -0.213698061082E-05  0.145590192310E-05
  0.247749989292E-05  0.326128997528E-04 -0.843764033745E-03 -0.284886251725E-03 -0.771893959345E-04 -0.132438392604E-04 -0.211832930813E-05
  0.140532043161E-05  0.248868105859E-05 -0.843789728494E-03 -0.284879349938E-03 -0.771952504584E-04 -0.132253174046E-04 -0.214947566333E-05
  0.147900864716E-05 -0.843764034250E-03 -0.284885873341E-03 -0.771869341025E-04 -0.132477665503E-04 -0.211564561162E-05 -0.843787722172E-03
 -0.284877409565E-03 -0.771966648592E-04 -0.132205766680E-04 -0.843762532287E-03 -0.284885342343E-03 -0.771848210081E-04 -0.843784292550E-03
 -0.284875985341E-03 -0.843761950144E-03
  0.710206509053E+00  0.709501651670E+00  0.710203626447E+00  0.709650923823E+00  0.709508797053E+00  0.710204053047E+00  0.709705425194E+00
  0.709651358018E+00  0.709508263255E+00  0.710204107531E+00  0.709924541663E+00  0.709706553035E+00  0.709651178902E+00  0.709509499214E+00
  0.710204440115E+00  0.710175166822E+00  0.709924788837E+00  0.709706333897E+00  0.709651411616E+00  0.709509628740E+00  0.710204365394E+00
  0.710496006228E+00  0.710175306560E+00  0.709924721505E+00  0.709706682464E+00  0.709651464499E+00  0.709509744670E+00  0.710204440097E+00
  0.710871744900E+00  0.710495999698E+00  0.710175278471E+00  0.709924776696E+00  0.709706727235E+00  0.709651444651E+00  0.709509628734E+00
  0.710204107546E+00  0.711340706762E+00  0.710871696999E+00  0.710496038811E+00  0.710175293705E+00  0.709924832481E+00  0.709706737681E+00
  0.709651464493E+00  0.709509499210E+00  0.710204052997E+00  0.711994601086E+00  0.711340640287E+00  0.710871757585E+00  0.710495975264E+00
  0.710175354659E+00  0.709924768408E+00  0.709706727230E+00  0.709651411608E+00  0.709508263233E+00  0.710203626525E+00  0.712879926796E+00
  0.711994534140E+00  0.711340709152E+00  0.710871676423E+00  0.710496060309E+00  0.710175287056E+00  0.709924832477E+00  0.709706682456E+00
  0.709651178888E+00  0.709508797046E+00  0.710206509090E+00  0.712879888292E+00  0.711994600636E+00  0.711340624474E+00  0.710871764877E+00
  0.710495961530E+00  0.710175354655E+00  0.709924776689E+00  0.709706333882E+00  0.709651358007E+00  0.709501651632E+00  0.712879925972E+00
  0.711994523399E+00  0.711340708354E+00  0.710871664862E+00  0.710496060307E+00  0.710175293698E+00  0.709924721499E+00  0.709706553015E+00
  0.709650923854E+00  0.712879882584E+00  0.711994598078E+00  0.711340615371E+00  0.710871764874E+00  0.710495975259E+00  0.710175278463E+00
  0.709924788823E+00  0.709705425195E+00  0.712879923919E+00  0.711994517127E+00  0.711340708353E+00  0.710871676418E+00  0.710496038806E+00
  0.710175306546E+00  0.709924541676E+00  0.712879879207E+00  0.711994598076E+00  0.711340624470E+00  0.710871757580E+00  0.710495999688E+00
  0.710175166824E+00  0.712879923918E+00  0.711994523397E+00  0.711340709148E+00  0.710871696991E+00  0.710496006228E+00  0.712879882583E+00
  0.711994600633E+00  0.711340640281E+00  0.710871744897E+00  0.712879925970E+00  0.711994534135E+00  0.711340706759E+00  0.712879888289E+00
  0.711994601083E+00  0.712879926794E+00
  0.000000000000E+00  0.505303833176E+00  0.000000000000E+00  0.505113911315E+00  0.505280830030E+00  0.000000000000E+00  0.505029045944E+00
  0.505114788598E+00  0.505281758017E+00  0.000000000000E+00  0.504785718032E+00  0.505027907754E+00  0.505114975650E+00  0.505280425166E+00
  0.000000000000E+00  0.504507394450E+00  0.504785471569E+00  0.505028131405E+00  0.505114722715E+00  0.505280343389E+00  0.000000000000E+00
  0.504148960897E+00  0.504507265617E+00  0.504785529101E+00  0.505027758785E+00  0.505114666348E+00  0.505280199892E+00  0.000000000000E+00
  0.503726823841E+00  0.504148973011E+00  0.504507277083E+00  0.504785472095E+00  0.505027699281E+00  0.505114686185E+00  0.505280343397E+00
  0.000000000000E+00  0.503203969704E+00  0.503726882151E+00  0.504148925562E+00  0.504507268718E+00  0.504785405529E+00  0.505027694864E+00
  0.505114666354E+00  0.505280425170E+00  0.000000000000E+00  0.502490091395E+00  0.503204033943E+00  0.503726808920E+00  0.504148993185E+00
  0.504507187997E+00  0.504785477737E+00  0.505027699287E+00  0.505114722725E+00  0.505281758044E+00  0.000000000000E+00  0.501608858499E+00
  0.502490156869E+00  0.503203966355E+00  0.503726899807E+00  0.504148899014E+00  0.504507271167E+00  0.504785405533E+00  0.505027758793E+00
  0.505114975666E+00  0.505280830046E+00  0.000000000000E+00  0.501608886274E+00  0.502490091375E+00  0.503204048237E+00  0.503726798030E+00
  0.504149005260E+00  0.504507188000E+00  0.504785472103E+00  0.505028131418E+00  0.505114788606E+00  0.505303833239E+00  0.501608859179E+00
  0.502490166610E+00  0.503203965723E+00  0.503726909786E+00  0.504148899016E+00  0.504507268726E+00  0.504785529107E+00  0.505027907771E+00
  0.505113911288E+00  0.501608891446E+00  0.502490093247E+00  0.503204056577E+00  0.503726798033E+00  0.504148993191E+00  0.504507277091E+00
  0.504785471585E+00  0.505029045935E+00  0.501608861158E+00  0.502490172431E+00  0.503203965725E+00  0.503726899812E+00  0.504148925567E+00
  0.504507265633E+00  0.504785718021E+00  0.501608894626E+00  0.502490093248E+00  0.503204048240E+00  0.503726808926E+00  0.504148973022E+00
  0.504507394449E+00  0.501608861159E+00  0.502490166613E+00  0.503203966359E+00  0.503726882160E+00  0.504148960896E+00  0.501608891447E+00
  0.502490091378E+00  0.503204033950E+00  0.503726823844E+00  0.501608859181E+00  0.502490156874E+00  0.503203969707E+00  0.501608886277E+00
  0.502490091398E+00  0.501608858501E+00
  0.120983008357E+01  0.998113246802E+00  0.120983166728E+01  0.998137485481E+00  0.998116111021E+00  0.120983125478E+01  0.998163710268E+00
  0.998137669348E+00  0.998115920080E+00  0.120983142531E+01  0.998251739068E+00  0.998164162067E+00  0.998137592756E+00  0.998116401947E+00
  0.120983134933E+01  0.998352400282E+00  0.998251836876E+00  0.998164075635E+00  0.998137681278E+00  0.998116464361E+00  0.120983139423E+01
  0.998481235951E+00  0.998352454810E+00  0.998251811402E+00  0.998164213959E+00  0.998137702024E+00  0.998116505574E+00  0.120983134934E+01
  0.998632060284E+00  0.998481232663E+00  0.998352445175E+00  0.998251831976E+00  0.998164233825E+00  0.998137692390E+00  0.998116464358E+00
  0.120983142530E+01  0.998820221993E+00  0.998632040148E+00  0.998481249034E+00  0.998352449578E+00  0.998251856020E+00  0.998164236071E+00
  0.998137702022E+00  0.998116401946E+00  0.120983125480E+01  0.999082468806E+00  0.998820196248E+00  0.998632065368E+00  0.998481222889E+00
  0.998352475875E+00  0.998251828646E+00  0.998164233823E+00  0.998137681275E+00  0.998115920070E+00  0.120983166725E+01  0.999437300164E+00
  0.999082442802E+00  0.998820222965E+00  0.998632031885E+00  0.998481257612E+00  0.998352446851E+00  0.998251856019E+00  0.998164213956E+00
  0.998137592751E+00  0.998116111022E+00  0.120983008356E+01  0.999437286837E+00  0.999082468634E+00  0.998820189885E+00  0.998632068317E+00
  0.998481217414E+00  0.998352475874E+00  0.998251831973E+00  0.998164075630E+00  0.998137669343E+00  0.998113246789E+00  0.999437299819E+00
  0.999082438489E+00  0.998820222653E+00  0.998632027229E+00  0.998481257611E+00  0.998352449575E+00  0.998251811399E+00  0.998164162059E+00
  0.998137485494E+00  0.999437284558E+00  0.999082467608E+00  0.998820186227E+00  0.998632068316E+00  0.998481222887E+00  0.998352445171E+00
  0.998251836870E+00  0.998163710269E+00  0.999437298992E+00  0.999082435971E+00  0.998820222652E+00  0.998632031883E+00  0.998481249032E+00
  0.998352454804E+00  0.998251739073E+00  0.999437283206E+00  0.999082467607E+00  0.998820189884E+00  0.998632065365E+00  0.998481232659E+00
  0.998352400283E+00  0.999437298991E+00  0.999082438488E+00  0.998820222964E+00  0.998632040144E+00  0.998481235951E+00  0.999437284557E+00
  0.999082468633E+00  0.998820196246E+00  0.998632060283E+00  0.999437299818E+00  0.999082442800E+00  0.998820221992E+00  0.999437286836E+00
  0.999082468804E+00  0.999437300163E+00
        67        57        46        56
        57        47        37        46
        47        38        29        37
        38        30        22        29
        30        23        16        22
        23        17        11        16
        17        12         7        11
        12         8         4         7
         8         5         2         4
         5         3         1         2
        77        68        57        67
        68        58        47        57
        58        48        38        47
        48        39        30        38
        39        31        23        30
        31        24        17        23
        24        18        12        17
        18        13         8        12
        13         9         5         8
         9         6         3         5
        86        78        68        77
        78        69        58        68
        69        59        48        58
        59        49        39        48
        49        40        31        39
        40        32        24        31
        32        25        18        24
        25        19        13        18
        19        14         9        13
        14        10         6         9
        94        87        78        86
        87        79        69        78
        79        70        59        69
        70        60        49        59
        60        50        40        49
        50        41        32        40
        41        33        25        32
        33        26        19        25
        26        20        14        19
        20        15        10        14
       101        95        87        94
        95        88        79        87
        88        80        70        79
        80        71        60        70
        71        61        50        60
        61        51        41        50
        51        42        33        41
        42        34        26        33
        34        27        20        26
        27        21        15        20
       107       102        95       101
       102        96        88        95
        96        89        80        88
        89        81        71        80
        81        72        61        71
        72        62        51        61
        62        52        42        51
        52        43        34        42
        43        35        27        34
        35        28        21        27
       112       108       102       107
       108       103        96       102
       103        97        89        96
        97        90        81        89
        90        82        72        81
        82        73        62        72
        73        63        52        62
        63        53        43        52
        53        44        35        43
        44        36        28        35
       116       113       108       112
       113       109       103       108
       109       104        97       103
       104        98        90        97
        98        91        82        90
        91        83        73        82
        83        74        63        73
        74        64        53        63
        64        54        44        53
        54        45        36        44
       119       117       113       116
       117       114       109       113
       114       110       104       109
       110       105        98       104
       105        99        91        98
        99        92        83        91
        92        84        74        83
        84        75        64        74
        75        65        54        64
        65        55        45        54
       121       120       117       119
       120       118       114       117
       118       115       110       114
       115       111       105       110
       111       106        99       105
       106       100        92        99
       100        93        84        92
        93        85        75        84
        85        76        65        75
        76        66        55        65
zone t="boundary 2 bc-2", solutiontime= 0.1000000E+03, strandid=1002, i=121, j=100, f=feblock
  0.000000000000E+00  0.500000000000E+00  0.000000000000E+00  0.100000000000E+01  0.500000000000E+00  0.000000000000E+00  0.150000000000E+01
  0.100000000000E+01  0.500000000000E+00  0.000000000000E+00  0.200000000000E+01  0.150000000000E+01  0.100000000000E+01  0.500000000000E+00
  0.000000000000E+00  0.250000000000E+01  0.200000000000E+01  0.150000000000E+01  0.100000000000E+01  0.500000000000E+00  0.000000000000E+00
  0.300000000000E+01  0.250000000000E+01  0.200000000000E+01  0.150000000000E+01  0.100000000000E+01  0.500000000000E+00  0.000000000000E+00
  0.350000000000E+01  0.300000000000E+01  0.250000000000E+01  0.200000000000E+01  0.150000000000E+01  0.100000000000E+01  0.500000000000E+00
  0.000000000000E+00  0.400000000000E+01  0.350000000000E+01  0.300000000000E+01  0.250000000000E+01  0.200000000000E+01  0.150000000000E+01
  0.100000000000E+01  0.500000000000E+00  0.000000000000E+00  0.450000000000E+01  0.400000000000E+01  0.350000000000E+01  0.300000000000E+01
  0.250000000000E+01  0.200000000000E+01  0.150000000000E+01  0.100000000000E+01  0.500000000000E+00  0.000000000000E+00  0.500000000000E+01