# vtk DataFile Version 2.0
FUN3D:global_image_vtk
ASCII
DATASET UNSTRUCTURED_GRID
POINTS 1331 double
    0.0000000000000000E+00    0.2500000000000000E+01    0.0000000000000000E+00
    0.5000000000000000E+00    0.2500000000000000E+01    0.0000000000000000E+00
    0.1000000000000000E+01    0.2500000000000000E+01    0.0000000000000000E+00
    0.1500000000000000E+01    0.2500000000000000E+01    0.0000000000000000E+00
    0.2000000000000000E+01    0.2500000000000000E+01    0.0000000000000000E+00
    0.2500000000000000E+01    0.2500000000000000E+01    0.0000000000000000E+00
    0.3000000000000000E+01    0.2500000000000000E+01    0.0000000000000000E+00
    0.3500000000000000E+01    0.2500000000000000E+01    0.0000000000000000E+00
    0.4000000000000000E+01    0.2500000000000000E+01    0.0000000000000000E+00
    0.4500000000000000E+01    0.2500000000000000E+01    0.0000000000000000E+00
    0.5000000000000000E+01    0.2500000000000000E+01    0.0000000000000000E+00
    0.0000000000000000E+00    0.2500000000000000E+01    0.4999999999999982E+00
    0.4999999999999998E+00    0.2500000000000000E+01    0.4999999999999984E+00
    0.9999999999999998E+00    0.2500000000000000E+01    0.4999999999999987E+00
    0.1500000000000000E+01    0.2500000000000000E+01    0.4999999999999989E+00
    0.2000000000000000E+01    0.2500000000000000E+01    0.4999999999999991E+00
    0.2500000000000000E+01    0.2500000000000000E+01    0.4999999999999993E+00
    0.3000000000000000E+01    0.2500000000000000E+01    0.4999999999999996E+00
    0.3500000000000000E+01    0.2500000000000000E+01    0.4999999999999998E+00
    0.4000000000000000E+01    0.2500000000000000E+01    0.5000000000000000E+00
    0.4500000000000002E+01    0.2500000000000000E+01    0.5000000000000002E+00
    0.5000000000000000E+01    0.2500000000000000E+01    0.5000000000000004E+00
    0.0000000000000000E+00    0.2500000000000000E+01    0.1000000000000001E+01
    0.4999999999999997E+00    0.2500000000000000E+01    0.1000000000000001E+01
    0.1000000000000000E+01    0.2500000000000000E+01    0.1000000000000001E+01
    0.1500000000000000E+01    0.2500000000000000E+01    0.1000000000000001E+01
    0.2000000000000000E+01    0.2500000000000000E+01    0.1000000000000001E+01
    0.2500000000000000E+01    0.2500000000000000E+01    0.1000000000000001E+01
    0.3000000000000000E+01    0.2500000000000000E+01    0.1000000000000001E+01
    0.3500000000000000E+01    0.2500000000000000E+01    0.1000000000000001E+01
    0.4000000000000000E+01    0.2500000000000000E+01    0.1000000000000001E+01
    0.4499999999999999E+01    0.2500000000000000E+01    0.1000000000000001E+01
    0.5000000000000000E+01    0.2500000000000000E+01    0.1000000000000001E+01
    0.0000000000000000E+00    0.2500000000000000E+01    0.1499999999999999E+01
    0.4999999999999994E+00    0.2500000000000000E+01    0.1499999999999999E+01
    0.1000000000000000E+01    0.2500000000000000E+01    0.1499999999999999E+01
    0.1500000000000000E+01    0.2500000000000000E+01    0.1499999999999999E+01
    0.2000000000000001E+01    0.2500000000000000E+01    0.1499999999999999E+01
    0.2500000000000000E+01    0.2500000000000000E+01    0.1499999999999999E+01
    0.2999999999999999E+01    0.2500000000000000E+01    0.1499999999999999E+01
    0.3500000000000000E+01    0.2500000000000000E+01    0.1499999999999999E+01
    0.4000000000000001E+01    0.2500000000000000E+01    0.1499999999999999E+01
    0.4500000000000001E+01    0.2500000000000000E+01    0.1499999999999999E+01
    0.5000000000000000E+01    0.2500000000000000E+01    0.1499999999999999E+01
    0.0000000000000000E+00    0.2500000000000000E+01    0.2000000000000002E+01
    0.4999999999999992E+00    0.2500000000000000E+01    0.2000000000000001E+01
    0.1000000000000000E+01    0.2500000000000000E+01    0.2000000000000001E+01
    0.1500000000000000E+01    0.2500000000000000E+01    0.2000000000000001E+01
    0.2000000000000001E+01    0.2500000000000000E+01    0.2000000000000001E+01
    0.2500000000000000E+01    0.2500000000000000E+01    0.2000000000000001E+01
    0.2999999999999999E+01    0.2500000000000000E+01    0.2000000000000000E+01
    0.3500000000000000E+01    0.2500000000000000E+01    0.2000000000000000E+01
    0.4000000000000000E+01    0.2500000000000000E+01    0.2000000000000000E+01
    0.4500000000000000E+01    0.2500000000000000E+01    0.2000000000000000E+01
    0.5000000000000000E+01    0.2500000000000000E+01    0.2000000000000000E+01
    0.0000000000000000E+00    0.2500000000000000E+01    0.2500000000000000E+01
    0.4999999999999991E+00    0.2500000000000000E+01    0.2500000000000000E+01
    0.1000000000000000E+01    0.2500000000000000E+01    0.2500000000000000E+01
    0.1500000000000000E+01    0.2500000000000000E+01    0.2500000000000000E+01
    0.2000000000000001E+01    0.2500000000000000E+01    0.2500000000000000E+01
    0.2500000000000000E+01    0.2500000000000000E+01    0.2500000000000000E+01
    0.2999999999999999E+01    0.2500000000000000E+01    0.2500000000000000E+01
    0.3500000000000001E+01    0.2500000000000000E+01    0.2500000000000000E+01
    0.4000000000000000E+01    0.2500000000000000E+01    0.2500000000000000E+01
    0.4500000000000001E+01    0.2500000000000000E+01    0.2500000000000000E+01
    0.5000000000000000E+01    0.2500000000000000E+01    0.2500000000000000E+01
    0.0000000000000000E+00    0.2500000000000000E+01    0.2999999999999998E+01
    0.4999999999999989E+00    0.2500000000000000E+01    0.2999999999999998E+01
    0.1000000000000000E+01    0.2500000000000000E+01    0.2999999999999999E+01
    0.1499999999999999E+01    0.2500000000000000E+01    0.2999999999999999E+01
    0.2000000000000001E+01    0.2500000000000000E+01    0.2999999999999999E+01
    0.2500000000000000E+01    0.2500000000000000E+01    0.2999999999999999E+01
    0.2999999999999999E+01    0.2500000000000000E+01    0.2999999999999999E+01
    0.3500000000000001E+01    0.2500000000000000E+01    0.3000000000000000E+01
    0.4000000000000000E+01    0.2500000000000000E+01    0.3000000000000000E+01
    0.4500000000000001E+01    0.2500000000000000E+01    0.3000000000000000E+01
    0.5000000000000000E+01    0.2500000000000000E+01    0.3000000000000000E+01
    0.0000000000000000E+00    0.2500000000000000E+01    0.3500000000000001E+01
    0.4999999999999988E+00    0.2500000000000000E+01    0.3500000000000001E+01
    0.1000000000000001E+01    0.2500000000000000E+01    0.3500000000000001E+01
    0.1499999999999999E+01    0.2500000000000000E+01    0.3500000000000001E+01
    0.2000000000000001E+01    0.2500000000000000E+01    0.3500000000000001E+01
    0.2500000000000000E+01    0.2500000000000000E+01    0.3500000000000001E+01
    0.2999999999999999E+01    0.2500000000000000E+01    0.3500000000000001E+01
    0.3500000000000001E+01    0.2500000000000000E+01    0.3500000000000001E+01
    0.4000000000000001E+01    0.2500000000000000E+01    0.3500000000000001E+01
    0.4500000000000001E+01    0.2500000000000000E+01    0.3500000000000001E+01
    0.5000000000000000E+01    0.2500000000000000E+01    0.3500000000000001E+01
    0.0000000000000000E+00    0.2500000000000000E+01    0.3999999999999999E+01
    0.4999999999999986E+00    0.2500000000000000E+01    0.4000000000000000E+01
    0.1000000000000001E+01    0.2500000000000000E+01    0.3999999999999999E+01
    0.1499999999999999E+01    0.2500000000000000E+01    0.3999999999999999E+01
    0.2000000000000001E+01    0.2500000000000000E+01    0.3999999999999999E+01
    0.2500000000000000E+01    0.2500000000000000E+01    0.3999999999999999E+01
    0.2999999999999998E+01    0.2500000000000000E+01    0.3999999999999999E+01
    0.3500000000000001E+01    0.2500000000000000E+01    0.3999999999999999E+01
    0.3999999999999999E+01    0.2500000000000000E+01    0.3999999999999999E+01
    0.4500000000000003E+01    0.2500000000000000E+01    0.3999999999999999E+01
    0.5000000000000000E+01    0.2500000000000000E+01    0.3999999999999999E+01
    0.0000000000000000E+00    0.2500000000000000E+01    0.4500000000000002E+01
    0.4999999999999984E+00    0.2500000000000000E+01    0.4500000000000002E+01
    0.1000000000000001E+01    0.2500000000000000E+01    0.4500000000000001E+01
    0.1499999999999999E+01    0.2500000000000000E+01    0.4500000000000003E+01
    0.2000000000000002E+01    0.2500000000000000E+01    0.4500000000000001E+01
    0.2500000000000000E+01    0.2500000000000000E+01    0.4500000000000001E+01
    0.2999999999999998E+01    0.2500000000000000E+01    0.4500000000000001E+01
    0.3500000000000001E+01    0.2500000000000000E+01    0.4499999999999999E+01
    0.3999999999999999E+01    0.2500000000000000E+01    0.4499999999999999E+01
    0.4500000000000002E+01    0.2500000000000000E+01    0.4500000000000000E+01
    0.5000000000000000E+01    0.2500000000000000E+01    0.4500000000000000E+01
    0.0000000000000000E+00    0.2500000000000000E+01    0.5000000000000000E+01
    0.4999999999999982E+00    0.2500000000000000E+01    0.5000000000000000E+01
    0.1000000000000001E+01    0.2500000000000000E+01    0.5000000000000000E+01
    0.1499999999999999E+01    0.2500000000000000E+01    0.5000000000000000E+01
    0.2000000000000002E+01    0.2500000000000000E+01    0.5000000000000000E+01
    0.2500000000000000E+01    0.2500000000000000E+01    0.5000000000000000E+01
    0.2999999999999998E+01    0.2500000000000000E+01    0.5000000000000000E+01
    0.3500000000000001E+01    0.2500000000000000E+01    0.5000000000000000E+01
    0.3999999999999999E+01    0.2500000000000000E+01    0.5000000000000000E+01
    0.4500000000000002E+01    0.2500000000000000E+01    0.5000000000000000E+01
    0.5000000000000000E+01    0.2500000000000000E+01    0.5000000000000000E+01
    0.0000000000000000E+00    0.2000000000000000E+01    0.0000000000000000E+00
    0.5000000000000000E+00    0.2000000000000000E+01    0.0000000000000000E+00
    0.1000000000000000E+01    0.2000000000000000E+01    0.0000000000000000E+00
    0.1500000000000000E+01    0.2000000000000000E+01    0.0000000000000000E+00
[...]
POINT_DATA 1331
SCALARS rho double 1
LOOKUP_TABLE default
   0.1822762309264198E+01
   0.8026028971431385E+00
   0.8627025886141363E+00
   0.1000964062673005E+01
   0.1006727958925037E+01
   0.9914386106904750E+00
   0.9931220427833681E+00
   0.9995097460744127E+00
   0.9929776752012553E+00
   0.9054504117190818E+00
   0.5956438345490147E+00
   0.1117288956906335E+01
   0.9418151640799934E+00
   0.9964298469994723E+00
   0.1001296933588072E+01
   0.1003958659870677E+01
   0.1001220270846399E+01
   0.1001140279187373E+01
   0.9985202533903562E+00
   0.9960960588492750E+00
   0.9881681810883139E+00
   0.9977433168407882E+00
   0.1052197658109925E+01
   0.9794795390603986E+00
   0.9764880871094291E+00
   0.9872498654811975E+00
   0.9931445957085524E+00
   0.9919540203828566E+00
   0.9921169491834810E+00
   0.9930173352308534E+00
   0.9901673100306698E+00
   0.9930063611220336E+00
   0.9770124328508661E+00
   0.1026237407417965E+01
   0.1000532391270466E+01
   0.9967193629526865E+00
   0.9938528343716924E+00
   0.9946302285993933E+00
   0.9941466820648538E+00
   0.9942857291814549E+00
   0.9947625608623188E+00
   0.9954445876010229E+00
   0.1000071895588127E+01
   0.1002029619597432E+01
   0.1009869856512174E+01
   0.1002183652553556E+01
   0.9979437867646057E+00
   0.9968550729320967E+00
   0.9971769246418017E+00
   0.9969112180984154E+00
   0.9969758551208051E+00
   0.9976339299334703E+00
   0.9977382179504203E+00
   0.1000272392299306E+01
   0.1001428841952427E+01
   0.1004081334045130E+01
   0.1002177321007188E+01
   0.9998962711138960E+00
   0.9983522221108836E+00
   0.9978959080860335E+00
   0.9976565082669424E+00
   0.9977128236441639E+00
   0.9983066942891656E+00
   0.9988721454536893E+00
   0.1000452332617063E+01
   0.1001720564102988E+01
   0.1001519814324422E+01
   0.1001081258220727E+01
   0.9997892417635955E+00
   0.9989915797126008E+00
   0.9985791857808330E+00
   0.9983837443816157E+00
   0.9983743730348096E+00
   0.9987519650021548E+00
   0.9991149504126560E+00
   0.9999686876019210E+00
   0.1000796561394534E+01
   0.1000683777237950E+01
   0.1000636989338260E+01
   0.9999232760906207E+00
   0.9993454824661245E+00
   0.9989588530743211E+00
   0.9987921158995486E+00
   0.9987832995827401E+00
   0.9990504852226985E+00
   0.9993822868486640E+00
   0.9999033507519496E+00
   0.1000443239509748E+01
   0.1000261471071896E+01
   0.1000272024106675E+01
   0.9998810102630037E+00
   0.9995379155033932E+00
   0.9992444324436303E+00
   0.9990934113863703E+00
   0.9990547393362247E+00
   0.9992062849397572E+00
   0.9994405211118148E+00
   0.9997868996178113E+00
   0.1000180041258565E+01
   0.1000107126665402E+01
   0.1000131543379234E+01
   0.9999054965279607E+00
   0.9996610803599307E+00
   0.9994210359056295E+00
   0.9992743275978441E+00
   0.9992170508886532E+00
   0.9993003400388714E+00
   0.9994777899850523E+00
   0.9997420065034217E+00
   0.1000060683748486E+01
   0.1000044042044070E+01
   0.1000094693662398E+01
   0.9999635036348231E+00
   0.9997650705063525E+00
   0.9995389534710252E+00
   0.9993666135795438E+00
   0.9992682401822894E+00
   0.9992889711904506E+00
   0.9994164542319814E+00
   0.9996524273400536E+00
   0.9999689968738562E+00
   0.1820757880122695E+01
   0.8020722581808676E+00
   0.8628284525858102E+00
   0.1000986640092383E+01
   0.1006754334613728E+01
   0.9914493994736123E+00
   0.9931198499971254E+00
   0.9994793393438822E+00
   0.9929394067550976E+00
   0.9054275808663794E+00
   0.5955596156189831E+00
   0.1114388128402640E+01
   0.9411016462980930E+00
   0.9974140774153747E+00
   0.1001388497958661E+01
   0.1004149864441427E+01
   0.1001344193584500E+01
   0.1001307575367197E+01
   0.9985779703313259E+00
   0.9960229545840660E+00
   0.9879389956400119E+00
   0.9980275757217224E+00
   0.1051858025247302E+01
   0.9794209351777078E+00
   0.9767245856450540E+00
   0.9872398856284929E+00
   0.9931614859915763E+00
   0.9919586260318055E+00
   0.9921195897327638E+00
   0.9930051004222270E+00
   0.9901530329451385E+00
   0.9930883509086629E+00
   0.9772882087783558E+00
   0.1026026037874168E+01
   0.1000418897138140E+01
   0.9968270598600076E+00
   0.9939017587559437E+00
   0.9946866534723933E+00
   0.9941898902908771E+00
   0.9943296732191194E+00
   0.9947897786413296E+00
   0.9954517721897113E+00
   0.1000040803679416E+01
   0.1002017831927934E+01
   0.1009801286634952E+01
   0.1002085311901121E+01
   0.9979260797806768E+00
   0.9968470462264818E+00
   0.9971831993430148E+00
   0.9969186311790748E+00
   0.9969853577675116E+00
   0.9976405655461544E+00
   0.9977431089794430E+00
   0.1000264305118643E+01
   0.1001425777785548E+01
   0.1004060759800616E+01
   0.1002132812165681E+01
   0.9998719941922346E+00
   0.9983350569832021E+00
   0.9978881337617826E+00
   0.9976525249354404E+00
   0.9977116683260532E+00
   0.9983039475051226E+00
   0.9988679475703374E+00
   0.1000443040054399E+01
   0.1001713423914967E+01
   0.1001511613380945E+01
   0.1001060461586943E+01
   0.9997708142888770E+00
   0.9989761846012220E+00
   0.9985684720196537E+00
   0.9983761896028460E+00
   0.9983695810335474E+00
   0.9987478869068015E+00
   0.9991110418221177E+00
   0.9999629204324184E+00
   0.1000789508350727E+01
   0.1000679601919063E+01
   0.1000627395183450E+01
   0.9999120762808582E+00
   0.9993343234147714E+00
   0.9989491937133890E+00
   0.9987839077231581E+00
   0.9987766802535855E+00
   0.9990447711363177E+00
   0.9993773754767455E+00
   0.9998986564340736E+00
   0.1000439068657621E+01
   0.1000258966217500E+01
   0.1000267016382264E+01
   0.9998741946692813E+00
   0.9995302361105944E+00
   0.9992367864057052E+00
   0.9990861082375002E+00
   0.9990480465806870E+00
   0.9992001878696964E+00
   0.9994352412034087E+00
   0.9997828621950977E+00
   0.1000177943164511E+01
   0.1000105691963961E+01
   0.1000128751349293E+01
   0.9999012144155635E+00
   0.9996556539007494E+00
   0.9994149691495119E+00
   0.9992679998105538E+00
   0.9992107995268146E+00
   0.9992944052768223E+00
   0.9994724899175883E+00
   0.9997380401773667E+00
   0.1000058887792615E+01
   0.1000043359001804E+01
   0.1000092869730424E+01
   0.9999603251875893E+00
   0.9997606617428983E+00
   0.9995336608067092E+00
   0.9993607790453032E+00
   0.9992621564983252E+00
   0.9992829267429028E+00
   0.9994108730292248E+00
   0.9996482910518014E+00
   0.9999671156968636E+00
   0.1820405112539418E+01
   0.8021937896341028E+00
   0.8629138750526498E+00
   0.1000918767516618E+01
   0.1006705046508477E+01
   0.9914204966517616E+00
   0.9931015742041189E+00
   0.9994694421573453E+00
   0.9929468087163498E+00
   0.9054342969610533E+00
   0.5955207692228527E+00
   0.1114380353368215E+01
   0.9414685166745004E+00
   0.9974528050990895E+00
   0.1001332851047034E+01
   0.1004135508938037E+01
   0.1001332690266748E+01
   0.1001306020790778E+01
   0.9985945844676472E+00
   0.9960714583012661E+00
   0.9880466809971613E+00
   0.9981267728181723E+00
   0.1051925580092512E+01
   0.9795447380654546E+00
   0.9767366108291949E+00
   0.9872168620509230E+00
   0.9931542284242926E+00
   0.9919523509327796E+00
   0.9921198765992010E+00
   0.9930122146398437E+00
   0.9901702055639638E+00
   0.9931159846963784E+00
   0.9772997807867716E+00
   0.1026043357593363E+01
   0.1000499212171806E+01
   0.9968471678858235E+00
   0.9938884372047416E+00
   0.9946724427982560E+00
   0.9941738128619384E+00
   0.9943170021047963E+00
   0.9947834489306593E+00
   0.9954549901170591E+00
   0.1000060828297339E+01
   0.1002042408280354E+01
   0.1009812827057891E+01
   0.1002129911985959E+01
   0.9979532347442345E+00
   0.9968556129360765E+00
   0.9971856180835409E+00
   0.9969163757016781E+00
   0.9969824446189338E+00
   0.9976389697059627E+00
   0.9977435968278049E+00
   0.1000271500688129E+01
   0.1001435224256082E+01
   0.1004067230091088E+01
   0.1002155586109763E+01
   0.9998908506440788E+00
   0.9983447736415593E+00
   0.9978930249483100E+00
   0.9976537772657638E+00
   0.9977117981459164E+00
   0.9983048790290946E+00
   0.9988701379764922E+00
   0.1000447043922134E+01
   0.1001717457599627E+01
   0.1001516103314882E+01
   0.1001072643820523E+01
   0.9997843236963834E+00
   0.9989863188595579E+00
   0.9985755270063406E+00
   0.9983802974453057E+00
   0.9983719398513334E+00
   0.9987497160367553E+00
   0.9991132206812113E+00
   0.9999658481883210E+00
   0.1000793141752211E+01
   0.1000682533506219E+01
   0.1000633848999523E+01
   0.9999204719146488E+00
   0.9993421601938277E+00
   0.9989559328860050E+00
   0.9987891787208261E+00
   0.9987807343546456E+00
   0.9990480047843890E+00
   0.9993801717688339E+00
   0.9999013675690167E+00
   0.1000441578591342E+01
   0.1000260880921686E+01
   0.1000270724611912E+01
   0.9998795436128545E+00
   0.9995360398951900E+00
   0.9992424944009820E+00
   0.9990913120643491E+00
   0.9990526841229426E+00
   0.9992042291330141E+00
   0.9994386386619832E+00
   0.9997853898993850E+00
   0.1000179128199654E+01
   0.1000106836291353E+01
   0.1000130944635775E+01
   0.9999046773025183E+00
   0.9996599401326944E+00
   0.9994197089503364E+00
   0.9992727960131994E+00
   0.9992154226156600E+00
   0.9992986488549415E+00
   0.9994761827697418E+00
   0.9997407692965612E+00
   0.1000059992678244E+01
   0.1000043914637915E+01
   0.1000094336788357E+01
   0.9999629390210923E+00
   0.9997642339862813E+00
   0.9995378998628460E+00
   0.9993653503901684E+00
   0.9992668270516892E+00
   0.9992874287032493E+00
   0.9994148811899827E+00
   0.9996511672466478E+00
   0.9999682454789430E+00
   0.1820473530678990E+01
   0.8023246883757845E+00
   0.8630629538349376E+00
   0.1000928942072213E+01
   0.1006690680555164E+01
   0.9914131563196873E+00
   0.9930975143318869E+00
   0.9994618519476407E+00
   0.9929445248826805E+00
   0.9054568822638214E+00
   0.5955724881429990E+00
   0.1114165239115274E+01
   0.9413756195775093E+00
   0.9976019556156970E+00
   0.1001346671871260E+01
   0.1004151475640587E+01
   0.1001324002089669E+01
   0.1001295290694144E+01
   0.9985602494592389E+00
   0.9960148376008338E+00
   0.9879664718490964E+00
   0.9980858957892010E+00
   0.1051860057201279E+01
   0.9795419541676470E+00
   0.9767989707488526E+00
   0.9872312451007007E+00
   0.9931682422425003E+00
   0.9919567646080001E+00
   0.9921242568942359E+00
   0.9930106186914929E+00
   0.9901681364110743E+00
   0.9931148465593188E+00
   0.9773085883786374E+00
   0.1025995877217636E+01
   0.1000465437011879E+01
   0.9968755120679376E+00
   0.9939018628746654E+00
   0.9946881377129656E+00
   0.9941806545014151E+00
   0.9943214437171396E+00
   0.9947797665710660E+00
   0.9954443517867457E+00
   0.1000040396141309E+01
   0.1002026086311914E+01
   0.1009792856199138E+01
   0.1002104028563770E+01
   0.9979533471070475E+00
   0.9968559073333293E+00
   0.9971906329351098E+00
   0.9969193052838352E+00
   0.9969850760191284E+00
   0.9976388191714682E+00
   0.9977415700535160E+00
   0.1000264550714173E+01
   0.1001427502909686E+01
   0.1004058528791650E+01
   0.1002140331543796E+01
   0.9998868777006245E+00
   0.9983424483879013E+00
   0.9978942003060707E+00
   0.9976544973631195E+00
   0.9977124285143981E+00
   0.9983035029591357E+00
   0.9988675175868160E+00
   0.1000442690043562E+01
   0.1001714085436175E+01
   0.1001511817287589E+01
   0.1001063591932918E+01
   0.9997786952771861E+00
   0.9989822171785848E+00
   0.9985740309218337E+00
   0.9983796008600877E+00
   0.9983718702832020E+00
   0.9987490039259070E+00
   0.9991117855043146E+00
   0.9999636707067164E+00
   0.1000790789067135E+01
   0.1000680178175578E+01
   0.1000628871348765E+01
   0.9999160111064239E+00
   0.9993380922934951E+00
   0.9989531212380802E+00
   0.9987870602507757E+00
   0.9987793391562150E+00
   0.9990467381761722E+00
   0.9993788469690796E+00
   0.9998996479412449E+00
   0.1000439707730380E+01
   0.1000259416736855E+01
   0.1000267807946606E+01
   0.9998762524536964E+00
   0.9995326079393415E+00
   0.9992394761490192E+00
   0.9990886221854605E+00
   0.9990504259743759E+00
   0.9992022874795330E+00
   0.9994370485861828E+00
   0.9997840804463919E+00
   0.1000178459796353E+01
   0.1000105958003184E+01
   0.1000129199817888E+01
   0.9999023260319048E+00
   0.9996571504804599E+00
   0.9994168512547815E+00
   0.9992700040313655E+00
   0.9992128613632582E+00
   0.9992963755019104E+00
   0.9994742927373546E+00
   0.9997393733949318E+00
   0.1000059535011842E+01
   0.1000043487000028E+01
   0.1000093147424510E+01
   0.9999610579256789E+00
   0.9997617925407449E+00
   0.9995351807480699E+00
   0.9993625315025700E+00
   0.9992640589343501E+00
   0.9992848522884937E+00
   0.9994127087883886E+00
   0.9996497089538753E+00
   0.9999678492966784E+00
   0.1820504180973378E+01
   0.8023521442078302E+00
   0.8630947515152378E+00
   0.1000928542099752E+01
   0.1006686706246196E+01
   0.9914124066104242E+00
   0.9930991084827717E+00
   0.9994631769494677E+00
   0.9929477841404416E+00
   0.9054684347880061E+00
   0.5955944494702324E+00
   0.1114141438498994E+01
   0.9413571605193575E+00
   0.9976076873427097E+00
   0.1001339470869819E+01
   0.1004153868789719E+01
   0.1001322289451470E+01
   0.1001296441961182E+01
   0.9985616421962764E+00
   0.9960163391216382E+00
   0.9879607620304955E+00
   0.9980820896810940E+00
   0.1051852800496303E+01
   0.9795458463004566E+00
   0.9768048054119511E+00
   0.9872266976526840E+00
   0.9931671549517992E+00
   0.9919545974305543E+00
   0.9921246492727938E+00
   0.9930121155576700E+00
   0.9901713911760959E+00
   0.9931183108916920E+00
   0.9773140228621608E+00
   0.1025991578534928E+01
   0.1000468917183715E+01
   0.9968815731383405E+00
   0.9939007710660476E+00
   0.9946889700124361E+00
   0.9941797871261674E+00
   0.9943220342254301E+00
   0.9947810620010552E+00
   0.9954469535762503E+00
   0.1000041868115327E+01
   0.1002026132323053E+01
   0.1009792979478905E+01
   0.1002107661234242E+01
   0.9979563443522574E+00
   0.9968543078987913E+00
   0.9971896788657523E+00
   0.9969178625295061E+00
   0.9969847903077499E+00
   0.9976392251221967E+00
   0.9977430746958129E+00
   0.1000266261809434E+01
   0.1001428947967200E+01
   0.1004059522361931E+01
   0.1002143778854856E+01
   0.9998902405302971E+00
   0.9983424722422899E+00
   0.9978935122670952E+00
   0.9976529847243663E+00
   0.9977114669272413E+00
   0.9983031038934462E+00
   0.9988677293755882E+00
   0.1000443010105493E+01
   0.1001714434412977E+01
   0.1001512990832512E+01
   0.1001066273491962E+01
   0.9997816673149245E+00
   0.9989835247081400E+00
   0.9985745302953587E+00
   0.9983792427291504E+00
   0.9983714778160940E+00
   0.9987488850020955E+00
   0.9991121499720430E+00
   0.9999637992674869E+00
   0.1000790665925358E+01
   0.1000681187105680E+01
   0.1000630836910305E+01
   0.9999183854540072E+00
   0.9993397035176564E+00
   0.9989541593028974E+00
   0.9987874387332801E+00
   0.9987794124139552E+00
   0.9990467212450208E+00
   0.9993790623686613E+00
   0.9999000709625202E+00
   0.1000440363873119E+01
   0.1000260184542597E+01
   0.1000269211495170E+01
   0.9998781134883186E+00
   0.9995342901022242E+00
   0.9992408927444399E+00
   0.9990896392319366E+00
   0.9990511493747808E+00
   0.9992027423299770E+00
   0.9994373655322845E+00
   0.9997843512235833E+00
   0.1000178566000687E+01
   0.1000106476405878E+01
   0.1000130168639330E+01
   0.9999037345758131E+00
   0.9996586740438718E+00
   0.9994183397918964E+00
   0.9992712853963358E+00
   0.9992139081033108E+00
   0.9992971587724073E+00
   0.9994748656930892E+00
   0.9997397888738383E+00
   0.1000059597307583E+01
   0.1000043753782237E+01
   0.1000093844528599E+01
   0.9999622265978791E+00
   0.9997632288510303E+00
   0.9995367027603488E+00
   0.9993639673658505E+00
   0.9992653399860955E+00
   0.9992858765725846E+00
   0.9994134346047991E+00
   0.9996501271816814E+00
   0.9999678517812867E+00
   0.1820504744367350E+01
   0.8023535642961560E+00
   0.8631054497339224E+00
   0.1000931710847212E+01
   0.1006686644114529E+01
   0.9914108856773153E+00
   0.9930973937738024E+00
   0.9994614110758046E+00
   0.9929469133330447E+00
   0.9054689684139445E+00
   0.5955964569705908E+00
   0.1114133404210387E+01
   0.9413456833388872E+00
   0.9976223992361629E+00
   0.1001341836425100E+01
   0.1004155672303643E+01
   0.1001319623982526E+01
   0.1001292082847583E+01
   0.9985540830083169E+00
   0.9960076201651312E+00
   0.9879505671723654E+00
   0.9980774499055768E+00
   0.1051846272308719E+01
   0.9795428306497209E+00
   0.9768123014513267E+00
   0.9872285696972227E+00
   0.9931682046052575E+00
   0.9919534926872925E+00
   0.9921230458400601E+00
   0.9930091535663803E+00
   0.9901682421179056E+00
   0.9931152349877154E+00
   0.9773125437527889E+00
   0.1025986521246654E+01
   0.1000463611789436E+01
   0.9968866948608205E+00
   0.9939038148764814E+00
   0.9946915723664668E+00
   0.9941798973354128E+00
   0.9943208829690843E+00
   0.9947780167810625E+00
   0.9954428766997944E+00
   0.1000036920414141E+01
   0.1002023321492291E+01
   0.1009789967719709E+01
   0.1002103770710246E+01
   0.9979579377155844E+00
   0.9968558849721394E+00
   0.9971915136627642E+00
   0.9969184699555196E+00
   0.9969845727837978E+00
   0.9976378844496945E+00
   0.9977412920623139E+00
   0.1000264445160683E+01
   0.1001428177705437E+01
   0.1004057667610664E+01
   0.1002140708474907E+01
   0.9998903960376061E+00
   0.9983432950724532E+00
   0.9978948353122915E+00
   0.9976536457091116E+00
   0.9977115082490776E+00
   0.9983022269007075E+00
   0.9988663243243849E+00
   0.1000441310819361E+01
   0.1001713060461614E+01
   0.1001511754156805E+01
   0.1001063990889150E+01
   0.9997808294553362E+00
   0.9989834620608599E+00
   0.9985751522360763E+00
   0.9983797953239804E+00
   0.9983717273776143E+00
   0.9987485555045100E+00
   0.9991114748659953E+00
   0.9999632318078673E+00
   0.1000790619286176E+01
   0.1000680326764542E+01
   0.1000629237818299E+01
   0.9999173174338197E+00
   0.9993391247829496E+00
   0.9989541395376933E+00
   0.9987876225464625E+00
   0.9987796291689338E+00
   0.9990466798451159E+00
   0.9993787789603001E+00
   0.9998997631872051E+00
   0.1000440125427714E+01
   0.1000259568618033E+01
   0.1000268081826842E+01
   0.9998770536319950E+00
   0.9995334337061565E+00
   0.9992403684675338E+00
   0.9990893442168143E+00
   0.9990510372390541E+00
   0.9992026827180387E+00
   0.9994372508118281E+00
   0.9997841852125153E+00
   0.1000178445056777E+01
   0.1000106067579433E+01
   0.1000129388541126E+01
   0.9999028174981959E+00
   0.9996577638348240E+00
   0.9994175850370820E+00
   0.9992707157440553E+00
   0.9992135453084731E+00
   0.9992969565850079E+00
   0.9994747248897580E+00
   0.9997395864818988E+00
   0.1000059461738408E+01
   0.1000043543800268E+01
   0.1000093273884013E+01
   0.9999614077998336E+00
   0.9997622993710853E+00
   0.9995358212441234E+00
   0.9993632134815100E+00
   0.9992647567742209E+00
   0.9992855292881090E+00
   0.9994132979986092E+00
   0.9996500472413701E+00
   0.9999678642034573E+00
   0.1820504178368524E+01
   0.8023521421574880E+00
   0.8630947511208502E+00
   0.1000928542789282E+01
   0.1006686706664944E+01
   0.9914124068758250E+00
   0.9930991088617558E+00
   0.9994631774019085E+00
   0.9929477845304249E+00
   0.9054684348481599E+00
   0.5955944494538434E+00
   0.1114141438893223E+01
   0.9413571604559736E+00
   0.9976076871878070E+00
   0.1001339470638136E+01
   0.1004153868630010E+01
   0.1001322289275919E+01
   0.1001296441871709E+01
   0.9985616421502432E+00
   0.9960163390907504E+00
   0.9879607621861863E+00
   0.9980820899199074E+00
   0.1051852801206748E+01
   0.9795458464694784E+00
   0.9768048052537619E+00
   0.9872266972782709E+00
   0.9931671547977546E+00
   0.9919545973107623E+00
   0.9921246492412241E+00
   0.9930121155459490E+00
   0.9901713912372830E+00
   0.9931183109928903E+00
   0.9773140230587525E+00
   0.1025991578841426E+01
   0.1000468917689828E+01
   0.9968815733871378E+00
   0.9939007710545348E+00
   0.9946889699512038E+00
   0.9941797870198750E+00
   0.9943220341311007E+00
   0.9947810619121107E+00