# vtk DataFile Version 2.0
FUN3D:global_image_vtk
ASCII
DATASET UNSTRUCTURED_GRID
POINTS 1331 double
    0.0000000000000000E+00    0.2500000000000000E+01    0.0000000000000000E+00
    0.5000000000000000E+00    0.2500000000000000E+01    0.0000000000000000E+00
    0.1000000000000000E+01    0.2500000000000000E+01    0.0000000000000000E+00
    0.1500000000000000E+01    0.2500000000000000E+01    0.0000000000000000E+00
    0.2000000000000000E+01    0.2500000000000000E+01    0.0000000000000000E+00
    0.2500000000000000E+01    0.2500000000000000E+01    0.0000000000000000E+00
    0.3000000000000000E+01    0.2500000000000000E+01    0.0000000000000000E+00
    0.3500000000000000E+01    0.2500000000000000E+01    0.0000000000000000E+00
    0.4000000000000000E+01    0.2500000000000000E+01    0.0000000000000000E+00
    0.4500000000000000E+01    0.2500000000000000E+01    0.0000000000000000E+00
    0.5000000000000000E+01    0.2500000000000000E+01    0.0000000000000000E+00
    0.0000000000000000E+00    0.2500000000000000E+01    0.4999999999999982E+00
    0.4999999999999998E+00    0.2500000000000000E+01    0.4999999999999984E+00
    0.9999999999999998E+00    0.2500000000000000E+01    0.4999999999999987E+00
    0.1500000000000000E+01    0.2500000000000000E+01    0.4999999999999989E+00
    0.2000000000000000E+01    0.2500000000000000E+01    0.4999999999999991E+00
    0.2500000000000000E+01    0.2500000000000000E+01    0.4999999999999993E+00
    0.3000000000000000E+01    0.2500000000000000E+01    0.4999999999999996E+00
    0.3500000000000000E+01    0.2500000000000000E+01    0.4999999999999998E+00
    0.4000000000000000E+01    0.2500000000000000E+01    0.5000000000000000E+00
    0.4500000000000002E+01    0.2500000000000000E+01    0.5000000000000002E+00
    0.5000000000000000E+01    0.2500000000000000E+01    0.5000000000000004E+00
    0.0000000000000000E+00    0.2500000000000000E+01    0.1000000000000001E+01
    0.4999999999999997E+00    0.2500000000000000E+01    0.1000000000000001E+01
    0.1000000000000000E+01    0.2500000000000000E+01    0.1000000000000001E+01
    0.1500000000000000E+01    0.2500000000000000E+01    0.1000000000000001E+01
    0.2000000000000000E+01    0.2500000000000000E+01    0.1000000000000001E+01
    0.2500000000000000E+01    0.2500000000000000E+01    0.1000000000000001E+01
    0.3000000000000000E+01    0.2500000000000000E+01    0.1000000000000001E+01
    0.3500000000000000E+01    0.2500000000000000E+01    0.1000000000000001E+01
    0.4000000000000000E+01    0.2500000000000000E+01    0.1000000000000001E+01
    0.4499999999999999E+01    0.2500000000000000E+01    0.1000000000000001E+01
    0.5000000000000000E+01    0.2500000000000000E+01    0.1000000000000001E+01
    0.0000000000000000E+00    0.2500000000000000E+01    0.1499999999999999E+01
    0.4999999999999994E+00    0.2500000000000000E+01    0.1499999999999999E+01
    0.1000000000000000E+01    0.2500000000000000E+01    0.1499999999999999E+01
    0.1500000000000000E+01    0.2500000000000000E+01    0.1499999999999999E+01
    0.2000000000000001E+01    0.2500000000000000E+01    0.1499999999999999E+01
    0.2500000000000000E+01    0.2500000000000000E+01    0.1499999999999999E+01
    0.2999999999999999E+01    0.2500000000000000E+01    0.1499999999999999E+01
    0.3500000000000000E+01    0.2500000000000000E+01    0.1499999999999999E+01
    0.4000000000000001E+01    0.2500000000000000E+01    0.1499999999999999E+01
    0.4500000000000001E+01    0.2500000000000000E+01    0.1499999999999999E+01
    0.5000000000000000E+01    0.2500000000000000E+01    0.1499999999999999E+01
    0.0000000000000000E+00    0.2500000000000000E+01    0.2000000000000002E+01
    0.4999999999999992E+00    0.2500000000000000E+01    0.2000000000000001E+01
    0.1000000000000000E+01    0.2500000000000000E+01    0.2000000000000001E+01
    0.1500000000000000E+01    0.2500000000000000E+01    0.2000000000000001E+01
    0.2000000000000001E+01    0.2500000000000000E+01    0.2000000000000001E+01
    0.2500000000000000E+01    0.2500000000000000E+01    0.2000000000000001E+01
    0.2999999999999999E+01    0.2500000000000000E+01    0.2000000000000000E+01
    0.3500000000000000E+01    0.2500000000000000E+01    0.2000000000000000E+01
    0.4000000000000000E+01    0.2500000000000000E+01    0.2000000000000000E+01
    0.4500000000000000E+01    0.2500000000000000E+01    0.2000000000000000E+01
    0.5000000000000000E+01    0.2500000000000000E+01    0.2000000000000000E+01
    0.0000000000000000E+00    0.2500000000000000E+01    0.2500000000000000E+01
    0.4999999999999991E+00    0.2500000000000000E+01    0.2500000000000000E+01
    0.1000000000000000E+01    0.2500000000000000E+01    0.2500000000000000E+01
    0.1500000000000000E+01    0.2500000000000000E+01    0.2500000000000000E+01
    0.2000000000000001E+01    0.2500000000000000E+01    0.2500000000000000E+01
    0.2500000000000000E+01    0.2500000000000000E+01    0.2500000000000000E+01
    0.2999999999999999E+01    0.2500000000000000E+01    0.2500000000000000E+01
    0.3500000000000001E+01    0.2500000000000000E+01    0.2500000000000000E+01
    0.4000000000000000E+01    0.2500000000000000E+01    0.2500000000000000E+01
    0.4500000000000001E+01    0.2500000000000000E+01    0.2500000000000000E+01
    0.5000000000000000E+01    0.2500000000000000E+01    0.2500000000000000E+01
    0.0000000000000000E+00    0.2500000000000000E+01    0.2999999999999998E+01
    0.4999999999999989E+00    0.2500000000000000E+01    0.2999999999999998E+01
    0.1000000000000000E+01    0.2500000000000000E+01    0.2999999999999999E+01
    0.1499999999999999E+01    0.2500000000000000E+01    0.2999999999999999E+01
    0.2000000000000001E+01    0.2500000000000000E+01    0.2999999999999999E+01
    0.2500000000000000E+01    0.2500000000000000E+01    0.2999999999999999E+01
    0.2999999999999999E+01    0.2500000000000000E+01    0.2999999999999999E+01
    0.3500000000000001E+01    0.2500000000000000E+01    0.3000000000000000E+01
    0.4000000000000000E+01    0.2500000000000000E+01    0.3000000000000000E+01
    0.4500000000000001E+01    0.2500000000000000E+01    0.3000000000000000E+01
    0.5000000000000000E+01    0.2500000000000000E+01    0.3000000000000000E+01
    0.0000000000000000E+00    0.2500000000000000E+01    0.3500000000000001E+01
    0.4999999999999988E+00    0.2500000000000000E+01    0.3500000000000001E+01
    0.1000000000000001E+01    0.2500000000000000E+01    0.3500000000000001E+01
    0.1499999999999999E+01    0.2500000000000000E+01    0.3500000000000001E+01
    0.2000000000000001E+01    0.2500000000000000E+01    0.3500000000000001E+01
    0.2500000000000000E+01    0.2500000000000000E+01    0.3500000000000001E+01
    0.2999999999999999E+01    0.2500000000000000E+01    0.3500000000000001E+01
    0.3500000000000001E+01    0.2500000000000000E+01    0.3500000000000001E+01
    0.4000000000000001E+01    0.2500000000000000E+01    0.3500000000000001E+01
    0.4500000000000001E+01    0.2500000000000000E+01    0.3500000000000001E+01
    0.5000000000000000E+01    0.2500000000000000E+01    0.3500000000000001E+01
    0.0000000000000000E+00    0.2500000000000000E+01    0.3999999999999999E+01
    0.4999999999999986E+00    0.2500000000000000E+01    0.4000000000000000E+01
    0.1000000000000001E+01    0.2500000000000000E+01    0.3999999999999999E+01
    0.1499999999999999E+01    0.2500000000000000E+01    0.3999999999999999E+01
    0.2000000000000001E+01    0.2500000000000000E+01    0.3999999999999999E+01
    0.2500000000000000E+01    0.2500000000000000E+01    0.3999999999999999E+01
    0.2999999999999998E+01    0.2500000000000000E+01    0.3999999999999999E+01
    0.3500000000000001E+01    0.2500000000000000E+01    0.3999999999999999E+01
    0.3999999999999999E+01    0.2500000000000000E+01    0.3999999999999999E+01
    0.4500000000000003E+01    0.2500000000000000E+01    0.3999999999999999E+01
    0.5000000000000000E+01    0.2500000000000000E+01    0.3999999999999999E+01
    0.0000000000000000E+00    0.2500000000000000E+01    0.4500000000000002E+01
    0.4999999999999984E+00    0.2500000000000000E+01    0.4500000000000002E+01
    0.1000000000000001E+01    0.2500000000000000E+01    0.4500000000000001E+01
    0.1499999999999999E+01    0.2500000000000000E+01    0.4500000000000003E+01
    0.2000000000000002E+01    0.2500000000000000E+01    0.4500000000000001E+01
    0.2500000000000000E+01    0.2500000000000000E+01    0.4500000000000001E+01
    0.2999999999999998E+01    0.2500000000000000E+01    0.4500000000000001E+01
    0.3500000000000001E+01    0.2500000000000000E+01    0.4499999999999999E+01
    0.3999999999999999E+01    0.2500000000000000E+01    0.4499999999999999E+01
    0.4500000000000002E+01    0.2500000000000000E+01    0.4500000000000000E+01
    0.5000000000000000E+01    0.2500000000000000E+01    0.4500000000000000E+01
    0.0000000000000000E+00    0.2500000000000000E+01    0.5000000000000000E+01
    0.4999999999999982E+00    0.2500000000000000E+01    0.5000000000000000E+01
    0.1000000000000001E+01    0.2500000000000000E+01    0.5000000000000000E+01
    0.1499999999999999E+01    0.2500000000000000E+01    0.5000000000000000E+01
    0.2000000000000002E+01    0.2500000000000000E+01    0.5000000000000000E+01
    0.2500000000000000E+01    0.2500000000000000E+01    0.5000000000000000E+01
    0.2999999999999998E+01    0.2500000000000000E+01    0.5000000000000000E+01
    0.3500000000000001E+01    0.2500000000000000E+01    0.5000000000000000E+01
    0.3999999999999999E+01    0.2500000000000000E+01    0.5000000000000000E+01
    0.4500000000000002E+01    0.2500000000000000E+01    0.5000000000000000E+01
    0.5000000000000000E+01    0.2500000000000000E+01    0.5000000000000000E+01
    0.0000000000000000E+00    0.2000000000000000E+01    0.0000000000000000E+00
    0.5000000000000000E+00    0.2000000000000000E+01    0.0000000000000000E+00
    0.1000000000000000E+01    0.2000000000000000E+01    0.0000000000000000E+00
    0.1500000000000000E+01    0.2000000000000000E+01    0.0000000000000000E+00
[...]
POINT_DATA 1331
SCALARS rho double 1
LOOKUP_TABLE default
   0.8221075747803305E+00
   0.9402751506966347E+00
   0.9568971475481217E+00
   0.9674203566017345E+00
   0.9725309917367387E+00
   0.9741667391172018E+00
   0.9755386527305883E+00
   0.9756192430127667E+00
   0.9614149067298584E+00
   0.8488575996489774E+00
   0.3949285489473253E+00
   0.9952329732441101E+00
   0.9949910742247210E+00
   0.9948199652888692E+00
   0.9944146564918817E+00
   0.9940031403677789E+00
   0.9929106831617687E+00
   0.9923472552959670E+00
   0.9888395618813935E+00
   0.9889041188650423E+00
   0.9796066151757979E+00
   0.1005776569633636E+01
   0.9953855304550996E+00
   0.9952413255353485E+00
   0.9950935758626012E+00
   0.9949027223619982E+00
   0.9945397016004320E+00
   0.9941692731412256E+00
   0.9931444419469415E+00
   0.9924494487780670E+00
   0.9867714421242283E+00
   0.9858818289342850E+00
   0.9610642052537918E+00
   0.9954581745415819E+00
   0.9954294768259062E+00
   0.9952739230883856E+00
   0.9950552595138572E+00
   0.9947285419104707E+00
   0.9943497881069523E+00
   0.9938124606001647E+00
   0.9937812547981475E+00
   0.9933763377207943E+00
   0.9961453708346775E+00
   0.9946399774572403E+00
   0.9956314260424958E+00
   0.9956106688304436E+00
   0.9954809560229370E+00
   0.9953231047425167E+00
   0.9950603661960147E+00
   0.9948715288485208E+00
   0.9943498508387614E+00
   0.9944476863633559E+00
   0.9934967593572602E+00
   0.9956142495220458E+00
   0.9958065835937320E+00
   0.9959106734214942E+00
   0.9959122158737953E+00
   0.9957981259708782E+00
   0.9956768111222891E+00
   0.9954900040647456E+00
   0.9954307676959454E+00
   0.9952734482023453E+00
   0.9957030374910356E+00
   0.9958432555341746E+00
   0.9973108449967328E+00
   0.9980941778861988E+00
   0.9962078464433551E+00
   0.9962016278300528E+00
   0.9960799544436336E+00
   0.9959733064140538E+00
   0.9958241055989361E+00
   0.9958092455920031E+00
   0.9957272698352752E+00
   0.9960847188264484E+00
   0.9963366043223355E+00
   0.9974772748460707E+00
   0.9984977822276020E+00
   0.9965981546996103E+00
   0.9965841399793858E+00
   0.9964311485971653E+00
   0.9963091938954688E+00
   0.9961791096792243E+00
   0.9961948199645951E+00
   0.9962365183668899E+00
   0.9966134711097769E+00
   0.9970280696931728E+00
   0.9979049355110085E+00
   0.9988277974160866E+00
   0.9970558945617620E+00
   0.9969791717309932E+00
   0.9967602304296828E+00
   0.9965984262527057E+00
   0.9964541177440390E+00
   0.9964453205408240E+00
   0.9964992446113233E+00
   0.9968188349135421E+00
   0.9972691121860191E+00
   0.9980702645012870E+00
   0.9989790472142465E+00
   0.9977143476762634E+00
   0.9974519700728761E+00
   0.9970921174192010E+00
   0.9968462253480564E+00
   0.9966646049605199E+00
   0.9966222918259995E+00
   0.9966755009775650E+00
   0.9969468868910444E+00
   0.9973872004002616E+00
   0.9981487688968971E+00
   0.9990655586723298E+00
   0.9985973580015270E+00
   0.9978578851508433E+00
   0.9973649789254008E+00
   0.9970290969891965E+00
   0.9967900942626600E+00
   0.9966804901396984E+00
   0.9966776443502761E+00
   0.9968764578302989E+00
   0.9972557449735748E+00
   0.9979821376057257E+00
   0.9989972440831747E+00
   0.8219833877860885E+00
   0.9402493950836470E+00
   0.9570421227386010E+00
   0.9674533805100008E+00
   0.9723902224154164E+00
   0.9739758898652618E+00
   0.9752363966684887E+00
   0.9752625645893586E+00
   0.9611762671885232E+00
   0.8495647754153415E+00
   0.3976796810699539E+00
   0.9952364973520831E+00
   0.9950044537099710E+00
   0.9948392336157981E+00
   0.9944375595481135E+00
   0.9940317180084280E+00
   0.9929389812393472E+00
   0.9923540441710532E+00
   0.9887461040824953E+00
   0.9885845027339630E+00
   0.9794342821748533E+00
   0.1005958184875103E+01
   0.9953782547481056E+00
   0.9952409659794507E+00
   0.9950946989103823E+00
   0.9949023532590867E+00
   0.9945367295800482E+00
   0.9941605549955503E+00
   0.9931246786985546E+00
   0.9924130075717902E+00
   0.9867315148855599E+00
   0.9858966527898685E+00
   0.9611946889531808E+00
   0.9954576968202029E+00
   0.9954294143413334E+00
   0.9952761839691195E+00
   0.9950589111634351E+00
   0.9947329171299686E+00
   0.9943521464240187E+00
   0.9938068246946810E+00
   0.9937574601658248E+00
   0.9933228427779751E+00
   0.9960914358208383E+00
   0.9946426861129878E+00
   0.9956310279345492E+00
   0.9956105618207671E+00
   0.9954813960153444E+00
   0.9953236913256628E+00
   0.9950603855536418E+00
   0.9948700969480263E+00
   0.9943451980122912E+00
   0.9944389147518197E+00
   0.9934824973347332E+00
   0.9955963854341424E+00
   0.9958045522954093E+00
   0.9959106221890098E+00
   0.9959124161105892E+00
   0.9957989125685109E+00
   0.9956779741641866E+00
   0.9954907764748731E+00
   0.9954303842311002E+00
   0.9952705547908784E+00
   0.9956965229859794E+00
   0.9958340615301512E+00
   0.9973001339369809E+00
   0.9980914691387024E+00
   0.9962075993690986E+00
   0.9962015547028251E+00
   0.9960802220725116E+00
   0.9959739207125451E+00
   0.9958245654710907E+00
   0.9958091292612637E+00
   0.9957258457522808E+00
   0.9960814282266823E+00
   0.9963323516881454E+00
   0.9974727372035141E+00
   0.9984967855896359E+00
   0.9965980013814957E+00
   0.9965841322017061E+00
   0.9964313265196403E+00
   0.9963095706660879E+00
   0.9961794175369691E+00
   0.9961949476832186E+00
   0.9962360774631966E+00
   0.9966120595073478E+00
   0.9970258734592744E+00
   0.9979015515126940E+00
   0.9988244853587380E+00
   0.9970557134473066E+00
   0.9969790522423324E+00
   0.9967602394727758E+00
   0.9965986100853920E+00
   0.9964543293265834E+00
   0.9964455117145933E+00
   0.9964990791380657E+00
   0.9968180776690926E+00
   0.9972675735594387E+00
   0.9980677750709178E+00
   0.9989760094093318E+00
   0.9977141741187107E+00
   0.9974518360155508E+00
   0.9970920964150056E+00
   0.9968463888176919E+00
   0.9966647994887602E+00
   0.9966224230774806E+00
   0.9966752918656662E+00
   0.9969463068598110E+00
   0.9973860496916461E+00
   0.9981473627758990E+00
   0.9990641056651046E+00
   0.9985972195565326E+00
   0.9978577318414188E+00
   0.9973648505849404E+00
   0.9970290784537073E+00
   0.9967901575625707E+00
   0.9966807391565087E+00
   0.9966779581687036E+00
   0.9968767723977697E+00
   0.9972556056509810E+00
   0.9979804810390523E+00
   0.9989933522928645E+00
   0.8220351930340557E+00
   0.9403356433029790E+00
   0.9571698999907601E+00
   0.9675810402232379E+00
   0.9725699752982503E+00
   0.9741648894219980E+00
   0.9755040030893578E+00
   0.9755607690528160E+00
   0.9615788813321459E+00
   0.8499385642879608E+00
   0.3977134692297276E+00
   0.9952376007137359E+00
   0.9949997549904559E+00
   0.9948315609905835E+00
   0.9944287808077209E+00
   0.9940218452617425E+00
   0.9929300874265682E+00
   0.9923519946068391E+00
   0.9887593959779151E+00
   0.9886416923847815E+00
   0.9795129042407882E+00
   0.1005971879936539E+01
   0.9953816288587216E+00
   0.9952420764383691E+00
   0.9950939235013627E+00
   0.9949011592635528E+00
   0.9945361735084004E+00
   0.9941616042119621E+00
   0.9931307375033770E+00
   0.9924260404337220E+00
   0.9867520525038572E+00
   0.9859126713556244E+00
   0.9611851509601005E+00
   0.9954580038532586E+00
   0.9954292636933199E+00
   0.9952747841833651E+00
   0.9950566409417642E+00
   0.9947303731315572E+00
   0.9943500671630652E+00
   0.9938077385081149E+00
   0.9937652056151398E+00
   0.9933408837041245E+00
   0.9961169384740380E+00
   0.9946528186466002E+00
   0.9956315457908328E+00
   0.9956108203637820E+00
   0.9954810285358509E+00
   0.9953229897225214E+00
   0.9950600513494389E+00
   0.9948706966043205E+00
   0.9943476734728983E+00
   0.9944442016534668E+00
   0.9934897907920720E+00
   0.9956064851543143E+00
   0.9958093025525456E+00
   0.9959107003963826E+00
   0.9959122456339100E+00
   0.9957982929465077E+00
   0.9956769901233457E+00
   0.9954899940806778E+00
   0.9954302472147483E+00
   0.9952717840367139E+00
   0.9957000560030879E+00
   0.9958391666872950E+00
   0.9973072414012715E+00
   0.9980944285437805E+00
   0.9962078715886378E+00
   0.9962016136497260E+00
   0.9960799147557545E+00
   0.9959732780444930E+00
   0.9958240600646612E+00
   0.9958090894692032E+00
   0.9957267727817024E+00
   0.9960837420046013E+00
   0.9963352733451195E+00
   0.9974759359290036E+00
   0.9984972948473342E+00
   0.9965981700404946E+00
   0.9965841416025999E+00
   0.9964311293723862E+00
   0.9963091383673539E+00
   0.9961790022633988E+00
   0.9961946372340236E+00
   0.9962361924248658E+00
   0.9966129382771202E+00
   0.9970274550455438E+00
   0.9979044578326317E+00
   0.9988276864243104E+00
   0.9970558983311154E+00
   0.9969791677653828E+00
   0.9967602130932194E+00
   0.9965983893384701E+00
   0.9964540499298307E+00
   0.9964452086175537E+00
   0.9964990745155120E+00
   0.9968185717337982E+00
   0.9972687872068319E+00
   0.9980700125827152E+00
   0.9989789796851557E+00
   0.9977143484623086E+00
   0.9974519652552007E+00
   0.9970920996364133E+00
   0.9968461946721524E+00
   0.9966645593304572E+00
   0.9966222166445802E+00
   0.9966753878525059E+00
   0.9969467216577971E+00
   0.9973869953018314E+00
   0.9981485999269446E+00
   0.9990654741511796E+00
   0.9985973565618106E+00
   0.9978578868988930E+00
   0.9973649726710576E+00
   0.9970290703985969E+00
   0.9967900442625162E+00
   0.9966804172354500E+00
   0.9966775629362170E+00
   0.9968763756034592E+00
   0.9972556317096458E+00
   0.9979819899644495E+00
   0.9989971163494090E+00
   0.8220314948119682E+00
   0.9402618326856160E+00
   0.9570912728658143E+00
   0.9674892394570253E+00
   0.9724005486799724E+00
   0.9739729959435888E+00
   0.9752286936482975E+00
   0.9752706491896662E+00
   0.9612706911362149E+00
   0.8497639978092274E+00
   0.3977184606971764E+00
   0.9952382906909401E+00
   0.9950014499960883E+00
   0.9948343807507045E+00
   0.9944310692131398E+00
   0.9940228323192329E+00
   0.9929262418914482E+00
   0.9923387373320754E+00
   0.9887282101595024E+00
   0.9885849521522073E+00
   0.9794765142556746E+00
   0.1005999718461064E+01
   0.9953810693758145E+00
   0.9952416620201212E+00
   0.9950943468503943E+00
   0.9949020348361289E+00
   0.9945364498386355E+00
   0.9941597551856983E+00
   0.9931250073501467E+00
   0.9924171036737403E+00
   0.9867447391685554E+00
   0.9859162887713042E+00
   0.9612024139395838E+00
   0.9954584138530945E+00
   0.9954299237665633E+00
   0.9952758593816630E+00
   0.9950577709670876E+00
   0.9947309565832134E+00
   0.9943491532447629E+00
   0.9938031246189775E+00
   0.9937545853482209E+00
   0.9933245856036630E+00
   0.9961032472233300E+00
   0.9946547347678338E+00
   0.9956312231809782E+00
   0.9956108122261356E+00
   0.9954814604085424E+00
   0.9953235538759775E+00
   0.9950600102676809E+00
   0.9948695314424344E+00
   0.9943449349829200E+00
   0.9944397720949963E+00
   0.9934847681230502E+00
   0.9956022774315783E+00
   0.9958097097252643E+00
   0.9959106293034430E+00
   0.9959124254014009E+00
   0.9957987922722966E+00
   0.9956776902464909E+00
   0.9954903495372488E+00
   0.9954298086113150E+00
   0.9952699798122725E+00
   0.9956965733916399E+00
   0.9958347436624142E+00
   0.9973020536699849E+00
   0.9980920001992498E+00
   0.9962076493998112E+00
   0.9962016000799845E+00
   0.9960801956362594E+00
   0.9959737821056395E+00
   0.9958243363822193E+00
   0.9958089038034064E+00
   0.9957257061564901E+00
   0.9960816713736196E+00
   0.9963327702227788E+00
   0.9974730923953929E+00
   0.9984965679197779E+00
   0.9965979887691171E+00
   0.9965841379734063E+00
   0.9964313246006349E+00
   0.9963095261403200E+00
   0.9961793061671014E+00
   0.9961948106541766E+00
   0.9962359621460655E+00
   0.9966121586644239E+00
   0.9970261632504130E+00
   0.9979018380767830E+00
   0.9988247140996976E+00
   0.9970556941543821E+00
   0.9969790466028893E+00
   0.9967602323689921E+00
   0.9965985974859333E+00
   0.9964542999469582E+00
   0.9964454833721367E+00
   0.9964990637538744E+00
   0.9968181492180820E+00
   0.9972677375615082E+00
   0.9980679333879886E+00
   0.9989761755490556E+00
   0.9977141605429013E+00
   0.9974518308678088E+00
   0.9970920918081775E+00
   0.9968463761558924E+00
   0.9966647751526750E+00
   0.9966224136081970E+00
   0.9966753198546089E+00
   0.9969464074501444E+00
   0.9973862325744882E+00
   0.9981475377736124E+00
   0.9990641831071045E+00
   0.9985972172623322E+00
   0.9978577250558786E+00
   0.9973648459162323E+00
   0.9970290780472689E+00
   0.9967901529792305E+00
   0.9966807300907552E+00
   0.9966779570455802E+00
   0.9968768006618757E+00
   0.9972557090908586E+00
   0.9979806324119700E+00
   0.9989934143033899E+00
   0.8220218854477195E+00
   0.9403385476881682E+00
   0.9571823459082570E+00
   0.9675899416781518E+00
   0.9725712083019572E+00
   0.9741601721516265E+00
   0.9754964509278058E+00
   0.9755565780085759E+00
   0.9615962792190880E+00
   0.8499810500618422E+00
   0.3977308255702794E+00
   0.9952380712064760E+00
   0.9950015659967265E+00
   0.9948341889362721E+00
   0.9944309193191501E+00
   0.9940232532186708E+00
   0.9929274700934841E+00
   0.9923413305752806E+00
   0.9887326235325565E+00
   0.9885878668557134E+00
   0.9794750062769942E+00
   0.1005996467788525E+01
   0.9953807037496051E+00
   0.9952415109876013E+00
   0.9950937570949574E+00
   0.9949009044264095E+00
   0.9945354564925667E+00
   0.9941595658963240E+00
   0.9931265859204912E+00
   0.9924204593072539E+00
   0.9867487138816832E+00
   0.9859195753381296E+00
   0.9612041625823261E+00
   0.9954582293385668E+00
   0.9954294536226911E+00
   0.9952751042949080E+00
   0.9950567314782799E+00
   0.9947300023105321E+00
   0.9943483349523143E+00
   0.9938031074843654E+00
   0.9937562955354018E+00
   0.9933266428457960E+00
   0.9961068009597017E+00
   0.9946582280986075E+00
   0.9956313919503844E+00
   0.9956106998762319E+00
   0.9954809500931781E+00
   0.9953227758435033E+00
   0.9950595475543854E+00
   0.9948696264446921E+00
   0.9943457028097497E+00
   0.9944415647486075E+00
   0.9934862180019198E+00
   0.9956030722777252E+00
   0.9958092356993501E+00
   0.9959107310192566E+00
   0.9959122404823753E+00
   0.9957982747024043E+00
   0.9956768543880955E+00
   0.9954896058035096E+00
   0.9954294124907451E+00
   0.9952701556477624E+00
   0.9956976445143840E+00
   0.9958361378217555E+00
   0.9973043229282081E+00
   0.9980943105263708E+00
   0.9962078346238482E+00
   0.9962015747254748E+00
   0.9960798658308665E+00
   0.9959731816167603E+00
   0.9958238285804705E+00
   0.9958086463017747E+00
   0.9957260119687557E+00
   0.9960826946512198E+00
   0.9963341771128775E+00
   0.9974750731339298E+00
   0.9984978028668279E+00
   0.9965981526348442E+00
   0.9965841106360849E+00
   0.9964310789646115E+00
   0.9963090572690813E+00
   0.9961788444251304E+00
   0.9961943375774824E+00
   0.9962356849215744E+00
   0.9966122217934189E+00
   0.9970267437010524E+00
   0.9979040756882749E+00
   0.9988279687963072E+00
   0.9970558933546690E+00
   0.9969791446372035E+00
   0.9967601701961653E+00
   0.9965983265589352E+00
   0.9964539513896181E+00
   0.9964450379354047E+00
   0.9964987998718948E+00
   0.9968181804263948E+00
   0.9972683850328319E+00
   0.9980697810056551E+00
   0.9989790044702289E+00
   0.9977143520522250E+00
   0.9974519476987387E+00
   0.9970920679837313E+00
   0.9968461552363520E+00
   0.9966644969559469E+00
   0.9966220928530548E+00
   0.9966751813087387E+00
   0.9969464353231494E+00
   0.9973867246681503E+00
   0.9981484816855122E+00
   0.9990655053328362E+00
   0.9985973657063745E+00
   0.9978578878036717E+00
   0.9973649498463182E+00
   0.9970290183919903E+00
   0.9967899770885035E+00
   0.9966803369840492E+00
   0.9966774517588911E+00
   0.9968761844744600E+00
   0.9972553632553153E+00
   0.9979817794265318E+00
   0.9989970406536604E+00
   0.8220316722413499E+00
   0.9402640544193788E+00
   0.9570944512442009E+00
   0.9674910562312241E+00
   0.9724005580383210E+00
   0.9739718219092407E+00
   0.9752273854422393E+00
   0.9752707361616172E+00
   0.9612751083563330E+00
   0.8497733067494491E+00
   0.3977242983219682E+00
   0.9952386419567238E+00
   0.9950015129715786E+00
   0.9948342149527931E+00
   0.9944307546067682E+00
   0.9940224970987855E+00
   0.9929254076840975E+00
   0.9923371786676053E+00
   0.9887265752743513E+00
   0.9885801022230719E+00
   0.9794729206441118E+00
   0.1006004328820532E+01
   0.9953813611435354E+00
   0.9952418908425285E+00
   0.9950942460649400E+00
   0.9949014742788872E+00
   0.9945355927288670E+00
   0.9941588671109955E+00
   0.9931245380404162E+00
   0.9924174501381966E+00
   0.9867459833468168E+00
   0.9859192303566863E+00
   0.9612063683029444E+00
   0.9954584554036245E+00
   0.9954299675601881E+00
   0.9952757930897391E+00
   0.9950575081130014E+00
   0.9947303439419787E+00
   0.9943480284918810E+00
   0.9938016640923923E+00
   0.9937535129640184E+00
   0.9933235101494888E+00
   0.9961028426313701E+00
   0.9946551161644148E+00
   0.9956313342609369E+00
   0.9956108911256635E+00
   0.9954814492658096E+00
   0.9953234665304820E+00
   0.9950598539310153E+00
   0.9948692831961043E+00
   0.9943445884776215E+00
   0.9944397844085743E+00
   0.9934852690001617E+00
   0.9956027990135135E+00
   0.9958100038095105E+00
   0.9959106399820082E+00
   0.9959124270372097E+00
   0.9957987555995180E+00
   0.9956776037133230E+00
   0.9954901985721968E+00
   0.9954295952694799E+00
   0.9952696607485674E+00
   0.9956963461652323E+00
   0.9958349002414633E+00
   0.9973028954421522E+00
   0.9980932664925931E+00
   0.9962076635619361E+00
   0.9962016093395173E+00
   0.9960801699911923E+00
   0.9959737377629643E+00
   0.9958242949609721E+00
   0.9958088883601053E+00
   0.9957256914620451E+00
   0.9960816530508571E+00
   0.9963328023886878E+00
   0.9974734943408361E+00
   0.9984968280639104E+00
   0.9965980030167572E+00
   0.9965841424914613E+00
   0.9964313057141394E+00
   0.9963094761909538E+00
   0.9961792477858183E+00
   0.9961947880813432E+00
   0.9962360002635599E+00
   0.9966122387768372E+00
   0.9970261582242402E+00
   0.9979017611129798E+00
   0.9988242281354474E+00
   0.9970556962926178E+00
   0.9969790581647673E+00
   0.9967602383353135E+00
   0.9965985776765753E+00
   0.9964542544760223E+00
   0.9964454474193037E+00
   0.9964990885306760E+00
   0.9968182694351756E+00
   0.9972678278534394E+00
   0.9980678011172047E+00
   0.9989758132650673E+00
   0.9977141532841399E+00
   0.9974518369127096E+00
   0.9970920971386640E+00
   0.9968463716861580E+00
   0.9966647653930383E+00
   0.9966224151886706E+00
   0.9966753496782793E+00
   0.9969464878195481E+00
   0.9973863026515370E+00
   0.9981474829966085E+00
   0.9990641645332894E+00
   0.9985972009550006E+00
   0.9978577285956944E+00
   0.9973648693718780E+00
   0.9970291016403228E+00
   0.9967901398854528E+00
   0.9966806737186782E+00
   0.9966778893141960E+00
   0.9968768117600557E+00
   0.9972558451091437E+00
   0.9979807396499649E+00
   0.9989936404159429E+00
   0.8220218855023453E+00
   0.9403385474841730E+00
   0.9571823456492291E+00
   0.9675899415376379E+00
   0.9725712081546046E+00
   0.9741601721064151E+00
   0.9754964509191477E+00
   0.9755565782038981E+00
   0.9615962793523964E+00
   0.8499810497131085E+00
   0.3977308255541261E+00
   0.9952380711892937E+00
   0.9950015659703590E+00
   0.9948341889071574E+00
   0.9944309192908625E+00
   0.9940232531930413E+00
   0.9929274700719678E+00
   0.9923413305545099E+00
   0.9887326234714621E+00
   0.9885878668011050E+00
   0.9794750061328370E+00
   0.1005996467770918E+01
   0.9953807037435255E+00
   0.9952415109896694E+00
   0.9950937571037390E+00
   0.9949009044376238E+00
   0.9945354564957735E+00
   0.9941595658927547E+00
   0.9931265859221021E+00
   0.9924204593459133E+00
   0.9867487139697987E+00
   0.9859195754433577E+00
   0.9612041626537124E+00
   0.9954582293319171E+00
   0.9954294536064532E+00
   0.9952751042725669E+00
   0.9950567314587189E+00
   0.9947300023000886E+00
   0.9943483349450433E+00
   0.9938031074612634E+00
   0.9937562955152136E+00