# vtk DataFile Version 2.0
FUN3D:global_image_vtk
ASCII
DATASET UNSTRUCTURED_GRID
POINTS 1331 double
    0.0000000000000000E+00    0.2500000000000000E+01    0.0000000000000000E+00
    0.5000000000000000E+00    0.2500000000000000E+01    0.0000000000000000E+00
    0.1000000000000000E+01    0.2500000000000000E+01    0.0000000000000000E+00
    0.1500000000000000E+01    0.2500000000000000E+01    0.0000000000000000E+00
    0.2000000000000000E+01    0.2500000000000000E+01    0.0000000000000000E+00
    0.2500000000000000E+01    0.2500000000000000E+01    0.0000000000000000E+00
    0.3000000000000000E+01    0.2500000000000000E+01    0.0000000000000000E+00
    0.3500000000000000E+01    0.2500000000000000E+01    0.0000000000000000E+00
    0.4000000000000000E+01    0.2500000000000000E+01    0.0000000000000000E+00
    0.4500000000000000E+01    0.2500000000000000E+01    0.0000000000000000E+00
    0.5000000000000000E+01    0.2500000000000000E+01    0.0000000000000000E+00
    0.0000000000000000E+00    0.2500000000000000E+01    0.4999999999999982E+00
    0.4999999999999998E+00    0.2500000000000000E+01    0.4999999999999984E+00
    0.9999999999999998E+00    0.2500000000000000E+01    0.4999999999999987E+00
    0.1500000000000000E+01    0.2500000000000000E+01    0.4999999999999989E+00
    0.2000000000000000E+01    0.2500000000000000E+01    0.4999999999999991E+00
    0.2500000000000000E+01    0.2500000000000000E+01    0.4999999999999993E+00
    0.3000000000000000E+01    0.2500000000000000E+01    0.4999999999999996E+00
    0.3500000000000000E+01    0.2500000000000000E+01    0.4999999999999998E+00
    0.4000000000000000E+01    0.2500000000000000E+01    0.5000000000000000E+00
    0.4500000000000002E+01    0.2500000000000000E+01    0.5000000000000002E+00
    0.5000000000000000E+01    0.2500000000000000E+01    0.5000000000000004E+00
    0.0000000000000000E+00    0.2500000000000000E+01    0.1000000000000001E+01
    0.4999999999999997E+00    0.2500000000000000E+01    0.1000000000000001E+01
    0.1000000000000000E+01    0.2500000000000000E+01    0.1000000000000001E+01
    0.1500000000000000E+01    0.2500000000000000E+01    0.1000000000000001E+01
    0.2000000000000000E+01    0.2500000000000000E+01    0.1000000000000001E+01
    0.2500000000000000E+01    0.2500000000000000E+01    0.1000000000000001E+01
    0.3000000000000000E+01    0.2500000000000000E+01    0.1000000000000001E+01
    0.3500000000000000E+01    0.2500000000000000E+01    0.1000000000000001E+01
    0.4000000000000000E+01    0.2500000000000000E+01    0.1000000000000001E+01
    0.4499999999999999E+01    0.2500000000000000E+01    0.1000000000000001E+01
    0.5000000000000000E+01    0.2500000000000000E+01    0.1000000000000001E+01
    0.0000000000000000E+00    0.2500000000000000E+01    0.1499999999999999E+01
    0.4999999999999994E+00    0.2500000000000000E+01    0.1499999999999999E+01
    0.1000000000000000E+01    0.2500000000000000E+01    0.1499999999999999E+01
    0.1500000000000000E+01    0.2500000000000000E+01    0.1499999999999999E+01
    0.2000000000000001E+01    0.2500000000000000E+01    0.1499999999999999E+01
    0.2500000000000000E+01    0.2500000000000000E+01    0.1499999999999999E+01
    0.2999999999999999E+01    0.2500000000000000E+01    0.1499999999999999E+01
    0.3500000000000000E+01    0.2500000000000000E+01    0.1499999999999999E+01
    0.4000000000000001E+01    0.2500000000000000E+01    0.1499999999999999E+01
    0.4500000000000001E+01    0.2500000000000000E+01    0.1499999999999999E+01
    0.5000000000000000E+01    0.2500000000000000E+01    0.1499999999999999E+01
    0.0000000000000000E+00    0.2500000000000000E+01    0.2000000000000002E+01
    0.4999999999999992E+00    0.2500000000000000E+01    0.2000000000000001E+01
    0.1000000000000000E+01    0.2500000000000000E+01    0.2000000000000001E+01
    0.1500000000000000E+01    0.2500000000000000E+01    0.2000000000000001E+01
    0.2000000000000001E+01    0.2500000000000000E+01    0.2000000000000001E+01
    0.2500000000000000E+01    0.2500000000000000E+01    0.2000000000000001E+01
    0.2999999999999999E+01    0.2500000000000000E+01    0.2000000000000000E+01
    0.3500000000000000E+01    0.2500000000000000E+01    0.2000000000000000E+01
    0.4000000000000000E+01    0.2500000000000000E+01    0.2000000000000000E+01
    0.4500000000000000E+01    0.2500000000000000E+01    0.2000000000000000E+01
    0.5000000000000000E+01    0.2500000000000000E+01    0.2000000000000000E+01
    0.0000000000000000E+00    0.2500000000000000E+01    0.2500000000000000E+01
    0.4999999999999991E+00    0.2500000000000000E+01    0.2500000000000000E+01
    0.1000000000000000E+01    0.2500000000000000E+01    0.2500000000000000E+01
    0.1500000000000000E+01    0.2500000000000000E+01    0.2500000000000000E+01
    0.2000000000000001E+01    0.2500000000000000E+01    0.2500000000000000E+01
    0.2500000000000000E+01    0.2500000000000000E+01    0.2500000000000000E+01
    0.2999999999999999E+01    0.2500000000000000E+01    0.2500000000000000E+01
    0.3500000000000001E+01    0.2500000000000000E+01    0.2500000000000000E+01
    0.4000000000000000E+01    0.2500000000000000E+01    0.2500000000000000E+01
    0.4500000000000001E+01    0.2500000000000000E+01    0.2500000000000000E+01
    0.5000000000000000E+01    0.2500000000000000E+01    0.2500000000000000E+01
    0.0000000000000000E+00    0.2500000000000000E+01    0.2999999999999998E+01
    0.4999999999999989E+00    0.2500000000000000E+01    0.2999999999999998E+01
    0.1000000000000000E+01    0.2500000000000000E+01    0.2999999999999999E+01
    0.1499999999999999E+01    0.2500000000000000E+01    0.2999999999999999E+01
    0.2000000000000001E+01    0.2500000000000000E+01    0.2999999999999999E+01
    0.2500000000000000E+01    0.2500000000000000E+01    0.2999999999999999E+01
    0.2999999999999999E+01    0.2500000000000000E+01    0.2999999999999999E+01
    0.3500000000000001E+01    0.2500000000000000E+01    0.3000000000000000E+01
    0.4000000000000000E+01    0.2500000000000000E+01    0.3000000000000000E+01
    0.4500000000000001E+01    0.2500000000000000E+01    0.3000000000000000E+01
    0.5000000000000000E+01    0.2500000000000000E+01    0.3000000000000000E+01
    0.0000000000000000E+00    0.2500000000000000E+01    0.3500000000000001E+01
    0.4999999999999988E+00    0.2500000000000000E+01    0.3500000000000001E+01
    0.1000000000000001E+01    0.2500000000000000E+01    0.3500000000000001E+01
    0.1499999999999999E+01    0.2500000000000000E+01    0.3500000000000001E+01
    0.2000000000000001E+01    0.2500000000000000E+01    0.3500000000000001E+01
    0.2500000000000000E+01    0.2500000000000000E+01    0.3500000000000001E+01
    0.2999999999999999E+01    0.2500000000000000E+01    0.3500000000000001E+01
    0.3500000000000001E+01    0.2500000000000000E+01    0.3500000000000001E+01
    0.4000000000000001E+01    0.2500000000000000E+01    0.3500000000000001E+01
    0.4500000000000001E+01    0.2500000000000000E+01    0.3500000000000001E+01
    0.5000000000000000E+01    0.2500000000000000E+01    0.3500000000000001E+01
    0.0000000000000000E+00    0.2500000000000000E+01    0.3999999999999999E+01
    0.4999999999999986E+00    0.2500000000000000E+01    0.4000000000000000E+01
    0.1000000000000001E+01    0.2500000000000000E+01    0.3999999999999999E+01
    0.1499999999999999E+01    0.2500000000000000E+01    0.3999999999999999E+01
    0.2000000000000001E+01    0.2500000000000000E+01    0.3999999999999999E+01
    0.2500000000000000E+01    0.2500000000000000E+01    0.3999999999999999E+01
    0.2999999999999998E+01    0.2500000000000000E+01    0.3999999999999999E+01
    0.3500000000000001E+01    0.2500000000000000E+01    0.3999999999999999E+01
    0.3999999999999999E+01    0.2500000000000000E+01    0.3999999999999999E+01
    0.4500000000000003E+01    0.2500000000000000E+01    0.3999999999999999E+01
    0.5000000000000000E+01    0.2500000000000000E+01    0.3999999999999999E+01
    0.0000000000000000E+00    0.2500000000000000E+01    0.4500000000000002E+01
    0.4999999999999984E+00    0.2500000000000000E+01    0.4500000000000002E+01
    0.1000000000000001E+01    0.2500000000000000E+01    0.4500000000000001E+01
    0.1499999999999999E+01    0.2500000000000000E+01    0.4500000000000003E+01
    0.2000000000000002E+01    0.2500000000000000E+01    0.4500000000000001E+01
    0.2500000000000000E+01    0.2500000000000000E+01    0.4500000000000001E+01
    0.2999999999999998E+01    0.2500000000000000E+01    0.4500000000000001E+01
    0.3500000000000001E+01    0.2500000000000000E+01    0.4499999999999999E+01
    0.3999999999999999E+01    0.2500000000000000E+01    0.4499999999999999E+01
    0.4500000000000002E+01    0.2500000000000000E+01    0.4500000000000000E+01
    0.5000000000000000E+01    0.2500000000000000E+01    0.4500000000000000E+01
    0.0000000000000000E+00    0.2500000000000000E+01    0.5000000000000000E+01
    0.4999999999999982E+00    0.2500000000000000E+01    0.5000000000000000E+01
    0.1000000000000001E+01    0.2500000000000000E+01    0.5000000000000000E+01
    0.1499999999999999E+01    0.2500000000000000E+01    0.5000000000000000E+01
    0.2000000000000002E+01    0.2500000000000000E+01    0.5000000000000000E+01
    0.2500000000000000E+01    0.2500000000000000E+01    0.5000000000000000E+01
    0.2999999999999998E+01    0.2500000000000000E+01    0.5000000000000000E+01
    0.3500000000000001E+01    0.2500000000000000E+01    0.5000000000000000E+01
    0.3999999999999999E+01    0.2500000000000000E+01    0.5000000000000000E+01
    0.4500000000000002E+01    0.2500000000000000E+01    0.5000000000000000E+01
    0.5000000000000000E+01    0.2500000000000000E+01    0.5000000000000000E+01
    0.0000000000000000E+00    0.2000000000000000E+01    0.0000000000000000E+00
    0.5000000000000000E+00    0.2000000000000000E+01    0.0000000000000000E+00
    0.1000000000000000E+01    0.2000000000000000E+01    0.0000000000000000E+00
    0.1500000000000000E+01    0.2000000000000000E+01    0.0000000000000000E+00
[...]
POINT_DATA 1331
SCALARS rho double 1
LOOKUP_TABLE default
   0.8218543112572751E+00
   0.9399817187604486E+00
   0.9568564033940541E+00
   0.9673513006252452E+00
   0.9725010769089329E+00
   0.9742556912508614E+00
   0.9761412449393284E+00
   0.9774858690056695E+00
   0.9668406133716567E+00
   0.8610862649422005E+00
   0.3954542495949643E+00
   0.9951861426106708E+00
   0.9949736415634663E+00
   0.9947917492250681E+00
   0.9943850683109239E+00
   0.9939804860386419E+00
   0.9929033148252148E+00
   0.9923764806842749E+00
   0.9889116838823832E+00
   0.9891162721059233E+00
   0.9798403131562571E+00
   0.1005963943474184E+01
   0.9953709356856673E+00
   0.9952741639801319E+00
   0.9951294405895375E+00
   0.9949417342261996E+00
   0.9945858677829882E+00
   0.9942027644405387E+00
   0.9931620282063068E+00
   0.9923979086272577E+00
   0.9866643288337493E+00
   0.9855888937513612E+00
   0.9606028275741929E+00
   0.9954214429910283E+00
   0.9953841601671687E+00
   0.9952249445004963E+00
   0.9950003980162502E+00
   0.9946729331284585E+00
   0.9943039829251971E+00
   0.9937864975124283E+00
   0.9937957364459087E+00
   0.9934419234709293E+00
   0.9963247210413934E+00
   0.9949524673586931E+00
   0.9956398690766902E+00
   0.9956312422977164E+00
   0.9955077164317377E+00
   0.9953568288179312E+00
   0.9950956745703019E+00
   0.9949003848308070E+00
   0.9943666030717161E+00
   0.9944433846598684E+00
   0.9934649934389093E+00
   0.9955403580578234E+00
   0.9956556193230781E+00
   0.9958911931103712E+00
   0.9958861735858595E+00
   0.9957695560636229E+00
   0.9956475826959055E+00
   0.9954664749615432E+00
   0.9954167132357005E+00
   0.9952712925443155E+00
   0.9957129414755840E+00
   0.9958612634650152E+00
   0.9973286144262667E+00
   0.9981035073653212E+00
   0.9962116127674959E+00
   0.9962102530401827E+00
   0.9960904076996657E+00
   0.9959825094822442E+00
   0.9958277622227102E+00
   0.9958064431394033E+00
   0.9957159545866198E+00
   0.9960688657919115E+00
   0.9963222194384215E+00
   0.9974771430760505E+00
   0.9985289233906932E+00
   0.9965878855508756E+00
   0.9965722293802896E+00
   0.9964211342590115E+00
   0.9963041582653077E+00
   0.9961794060218111E+00
   0.9961994668448529E+00
   0.9962446969498179E+00
   0.9966226349805147E+00
   0.9970376458744743E+00
   0.9979086236657750E+00
   0.9988054534941571E+00
   0.9970565664402583E+00
   0.9969798608846898E+00
   0.9967583914452863E+00
   0.9965932166499674E+00
   0.9964463672521079E+00
   0.9964364431981139E+00
   0.9964915031198960E+00
   0.9968126525261505E+00
   0.9972595028334567E+00
   0.9980570888413772E+00
   0.9989706621543655E+00
   0.9977106159804483E+00
   0.9974488512973532E+00
   0.9970905414421170E+00
   0.9968451610409875E+00
   0.9966633625357455E+00
   0.9966209721244709E+00
   0.9966751327493805E+00
   0.9969499416293029E+00
   0.9973887757794946E+00
   0.9981420174042285E+00
   0.9990619129271816E+00
   0.9985953012567620E+00
   0.9978544015121145E+00
   0.9973604188376390E+00
   0.9970273598377498E+00
   0.9967912725340852E+00
   0.9966828310270751E+00
   0.9966754668943296E+00
   0.9968630580800628E+00
   0.9972444361095812E+00
   0.9979911828985594E+00
   0.9990092061598831E+00
   0.8218392086875553E+00
   0.9399436889353866E+00
   0.9569885727481247E+00
   0.9673841470556915E+00
   0.9723632708536434E+00
   0.9740681248413577E+00
   0.9758164368482964E+00
   0.9770874681091295E+00
   0.9666615892407044E+00
   0.8620686180658607E+00
   0.3982013250075214E+00
   0.9951930565126239E+00
   0.9949800440252851E+00
   0.9948008691599316E+00
   0.9943963111841840E+00
   0.9939947758123874E+00
   0.9929152716965401E+00
   0.9923652732292781E+00
   0.9887988916933698E+00
   0.9887757637653098E+00
   0.9796520909875420E+00
   0.1006133985615167E+01
   0.9953705748369539E+00
   0.9952750492541778E+00
   0.9951307635682394E+00
   0.9949427210509372E+00
   0.9945857734733090E+00
   0.9941980353089662E+00
   0.9931481586260629E+00
   0.9923685599101120E+00
   0.9866317470389256E+00
   0.9856045994056691E+00
   0.9607285835648702E+00
   0.9954223925161688E+00
   0.9953855130762052E+00
   0.9952271260180113E+00
   0.9950029882996725E+00
   0.9946754056756094E+00
   0.9943036377745595E+00
   0.9937771911724737E+00
   0.9937683439063043E+00
   0.9933855572367554E+00
   0.9962728075677160E+00
   0.9949641827460010E+00
   0.9956400426402489E+00
   0.9956316915261900E+00
   0.9955085384614033E+00
   0.9953578278638423E+00
   0.9950963397994249E+00
   0.9948997606114325E+00
   0.9943626369451570E+00
   0.9944351699465250E+00
   0.9934505113186014E+00
   0.9955234593134734E+00
   0.9956553096215925E+00
   0.9958912888667124E+00
   0.9958864684982692E+00
   0.9957701239352489E+00
   0.9956483376792207E+00
   0.9954670047591631E+00
   0.9954163430806670E+00
   0.9952685201582023E+00
   0.9957066432724184E+00
   0.9958517518767626E+00
   0.9973179970191456E+00
   0.9981003159555092E+00
   0.9962115663132193E+00
   0.9962103128490922E+00
   0.9960906183015117E+00
   0.9959828486159352E+00
   0.9958279907877426E+00
   0.9958062766320065E+00
   0.9957148065821129E+00
   0.9960662054196598E+00
   0.9963184477764948E+00
   0.9974727250801716E+00
   0.9985270893433343E+00
   0.9965878054380070E+00
   0.9965722317665963E+00
   0.9964212576197192E+00
   0.9963044120262209E+00
   0.9961796233400330E+00
   0.9961994352205329E+00
   0.9962440643988028E+00
   0.9966210697694500E+00
   0.9970354941420022E+00
   0.9979063723266162E+00
   0.9988045838660653E+00
   0.9970564680289614E+00
   0.9969797867834791E+00
   0.9967583723774185E+00
   0.9965932778631127E+00
   0.9964464514547068E+00
   0.9964364714319053E+00
   0.9964912734714541E+00
   0.9968119881717090E+00
   0.9972585051314726E+00
   0.9980560602110619E+00
   0.9989702620662122E+00
   0.9977105243680444E+00
   0.9974487682127000E+00
   0.9970904875528460E+00
   0.9968451684673124E+00
   0.9966633926289641E+00
   0.9966209937998716E+00
   0.9966750052590176E+00
   0.9969495788170516E+00
   0.9973882027832847E+00
   0.9981414466091099E+00
   0.9990616768137025E+00
   0.9985952422369717E+00
   0.9978543124511787E+00
   0.9973603212068168E+00
   0.9970272816279946E+00
   0.9967912239138246E+00
   0.9966828259678127E+00
   0.9966754192999098E+00
   0.9968629239217612E+00
   0.9972441278757560E+00
   0.9979908249448958E+00
   0.9990090600752114E+00
   0.8218470219984636E+00
   0.9400283576157116E+00
   0.9571197557864981E+00
   0.9675130305466387E+00
   0.9725407566861016E+00
   0.9742521709440710E+00
   0.9760768339103760E+00
   0.9773896329996060E+00
   0.9670884570464393E+00
   0.8624305941289253E+00
   0.3982349175020129E+00
   0.9951926733778363E+00
   0.9949778569042470E+00
   0.9947976503136950E+00
   0.9943922358624621E+00
   0.9939900813353164E+00
   0.9929111124876498E+00
   0.9923680987342309E+00
   0.9888163705549347E+00
   0.9888384389520112E+00
   0.9797349555585977E+00
   0.1006150185719831E+01
   0.9953709414561397E+00
   0.9952746615582078E+00
   0.9951298861017659E+00
   0.9949417313991519E+00
   0.9945852278477809E+00
   0.9941990202722976E+00
   0.9931533999639279E+00
   0.9923802367702569E+00
   0.9866517562764134E+00
   0.9856227707495621E+00
   0.9607246963398681E+00
   0.9954223034670060E+00
   0.9953849610411908E+00
   0.9952260151717968E+00
   0.9950014636499228E+00
   0.9946739510536958E+00
   0.9943030852038663E+00
   0.9937801853881413E+00
   0.9937778250908523E+00
   0.9934050249463523E+00
   0.9962987318566833E+00
   0.9949721256906739E+00
   0.9956400411000624E+00
   0.9956314911966984E+00
   0.9955080529561706E+00
   0.9953571254718323E+00
   0.9950958313237719E+00
   0.9949000018052196E+00
   0.9943648067662632E+00
   0.9944401707974605E+00
   0.9934578563082259E+00
   0.9955321748401479E+00
   0.9956569663260553E+00
   0.9958912988680039E+00
   0.9958863052962149E+00
   0.9957697263656727E+00
   0.9956477253660089E+00
   0.9954664611861129E+00
   0.9954162767919613E+00
   0.9952697839978123E+00
   0.9957102198347810E+00
   0.9958574029438264E+00
   0.9973248272088306E+00
   0.9981030705864784E+00
   0.9962116442518173E+00
   0.9962102993658088E+00
   0.9960904650747918E+00
   0.9959825559817673E+00
   0.9958277380093650E+00
   0.9958062777636538E+00
   0.9957154445324735E+00
   0.9960679058496305E+00
   0.9963209011636290E+00
   0.9974756983967806E+00
   0.9985284187523351E+00
   0.9965878973154045E+00
   0.9965722478413693E+00
   0.9964211528257420E+00
   0.9963041645902453E+00
   0.9961793657398477E+00
   0.9961993394721005E+00
   0.9962444113204793E+00
   0.9966221404400725E+00
   0.9970370534208423E+00
   0.9979080717145871E+00
   0.9988052395322142E+00
   0.9970565686517172E+00
   0.9969798665466278E+00
   0.9967583959655222E+00
   0.9965932137416097E+00
   0.9964463418682881E+00
   0.9964363774312957E+00
   0.9964913770771741E+00
   0.9968124388612679E+00
   0.9972592397546054E+00
   0.9980568410354462E+00
   0.9989705455301031E+00
   0.9977106150075917E+00
   0.9974488523137506E+00
   0.9970905416199733E+00
   0.9968451566297946E+00
   0.9966633455735574E+00
   0.9966209306123855E+00
   0.9966750599710813E+00
   0.9969498295781403E+00
   0.9973886414053685E+00
   0.9981418927578803E+00
   0.9990618624781265E+00
   0.9985952995407021E+00
   0.9978544009794315E+00
   0.9973604186668622E+00
   0.9970273582472520E+00
   0.9967912643648426E+00
   0.9966828049439329E+00
   0.9966754140706701E+00
   0.9968629761744356E+00
   0.9972443408461699E+00
   0.9979910947669873E+00
   0.9990091805023984E+00
   0.8218442324262817E+00
   0.9399587707968853E+00
   0.9570433716765431E+00
   0.9674222730894846E+00
   0.9723740645149272E+00
   0.9740643340415146E+00
   0.9758046791746485E+00
   0.9770986696618341E+00
   0.9667928950852275E+00
   0.8623038507784915E+00
   0.3982487229717726E+00
   0.9951938196934142E+00
   0.9949793728997660E+00
   0.9947995053408273E+00
   0.9943938727845716E+00
   0.9939909095807888E+00
   0.9929080066978468E+00
   0.9923560039147633E+00
   0.9887871667175564E+00
   0.9887831640036145E+00
   0.9797000892895048E+00
   0.1006177870561139E+01
   0.9953709302564925E+00
   0.9952748650916433E+00
   0.9951301592811697E+00
   0.9949417138700074E+00
   0.9945843512683648E+00
   0.9941961903429463E+00
   0.9931475688566381E+00
   0.9923717842181837E+00
   0.9866444459776831E+00
   0.9856256860861929E+00
   0.9607405051909982E+00
   0.9954225783788797E+00
   0.9953854372874211E+00
   0.9952266734898950E+00
   0.9950020053336551E+00
   0.9946738152951007E+00
   0.9943010577719861E+00
   0.9937742275442886E+00
   0.9937665484538067E+00
   0.9933880917093503E+00
   0.9962851433155170E+00
   0.9949744106378462E+00
   0.9956400452396730E+00
   0.9956315976929242E+00
   0.9955082670870345E+00
   0.9953573169706972E+00
   0.9950956256250362E+00
   0.9948989089983082E+00
   0.9943620859816465E+00
   0.9944358224321831E+00
   0.9934524259730683E+00
   0.9955276631306675E+00
   0.9956579435332062E+00
   0.9958912817475944E+00
   0.9958864049358790E+00
   0.9957699373922575E+00
   0.9956479671939992E+00
   0.9954664382682566E+00
   0.9954155997306912E+00
   0.9952677981377752E+00
   0.9957066405885455E+00
   0.9958526980412148E+00
   0.9973205222768102E+00
   0.9981024184852448E+00
   0.9962115437664734E+00
   0.9962102630197388E+00
   0.9960905093109981E+00
   0.9959826594414689E+00
   0.9958277257917659E+00
   0.9958059897415285E+00
   0.9957145630389527E+00
   0.9960663011443206E+00
   0.9963188152945041E+00
   0.9974734911626669E+00
   0.9985276691411193E+00
   0.9965877868209017E+00
   0.9965721973386088E+00
   0.9964211831221547E+00
   0.9963042849435126E+00
   0.9961794408415248E+00
   0.9961992392261362E+00
   0.9962438991054400E+00
   0.9966211130227427E+00
   0.9970357544108480E+00
   0.9979067999445836E+00
   0.9988048547716420E+00
   0.9970564529806536E+00
   0.9969797645231439E+00
   0.9967583299111007E+00
   0.9965932106921500E+00
   0.9964463567862353E+00
   0.9964363729274387E+00
   0.9964911866436866E+00
   0.9968119834747013E+00
   0.9972585932654866E+00
   0.9980562244053119E+00
   0.9989703974974640E+00
   0.9977105141388188E+00
   0.9974487527261687E+00
   0.9970904587275414E+00
   0.9968451245658243E+00
   0.9966633317338484E+00
   0.9966209307863124E+00
   0.9966749534465850E+00
   0.9969495760544607E+00
   0.9973882607925889E+00
   0.9981415420067337E+00
   0.9990617457055858E+00
   0.9985952372328166E+00
   0.9978543025477224E+00
   0.9973603012421237E+00
   0.9970272494074071E+00
   0.9967911771172664E+00
   0.9966827731307581E+00
   0.9966753695531175E+00
   0.9968628995319587E+00
   0.9972441466146588E+00
   0.9979908832708493E+00
   0.9990091122243135E+00
   0.8218447020907502E+00
   0.9400333079809484E+00
   0.9571317993351229E+00
   0.9675213883279145E+00
   0.9725423878254812E+00
   0.9742484395742644E+00
   0.9760706294765135E+00
   0.9773901542789606E+00
   0.9671176438489378E+00
   0.8624814954965505E+00
   0.3982597553722788E+00
   0.9951939736832398E+00
   0.9949792585577217E+00
   0.9947992585662946E+00
   0.9943934340633641E+00
   0.9939907367119278E+00
   0.9929081405542144E+00
   0.9923573255875104E+00
   0.9887901845298762E+00
   0.9887856032286440E+00
   0.9796995191132019E+00
   0.1006178020478169E+01
   0.9953710337306689E+00
   0.9952748048727497E+00
   0.9951299392312767E+00
   0.9949413658150645E+00
   0.9945841399862323E+00
   0.9941963718629896E+00
   0.9931486501130277E+00
   0.9923740728908796E+00
   0.9866473249642341E+00
   0.9856284953430422E+00
   0.9607422641525297E+00
   0.9954226518781675E+00
   0.9953853376988352E+00
   0.9952264024089109E+00
   0.9950015868390304E+00
   0.9946735107147519E+00
   0.9943010907867159E+00
   0.9937749942600193E+00
   0.9937685187898693E+00
   0.9933905417468194E+00
   0.9962877632564473E+00
   0.9949759082723665E+00
   0.9956401384233575E+00
   0.9956315936328214E+00
   0.9955081400037410E+00
   0.9953570757633494E+00
   0.9950954893228425E+00
   0.9948990913260624E+00
   0.9943628708920900E+00
   0.9944374061240459E+00
   0.9934542857567894E+00
   0.9955292975122161E+00
   0.9956582800450468E+00
   0.9958913682222287E+00
   0.9958863854122469E+00
   0.9957697830948695E+00
   0.9956476769365230E+00
   0.9954661805640764E+00
   0.9954155588609762E+00
   0.9952682481864664E+00
   0.9957078225374411E+00
   0.9958543484164916E+00
   0.9973222311760821E+00
   0.9981030820099032E+00
   0.9962116631629993E+00
   0.9962103272140946E+00
   0.9960904822330899E+00
   0.9959825241839443E+00
   0.9958275868014659E+00
   0.9958059358465239E+00
   0.9957147844839025E+00
   0.9960669129179639E+00
   0.9963196883139858E+00
   0.9974744941199525E+00
   0.9985281742464933E+00
   0.9965879025512052E+00
   0.9965722580935320E+00
   0.9964211536518418E+00
   0.9963041378364010E+00
   0.9961792694673077E+00
   0.9961991213405577E+00
   0.9962440041977809E+00
   0.9966215319443457E+00
   0.9970363712423105E+00
   0.9979074926260315E+00
   0.9988051621771054E+00
   0.9970565667949260E+00
   0.9969798678592628E+00
   0.9967583911654504E+00
   0.9965931936439122E+00
   0.9964462889508021E+00
   0.9964362695337484E+00
   0.9964911880210781E+00
   0.9968121483396565E+00
   0.9972588936923550E+00
   0.9980565263286860E+00
   0.9989704511608163E+00
   0.9977106123229288E+00
   0.9974488514038727E+00
   0.9970905365994236E+00
   0.9968451409875690E+00
   0.9966633094017473E+00
   0.9966208618267113E+00
   0.9966749496071700E+00
   0.9969496655893946E+00
   0.9973884458859941E+00
   0.9981417122607364E+00
   0.9990617812580934E+00
   0.9985952970914206E+00
   0.9978543996355148E+00
   0.9973604163015003E+00
   0.9970273491949476E+00
   0.9967912401600797E+00
   0.9966827560723190E+00
   0.9966753371185473E+00
   0.9968628647125942E+00
   0.9972441990972275E+00
   0.9979909435969578E+00
   0.9990090860617081E+00
   0.8218455407321730E+00
   0.9399598401450655E+00
   0.9570454543611854E+00
   0.9674236767139396E+00
   0.9723738551207370E+00
   0.9740628431123836E+00
   0.9758034082133898E+00
   0.9770999082839130E+00
   0.9667998922989728E+00
   0.8623140966225451E+00
   0.3982532500063215E+00
   0.9951940966436085E+00
   0.9949794298803107E+00
   0.9947994631125852E+00
   0.9943935433124852E+00
   0.9939903207149265E+00
   0.9929066965373067E+00
   0.9923537576556188E+00
   0.9887847150224924E+00
   0.9887770218194094E+00
   0.9796944680491523E+00
   0.1006180600254373E+01
   0.9953710473223110E+00
   0.9952748149503517E+00
   0.9951299435062105E+00
   0.9949413176160001E+00
   0.9945838039174618E+00
   0.9941955123751564E+00
   0.9931471207707336E+00
   0.9923721989447691E+00
   0.9866460407439710E+00
   0.9856288529949275E+00
   0.9607442383557175E+00
   0.9954226544774418E+00
   0.9953854590761086E+00
   0.9952265924351136E+00
   0.9950017409162440E+00
   0.9946733498717376E+00
   0.9943002935628550E+00
   0.9937731204532853E+00
   0.9937655740899317E+00
   0.9933870812269825E+00
   0.9962852533558756E+00
   0.9949760866280637E+00
   0.9956400421166087E+00
   0.9956315611496331E+00
   0.9955081680553204E+00
   0.9953571330960787E+00
   0.9950953727700117E+00
   0.9948986592502587E+00
   0.9943619474807819E+00
   0.9944360959244697E+00
   0.9934529776173948E+00
   0.9955283351616864E+00
   0.9956582879997101E+00
   0.9958912812411923E+00
   0.9958863827163911E+00
   0.9957698653273653E+00
   0.9956478221324666E+00
   0.9954662069872291E+00
   0.9954152935442011E+00
   0.9952674625607270E+00
   0.9957065250218160E+00
   0.9958528810906413E+00
   0.9973210372862836E+00
   0.9981029152535829E+00
   0.9962115314223933E+00
   0.9962102400972865E+00
   0.9960904607573892E+00
   0.9959825793089280E+00
   0.9958276202016145E+00
   0.9958058887517199E+00
   0.9957144815855198E+00
   0.9960663209512378E+00
   0.9963189233804153E+00
   0.9974737260356021E+00
   0.9985279036103336E+00
   0.9965877763339500E+00
   0.9965721804309791E+00
   0.9964211470340744E+00
   0.9963042226708047E+00
   0.9961793518422613E+00
   0.9961991493618130E+00
   0.9962438382737460E+00
   0.9966211456832550E+00
   0.9970358647169413E+00
   0.9979069467329363E+00
   0.9988049022588671E+00
   0.9970564444548079E+00
   0.9969797529148011E+00
   0.9967583088636531E+00
   0.9965931776201327E+00
   0.9964463090187130E+00
   0.9964363215666566E+00
   0.9964911440297820E+00
   0.9968119860993648E+00
   0.9972586438120061E+00
   0.9980562925245940E+00
   0.9989704399027016E+00
   0.9977105077276791E+00
   0.9974487437132835E+00
   0.9970904430845574E+00
   0.9968451021099627E+00
   0.9966633016137985E+00
   0.9966208994174384E+00
   0.9966749263661907E+00
   0.9969495752185031E+00
   0.9973882971868760E+00
   0.9981416021418574E+00
   0.9990618030290535E+00
   0.9985952344732932E+00
   0.9978542959608864E+00
   0.9973602883529107E+00
   0.9970272317283144E+00
   0.9967911561763190E+00
   0.9966827519898996E+00
   0.9966753463775749E+00
   0.9968628800287234E+00
   0.9972441513258768E+00
   0.9979909289376995E+00
   0.9990091688135608E+00
   0.8218447020511259E+00
   0.9400333077372971E+00
   0.9571317990621865E+00
   0.9675213881706898E+00
   0.9725423876442878E+00
   0.9742484395035906E+00
   0.9760706295157286E+00
   0.9773901547302938E+00
   0.9671176442425264E+00
   0.8624814949265143E+00
   0.3982597552822833E+00
   0.9951939736782940E+00
   0.9949792585528848E+00
   0.9947992585607075E+00
   0.9943934340557407E+00
   0.9939907366987433E+00
   0.9929081405290604E+00
   0.9923573255516089E+00
   0.9887901844416688E+00
   0.9887856031586240E+00
   0.9796995189870413E+00
   0.1006178020524817E+01
   0.9953710337226254E+00
   0.9952748048652891E+00
   0.9951299392254984E+00
   0.9949413658118365E+00
   0.9945841399862902E+00
   0.9941963718725999E+00
   0.9931486501343045E+00
   0.9923740729451814E+00
   0.9866473250499381E+00
   0.9856284954280721E+00
   0.9607422641740095E+00
   0.9954226518730863E+00
   0.9953853376924251E+00
   0.9952264023989860E+00
   0.9950015868231128E+00
   0.9946735106897130E+00
   0.9943010907572112E+00
   0.9937749942236719E+00
   0.9937685187842151E+00