title="tecplot geometry and solution file"
variables = x y z rho u v w p mach temperature
zone t="boundary 1 bc-1", solutiontime= 0.2000000E+02, strandid=1001, i=121, j=100, f=feblock
  0.000000000000E+00  0.000000000000E+00  0.000000000000E+00  0.000000000000E+00  0.000000000000E+00  0.000000000000E+00  0.000000000000E+00
  0.000000000000E+00  0.000000000000E+00  0.000000000000E+00  0.000000000000E+00  0.000000000000E+00  0.000000000000E+00  0.000000000000E+00
  0.000000000000E+00  0.000000000000E+00  0.000000000000E+00  0.000000000000E+00  0.000000000000E+00  0.000000000000E+00  0.000000000000E+00
  0.000000000000E+00  0.000000000000E+00  0.000000000000E+00  0.000000000000E+00  0.000000000000E+00  0.000000000000E+00  0.000000000000E+00
  0.000000000000E+00  0.000000000000E+00  0.000000000000E+00  0.000000000000E+00  0.000000000000E+00  0.000000000000E+00  0.000000000000E+00
  0.000000000000E+00  0.000000000000E+00  0.000000000000E+00  0.000000000000E+00  0.000000000000E+00  0.000000000000E+00  0.000000000000E+00
  0.000000000000E+00  0.000000000000E+00  0.000000000000E+00  0.000000000000E+00  0.000000000000E+00  0.000000000000E+00  0.000000000000E+00
  0.000000000000E+00  0.000000000000E+00  0.000000000000E+00  0.000000000000E+00  0.000000000000E+00  0.000000000000E+00  0.000000000000E+00
  0.000000000000E+00  0.000000000000E+00  0.000000000000E+00  0.000000000000E+00  0.000000000000E+00  0.000000000000E+00  0.000000000000E+00
  0.000000000000E+00  0.000000000000E+00  0.000000000000E+00  0.000000000000E+00  0.000000000000E+00  0.000000000000E+00  0.000000000000E+00
  0.000000000000E+00  0.000000000000E+00  0.000000000000E+00  0.000000000000E+00  0.000000000000E+00  0.000000000000E+00  0.000000000000E+00
  0.000000000000E+00  0.000000000000E+00  0.000000000000E+00  0.000000000000E+00  0.000000000000E+00  0.000000000000E+00  0.000000000000E+00
  0.000000000000E+00  0.000000000000E+00  0.000000000000E+00  0.000000000000E+00  0.000000000000E+00  0.000000000000E+00  0.000000000000E+00
  0.000000000000E+00  0.000000000000E+00  0.000000000000E+00  0.000000000000E+00  0.000000000000E+00  0.000000000000E+00  0.000000000000E+00
  0.000000000000E+00  0.000000000000E+00  0.000000000000E+00  0.000000000000E+00  0.000000000000E+00  0.000000000000E+00  0.000000000000E+00
  0.000000000000E+00  0.000000000000E+00  0.000000000000E+00  0.000000000000E+00  0.000000000000E+00  0.000000000000E+00  0.000000000000E+00
  0.000000000000E+00  0.000000000000E+00  0.000000000000E+00  0.000000000000E+00  0.000000000000E+00  0.000000000000E+00  0.000000000000E+00
  0.000000000000E+00  0.000000000000E+00
  0.250000000000E+01  0.250000000000E+01  0.200000000000E+01  0.250000000000E+01  0.200000000000E+01  0.150000000000E+01  0.250000000000E+01
  0.200000000000E+01  0.150000000000E+01  0.100000000000E+01  0.250000000000E+01  0.200000000000E+01  0.150000000000E+01  0.100000000000E+01
  0.500000000000E+00  0.250000000000E+01  0.200000000000E+01  0.150000000000E+01  0.100000000000E+01  0.500000000000E+00  0.000000000000E+00
  0.250000000000E+01  0.200000000000E+01  0.150000000000E+01  0.100000000000E+01  0.500000000000E+00  0.000000000000E+00 -0.500000000000E+00
  0.250000000000E+01  0.200000000000E+01  0.150000000000E+01  0.100000000000E+01  0.500000000000E+00  0.000000000000E+00 -0.500000000000E+00
 -0.100000000000E+01  0.250000000000E+01  0.200000000000E+01  0.150000000000E+01  0.100000000000E+01  0.500000000000E+00  0.000000000000E+00
 -0.500000000000E+00 -0.100000000000E+01 -0.150000000000E+01  0.250000000000E+01  0.200000000000E+01  0.150000000000E+01  0.100000000000E+01
  0.500000000000E+00  0.000000000000E+00 -0.500000000000E+00 -0.100000000000E+01 -0.150000000000E+01 -0.200000000000E+01  0.250000000000E+01
  0.200000000000E+01  0.150000000000E+01  0.100000000000E+01  0.500000000000E+00  0.000000000000E+00 -0.500000000000E+00 -0.100000000000E+01
 -0.150000000000E+01 -0.200000000000E+01 -0.250000000000E+01  0.200000000000E+01  0.150000000000E+01  0.100000000000E+01  0.500000000000E+00
  0.000000000000E+00 -0.500000000000E+00 -0.100000000000E+01 -0.150000000000E+01 -0.200000000000E+01 -0.250000000000E+01  0.150000000000E+01
  0.100000000000E+01  0.500000000000E+00  0.000000000000E+00 -0.500000000000E+00 -0.100000000000E+01 -0.150000000000E+01 -0.200000000000E+01
 -0.250000000000E+01  0.100000000000E+01  0.500000000000E+00  0.000000000000E+00 -0.500000000000E+00 -0.100000000000E+01 -0.150000000000E+01
 -0.200000000000E+01 -0.250000000000E+01  0.500000000000E+00  0.000000000000E+00 -0.500000000000E+00 -0.100000000000E+01 -0.150000000000E+01
 -0.200000000000E+01 -0.250000000000E+01  0.000000000000E+00 -0.500000000000E+00 -0.100000000000E+01 -0.150000000000E+01 -0.200000000000E+01
 -0.250000000000E+01 -0.500000000000E+00 -0.100000000000E+01 -0.150000000000E+01 -0.200000000000E+01 -0.250000000000E+01 -0.100000000000E+01
 -0.150000000000E+01 -0.200000000000E+01 -0.250000000000E+01 -0.150000000000E+01 -0.200000000000E+01 -0.250000000000E+01 -0.200000000000E+01
 -0.250000000000E+01 -0.250000000000E+01
  0.000000000000E+00  0.500000000000E+00  0.000000000000E+00  0.100000000000E+01  0.500000000000E+00  0.000000000000E+00  0.150000000000E+01
  0.100000000000E+01  0.500000000000E+00  0.000000000000E+00  0.200000000000E+01  0.150000000000E+01  0.100000000000E+01  0.500000000000E+00
  0.000000000000E+00  0.250000000000E+01  0.200000000000E+01  0.150000000000E+01  0.100000000000E+01  0.500000000000E+00  0.000000000000E+00
  0.300000000000E+01  0.250000000000E+01  0.200000000000E+01  0.150000000000E+01  0.100000000000E+01  0.500000000000E+00  0.000000000000E+00
  0.350000000000E+01  0.300000000000E+01  0.250000000000E+01  0.200000000000E+01  0.150000000000E+01  0.100000000000E+01  0.500000000000E+00
  0.000000000000E+00  0.400000000000E+01  0.350000000000E+01  0.300000000000E+01  0.250000000000E+01  0.200000000000E+01  0.150000000000E+01
  0.100000000000E+01  0.500000000000E+00  0.000000000000E+00  0.450000000000E+01  0.400000000000E+01  0.350000000000E+01  0.300000000000E+01
  0.250000000000E+01  0.200000000000E+01  0.150000000000E+01  0.100000000000E+01  0.500000000000E+00  0.000000000000E+00  0.500000000000E+01
  0.450000000000E+01  0.400000000000E+01  0.350000000000E+01  0.300000000000E+01  0.250000000000E+01  0.200000000000E+01  0.150000000000E+01
  0.100000000000E+01  0.500000000000E+00  0.000000000000E+00  0.500000000000E+01  0.450000000000E+01  0.400000000000E+01  0.350000000000E+01
  0.300000000000E+01  0.250000000000E+01  0.200000000000E+01  0.150000000000E+01  0.100000000000E+01  0.500000000000E+00  0.500000000000E+01
  0.450000000000E+01  0.400000000000E+01  0.350000000000E+01  0.300000000000E+01  0.250000000000E+01  0.200000000000E+01  0.150000000000E+01
  0.100000000000E+01  0.500000000000E+01  0.450000000000E+01  0.400000000000E+01  0.350000000000E+01  0.300000000000E+01  0.250000000000E+01
  0.200000000000E+01  0.150000000000E+01  0.500000000000E+01  0.450000000000E+01  0.400000000000E+01  0.350000000000E+01  0.300000000000E+01
  0.250000000000E+01  0.200000000000E+01  0.500000000000E+01  0.450000000000E+01  0.400000000000E+01  0.350000000000E+01  0.300000000000E+01
  0.250000000000E+01  0.500000000000E+01  0.450000000000E+01  0.400000000000E+01  0.350000000000E+01  0.300000000000E+01  0.500000000000E+01
  0.450000000000E+01  0.400000000000E+01  0.350000000000E+01  0.500000000000E+01  0.450000000000E+01  0.400000000000E+01  0.500000000000E+01
  0.450000000000E+01  0.500000000000E+01
  0.834526621616E+00  0.995737363389E+00  0.833887496468E+00  0.996328498393E+00  0.995721977794E+00  0.833923406187E+00  0.995919384529E+00
  0.996271022438E+00  0.995731376826E+00  0.833961783412E+00  0.995462642866E+00  0.995915684868E+00  0.996274279200E+00  0.995725869744E+00
  0.833927429749E+00  0.995953670304E+00  0.995458840443E+00  0.995915555617E+00  0.996273292345E+00  0.995725157640E+00  0.833957953372E+00
  0.996130462476E+00  0.995954691138E+00  0.995458584720E+00  0.995916866586E+00  0.996268896698E+00  0.995726974923E+00  0.833927429846E+00
  0.996494632952E+00  0.996133219791E+00  0.995953748344E+00  0.995459703677E+00  0.995914725653E+00  0.996273430523E+00  0.995725157539E+00
  0.833961783569E+00  0.996993280371E+00  0.996497700732E+00  0.996130476489E+00  0.995955588398E+00  0.995457188551E+00  0.995917581106E+00
  0.996268896718E+00  0.995725869624E+00  0.833923408061E+00  0.997668865247E+00  0.996997571798E+00  0.996494663971E+00  0.996133394271E+00
  0.995953444639E+00  0.995460100882E+00  0.995914725673E+00  0.996273292384E+00  0.995731375990E+00  0.833887505640E+00  0.998567703968E+00
  0.997673051585E+00  0.996993259440E+00  0.996497654515E+00  0.996130014772E+00  0.995955914172E+00  0.995457188583E+00  0.995916866476E+00
  0.996274279652E+00  0.995721975957E+00  0.834526640316E+00  0.998571432193E+00  0.997668861631E+00  0.996997497525E+00  0.996494441710E+00
  0.996133487355E+00  0.995953444665E+00  0.995459703694E+00  0.995915555629E+00  0.996271023683E+00  0.995737360017E+00  0.998567689606E+00
  0.997673032011E+00  0.996993192004E+00  0.996497754383E+00  0.996130014787E+00  0.995955588390E+00  0.995458584885E+00  0.995915684371E+00
  0.996328500639E+00  0.998571432393E+00  0.997668871240E+00  0.996997587969E+00  0.996494441720E+00  0.996133394267E+00  0.995953748438E+00
  0.995458840501E+00  0.995919384428E+00  0.998567772967E+00  0.997673096125E+00  0.996993192006E+00  0.996497654515E+00  0.996130476537E+00
  0.995954691173E+00  0.995462643076E+00  0.998571467346E+00  0.997668871240E+00  0.996997497524E+00  0.996494664000E+00  0.996133219846E+00
  0.995953670393E+00  0.998567772965E+00  0.997673032012E+00  0.996993259455E+00  0.996497700760E+00  0.996130462543E+00  0.998571432395E+00
  0.997668861645E+00  0.996997571806E+00  0.996494632997E+00  0.998567689617E+00  0.997673051567E+00  0.996993280366E+00  0.998571432192E+00
  0.997668865217E+00  0.998567704076E+00
  0.000000000000E+00  0.504524467475E+00  0.000000000000E+00  0.503111618217E+00  0.504447346903E+00  0.000000000000E+00  0.504246611305E+00
  0.503184341929E+00  0.504448428864E+00  0.000000000000E+00  0.504552337897E+00  0.504253524790E+00  0.503177552966E+00  0.504450492714E+00
  0.000000000000E+00  0.503958993923E+00  0.504553140699E+00  0.504255508034E+00  0.503180119291E+00  0.504450352374E+00  0.000000000000E+00
  0.503890843507E+00  0.503954122031E+00  0.504555013633E+00  0.504253268555E+00  0.503184810061E+00  0.504446776801E+00  0.000000000000E+00
  0.503481379019E+00  0.503886154093E+00  0.503958003020E+00  0.504552206426E+00  0.504255873087E+00  0.503179574730E+00  0.504450352521E+00
  0.000000000000E+00  0.502965785961E+00  0.503477947788E+00  0.503891216404E+00  0.503954697116E+00  0.504556522083E+00  0.504252252578E+00
  0.503184809992E+00  0.504450492963E+00  0.000000000000E+00  0.502282964513E+00  0.502962808736E+00  0.503481826768E+00  0.503886756809E+00
  0.503958421997E+00  0.504552326438E+00  0.504255873097E+00  0.503180119088E+00  0.504448429422E+00  0.000000000000E+00  0.501473861759E+00
  0.502279854129E+00  0.502965969841E+00  0.503477963537E+00  0.503891402427E+00  0.503954680980E+00  0.504556522018E+00  0.504253268702E+00
  0.503177552729E+00  0.504447349179E+00  0.000000000000E+00  0.501471760541E+00  0.502282939094E+00  0.502962521911E+00  0.503481716771E+00
  0.503886847280E+00  0.503958421986E+00  0.504552206336E+00  0.504255508137E+00  0.503184341027E+00  0.504524471621E+00  0.501473769746E+00
  0.502279545452E+00  0.502965853822E+00  0.503477976127E+00  0.503891402426E+00  0.503954697114E+00  0.504555013464E+00  0.504253525025E+00
  0.503111616802E+00  0.501471566717E+00  0.502282897688E+00  0.502962547719E+00  0.503481716760E+00  0.503886756830E+00  0.503958002970E+00
  0.504553140488E+00  0.504246611651E+00  0.501473855034E+00  0.502279597722E+00  0.502965853812E+00  0.503477963532E+00  0.503891216426E+00
  0.503954121883E+00  0.504552337667E+00  0.501471643524E+00  0.502282897687E+00  0.502962521906E+00  0.503481826771E+00  0.503886154064E+00
  0.503958993762E+00  0.501473855044E+00  0.502279545459E+00  0.502965969828E+00  0.503477947804E+00  0.503890843496E+00  0.501471566723E+00
  0.502282939066E+00  0.502962808727E+00  0.503481379077E+00  0.501473769704E+00  0.502279854122E+00  0.502965785938E+00  0.501471760525E+00
  0.502282964615E+00  0.501473861764E+00
  0.000000000000E+00  0.000000000000E+00  0.000000000000E+00  0.000000000000E+00 -0.796318054366E-05  0.000000000000E+00  0.000000000000E+00
 -0.389190477635E-04 -0.401902841719E-05  0.000000000000E+00  0.000000000000E+00  0.224862601882E-05 -0.802446340128E-06 -0.422310739013E-05
  0.000000000000E+00  0.000000000000E+00 -0.173218342602E-05  0.313547864845E-06  0.666108481032E-06 -0.803933485324E-06  0.000000000000E+00
  0.000000000000E+00  0.126417855802E-06 -0.354910291539E-06  0.594562523156E-06  0.226091228466E-05  0.743805147658E-10  0.000000000000E+00
  0.000000000000E+00 -0.122759525134E-06  0.337527774882E-09 -0.535318177432E-06  0.749078847433E-06 -0.374421599009E-10  0.804158047820E-06
  0.000000000000E+00  0.000000000000E+00  0.420420751661E-07  0.383876734976E-07 -0.978833839900E-07  0.624663854955E-07  0.165075334830E-10
 -0.226102934668E-05  0.422310733099E-05  0.000000000000E+00  0.000000000000E+00  0.295161211341E-07  0.649308799828E-07 -0.792381377482E-07
  0.404584309555E-07 -0.370002299105E-10 -0.749036229521E-06 -0.666194333677E-06  0.401878162497E-05  0.000000000000E+00  0.000000000000E+00
  0.174997727991E-07 -0.249243037802E-07 -0.567422165415E-07  0.151388905820E-07  0.694434262704E-11 -0.625144823719E-07 -0.594451894524E-06
  0.802864048595E-06  0.796244183077E-05  0.000000000000E+00 -0.945865569471E-08 -0.355400479775E-07 -0.825184571534E-07  0.585298993991E-08
  0.161344063951E-10 -0.404660638053E-07  0.535301710225E-06 -0.313891161870E-06  0.389195981021E-04  0.000000000000E+00 -0.659487074791E-07
 -0.393831075133E-07 -0.679714499562E-08  0.123418815927E-10 -0.151278131671E-07  0.978223374307E-07  0.355064990486E-06 -0.224911247039E-05
  0.000000000000E+00  0.505202331225E-08  0.113745748520E-07  0.276279141054E-10 -0.588821147351E-08  0.792588898256E-07 -0.420426979067E-09
  0.173244100216E-05  0.000000000000E+00  0.414918477803E-07 -0.362693418102E-11  0.674252514303E-08  0.567786395693E-07 -0.384035780900E-07
 -0.126479144625E-06  0.000000000000E+00 -0.599513256375E-10 -0.114250510492E-07  0.825961219924E-07 -0.649612064694E-07  0.122737962275E-06
  0.000000000000E+00 -0.415517332530E-07  0.394051898059E-07  0.248894369598E-07 -0.420225693450E-07  0.000000000000E+00 -0.517353775676E-08
  0.354954098242E-07 -0.294657919606E-07  0.000000000000E+00  0.658676091794E-07 -0.175265530270E-07  0.000000000000E+00  0.936221499491E-08
  0.000000000000E+00  0.000000000000E+00
  0.000000000000E+00  0.814372544016E-02  0.000000000000E+00  0.605510164543E-03  0.793976885451E-02  0.000000000000E+00  0.821817986489E-03
  0.608500544568E-03  0.792209651842E-02  0.000000000000E+00  0.102889209461E-03  0.809419927520E-03  0.598367020464E-03  0.794275562721E-02
  0.000000000000E+00 -0.557289422925E-04  0.105314089806E-03  0.805831278205E-03  0.604375643965E-03  0.793296780259E-02  0.000000000000E+00
  0.571443075504E-04 -0.570243274138E-04  0.101781466841E-03  0.806043537868E-03  0.601057364485E-03  0.794189592278E-02  0.000000000000E+00
  0.132085245618E-04  0.576680134179E-04 -0.577378624496E-04  0.104939674011E-03  0.802706185090E-03  0.603153681710E-03  0.793296783445E-02
  0.000000000000E+00 -0.105202935565E-03  0.140655553776E-04  0.576763798271E-04 -0.554966397563E-04  0.101897330752E-03  0.804973346147E-03
  0.601057315970E-03  0.794275553438E-02  0.000000000000E+00 -0.317530736621E-03 -0.105156269841E-03  0.140144148960E-04  0.590289130862E-04
 -0.581055030077E-04  0.104724379110E-03  0.802706186082E-03  0.604375740133E-03  0.792209714855E-02  0.000000000000E+00 -0.863724127422E-03
 -0.317031424221E-03 -0.104766667630E-03  0.141737518293E-04  0.571500183281E-04 -0.554849924917E-04  0.101897372596E-03  0.806043546988E-03
  0.598367237287E-03  0.793977011827E-02  0.000000000000E+00 -0.860037064179E-03 -0.317448028826E-03 -0.105684556971E-03  0.132333299275E-04
  0.591995975753E-04 -0.581054598747E-04  0.104939625143E-03  0.805831470687E-03  0.608499417022E-03  0.814372893838E-02 -0.863815942744E-03
 -0.317519129298E-03 -0.105290382648E-03  0.143691337954E-04  0.571500224815E-04 -0.554965728025E-04  0.101781385854E-03  0.809420437551E-03
  0.605507971935E-03 -0.860263745377E-03 -0.317610910762E-03 -0.105427866216E-03  0.132333212257E-04  0.590289215652E-04 -0.577377312655E-04
  0.105313744906E-03  0.821819387616E-03 -0.863675563749E-03 -0.317289055270E-03 -0.105290389825E-03  0.141737240757E-04  0.576765035764E-04
 -0.570244398427E-04  0.102889169889E-03 -0.860102617684E-03 -0.317610911879E-03 -0.105684593181E-03  0.140144663993E-04  0.576680192311E-04
 -0.557292303027E-04 -0.863675561540E-03 -0.317519153062E-03 -0.104766678557E-03  0.140656090169E-04  0.571441772759E-04 -0.860263747863E-03
 -0.317448058728E-03 -0.105156234594E-03  0.132085115134E-04 -0.863815960004E-03 -0.317031410950E-03 -0.105202902409E-03 -0.860037078568E-03
 -0.317530812541E-03 -0.863724204804E-03
  0.719603930108E+00  0.710624331653E+00  0.719145742692E+00  0.710664040066E+00  0.710601624772E+00  0.719157579025E+00  0.710191289301E+00
  0.710605611712E+00  0.710605045431E+00  0.719188606049E+00  0.709766434329E+00  0.710188871531E+00  0.710610465851E+00  0.710604151154E+00
  0.719164551003E+00  0.710228294446E+00  0.709763042720E+00  0.710188082323E+00  0.710608942550E+00  0.710601959727E+00  0.719185587512E+00
  0.710419217280E+00  0.710229709047E+00  0.709762363644E+00  0.710189762834E+00  0.710604099753E+00  0.710604943208E+00  0.719164551071E+00
  0.710790875283E+00  0.710422047540E+00  0.710228403815E+00  0.709763882655E+00  0.710187475824E+00  0.710608726173E+00  0.710601959622E+00
  0.719188606178E+00  0.711277813876E+00  0.710793914435E+00  0.710419157673E+00  0.710230489425E+00  0.709760935255E+00  0.710190495745E+00
  0.710604099774E+00  0.710604151024E+00  0.719157580521E+00  0.711953945625E+00  0.711281870439E+00  0.710790878578E+00  0.710422205687E+00
  0.710228062245E+00  0.709764149675E+00  0.710187475839E+00  0.710608942613E+00  0.710605044687E+00  0.719145750177E+00  0.712855440743E+00
  0.711957850771E+00  0.711277790757E+00  0.710793916837E+00  0.710418725206E+00  0.710230777679E+00  0.709760935291E+00  0.710189762723E+00
  0.710610466220E+00  0.710601623221E+00  0.719603944730E+00  0.712858828286E+00  0.711953945675E+00  0.711281831920E+00  0.710790682332E+00
  0.710422307484E+00  0.710228062270E+00  0.709763882676E+00  0.710188082351E+00  0.710605612991E+00  0.710624328756E+00  0.712855432723E+00
  0.711957846029E+00  0.711277720471E+00  0.710794024467E+00  0.710418725220E+00  0.710230489419E+00  0.709762363804E+00  0.710188870989E+00
  0.710664042330E+00  0.712858824978E+00  0.711953945379E+00  0.711281918782E+00  0.710790682341E+00  0.710422205688E+00  0.710228403893E+00
  0.709763042813E+00  0.710191289076E+00  0.712855494083E+00  0.711957907385E+00  0.711277720473E+00  0.710793916838E+00  0.710419157719E+00
  0.710229709066E+00  0.709766434606E+00  0.712858861978E+00  0.711953945378E+00  0.711281831918E+00  0.710790878605E+00  0.710422047591E+00
  0.710228294528E+00  0.712855494079E+00  0.711957846029E+00  0.711277790770E+00  0.710793914461E+00  0.710419217345E+00  0.712858824977E+00
  0.711953945689E+00  0.711281870450E+00  0.710790875325E+00  0.712855432733E+00  0.711957850756E+00  0.711277813864E+00  0.712858828285E+00
  0.711953945582E+00  0.712855440849E+00
  0.000000000000E+00  0.504809069574E+00  0.000000000000E+00  0.503465538806E+00  0.504732837873E+00  0.000000000000E+00  0.504665910126E+00
  0.503544494754E+00  0.504734809557E+00  0.000000000000E+00  0.505006500929E+00  0.504672730943E+00  0.503536790470E+00  0.504736120861E+00
  0.000000000000E+00  0.504372928404E+00  0.505007547041E+00  0.504674957738E+00  0.503539656128E+00  0.504736424185E+00  0.000000000000E+00
  0.504281704172E+00  0.504367808850E+00  0.505009597656E+00  0.504672451803E+00  0.503544951259E+00  0.504732389022E+00  0.000000000000E+00
  0.503832241161E+00  0.504276704606E+00  0.504371917839E+00  0.505006531997E+00  0.504675323312E+00  0.503539221292E+00  0.504736424345E+00
  0.000000000000E+00  0.503269857009E+00  0.503828505981E+00  0.504282102122E+00  0.504368334339E+00  0.505011261504E+00  0.504671353903E+00
  0.503544951187E+00  0.504736121124E+00  0.000000000000E+00  0.502518178337E+00  0.503266525983E+00  0.503832695918E+00  0.504277295982E+00
  0.504372381584E+00  0.505006657831E+00  0.504675323321E+00  0.503539655912E+00  0.504734810178E+00  0.000000000000E+00  0.501617813994E+00
  0.502514742316E+00  0.503270043806E+00  0.503828509209E+00  0.504282324850E+00  0.504368298325E+00  0.505011261434E+00  0.504672451963E+00
  0.503536790217E+00  0.504732840256E+00  0.000000000000E+00  0.501615450393E+00  0.502518151926E+00  0.503266233977E+00  0.503832599188E+00
  0.504277373974E+00  0.504372381571E+00  0.505006531903E+00  0.504674957835E+00  0.503544493712E+00  0.504809073951E+00  0.501617721328E+00
  0.502514430547E+00  0.503269935671E+00  0.503828508915E+00  0.504282324847E+00  0.504368334337E+00  0.505009597471E+00  0.504672731246E+00
  0.503465537153E+00  0.501615258117E+00  0.502518113128E+00  0.503266251845E+00  0.503832599176E+00  0.504277296001E+00  0.504371917785E+00
  0.505007546811E+00  0.504665910528E+00  0.501617805748E+00  0.502514477189E+00  0.503269935661E+00  0.503828509204E+00  0.504282102140E+00
  0.504367808704E+00  0.505006500653E+00  0.501615330431E+00  0.502518113127E+00  0.503266233973E+00  0.503832695918E+00  0.504276704572E+00
  0.504372928235E+00  0.501617805758E+00  0.502514430555E+00  0.503270043792E+00  0.503828505995E+00  0.504281704155E+00  0.501615258124E+00
  0.502518151897E+00  0.503266525972E+00  0.503832241216E+00  0.501617721285E+00  0.502514742310E+00  0.503269856990E+00  0.501615450378E+00
  0.502518178448E+00  0.501617813990E+00
  0.120720594892E+01  0.999133005242E+00  0.120736195714E+01  0.998596002923E+00  0.999116517329E+00  0.120732983769E+01  0.998341653417E+00
  0.998571507142E+00  0.999111895796E+00  0.120732636494E+01  0.998202207969E+00  0.998341963331E+00  0.998575064077E+00  0.999116164242E+00
  0.120733571710E+01  0.998359303120E+00  0.998201250958E+00  0.998340983475E+00  0.998573912614E+00  0.999113797603E+00  0.120732684237E+01
  0.998450445658E+00  0.998360268306E+00  0.998200552343E+00  0.998342031676E+00  0.998571513124E+00  0.999116168936E+00  0.120733571707E+01
  0.998607711964E+00  0.998451659673E+00  0.998359378631E+00  0.998201566619E+00  0.998340962880E+00  0.998573470056E+00  0.999113797556E+00
  0.120732636493E+01  0.998792027020E+00  0.998608907455E+00  0.998450347838E+00  0.998360465845E+00  0.998199943490E+00  0.998342345697E+00
  0.998571513133E+00  0.999116164180E+00  0.120732983749E+01  0.999064477800E+00  0.998793424160E+00  0.998607685508E+00  0.998451707052E+00
  0.998359202929E+00  0.998201543853E+00  0.998340962879E+00  0.998573912663E+00  0.999111895588E+00  0.120736195642E+01  0.999429095368E+00
  0.999065765580E+00  0.998792015523E+00  0.998608957144E+00  0.998450202824E+00  0.998360544480E+00  0.998199943506E+00  0.998342031630E+00
  0.998575064144E+00  0.999116516991E+00  0.120720594640E+01  0.999430113285E+00  0.999064481491E+00  0.998793444477E+00  0.998607632530E+00
  0.998451756820E+00  0.998359202937E+00  0.998201566633E+00  0.998340983502E+00  0.998571507690E+00  0.999133004553E+00  0.999429098498E+00
  0.999065778526E+00  0.998791984385E+00  0.998609008277E+00  0.998450202829E+00  0.998360465845E+00  0.998200552403E+00  0.998341963067E+00
  0.998596003852E+00  0.999430108447E+00  0.999064471453E+00  0.998793475843E+00  0.998607632532E+00  0.998451707057E+00  0.998359378645E+00
  0.998201251031E+00  0.998341653203E+00  0.999429101091E+00  0.999065800421E+00  0.998791984385E+00  0.998608957146E+00  0.998450347855E+00
  0.998360268299E+00  0.998202208149E+00  0.999430125339E+00  0.999064471452E+00  0.998793444475E+00  0.998607685517E+00  0.998451659689E+00
  0.998359303146E+00  0.999429101090E+00  0.999065778524E+00  0.998792015528E+00  0.998608907462E+00  0.998450445682E+00  0.999430108445E+00
  0.999064481496E+00  0.998793424167E+00  0.998607711977E+00  0.999429098501E+00  0.999065765576E+00  0.998792027007E+00  0.999430113285E+00
  0.999064477770E+00  0.999429095408E+00
        67        57        46        56
        57        47        37        46
        47        38        29        37
        38        30        22        29
        30        23        16        22
        23        17        11        16
        17        12         7        11
        12         8         4         7
         8         5         2         4
         5         3         1         2
        77        68        57        67
        68        58        47        57
        58        48        38        47
        48        39        30        38
        39        31        23        30
        31        24        17        23
        24        18        12        17
        18        13         8        12
        13         9         5         8
         9         6         3         5
        86        78        68        77
        78        69        58        68
        69        59        48        58
        59        49        39        48
        49        40        31        39
        40        32        24        31
        32        25        18        24
        25        19        13        18
        19        14         9        13
        14        10         6         9
        94        87        78        86
        87        79        69        78
        79        70        59        69
        70        60        49        59
        60        50        40        49
        50        41        32        40
        41        33        25        32
        33        26        19        25
        26        20        14        19
        20        15        10        14
       101        95        87        94
        95        88        79        87
        88        80        70        79
        80        71        60        70
        71        61        50        60
        61        51        41        50
        51        42        33        41
        42        34        26        33
        34        27        20        26
        27        21        15        20
       107       102        95       101
       102        96        88        95
        96        89        80        88
        89        81        71        80
        81        72        61        71
        72        62        51        61
        62        52        42        51
        52        43        34        42
        43        35        27        34
        35        28        21        27
       112       108       102       107
       108       103        96       102
       103        97        89        96
        97        90        81        89
        90        82        72        81
        82        73        62        72
        73        63        52        62
        63        53        43        52
        53        44        35        43
        44        36        28        35
       116       113       108       112
       113       109       103       108
       109       104        97       103
       104        98        90        97
        98        91        82        90
        91        83        73        82
        83        74        63        73
        74        64        53        63
        64        54        44        53
        54        45        36        44
       119       117       113       116
       117       114       109       113
       114       110       104       109
       110       105        98       104
       105        99        91        98
        99        92        83        91
        92        84        74        83
        84        75        64        74
        75        65        54        64
        65        55        45        54
       121       120       117       119
       120       118       114       117
       118       115       110       114
       115       111       105       110
       111       106        99       105
       106       100        92        99
       100        93        84        92
        93        85        75        84
        85        76        65        75
        76        66        55        65
zone t="boundary 2 bc-2", solutiontime= 0.2000000E+02, strandid=1002, i=121, j=100, f=feblock
  0.000000000000E+00  0.500000000000E+00  0.000000000000E+00  0.100000000000E+01  0.500000000000E+00  0.000000000000E+00  0.150000000000E+01
  0.100000000000E+01  0.500000000000E+00  0.000000000000E+00  0.200000000000E+01  0.150000000000E+01  0.100000000000E+01  0.500000000000E+00
  0.000000000000E+00  0.250000000000E+01  0.200000000000E+01  0.150000000000E+01  0.100000000000E+01  0.500000000000E+00  0.000000000000E+00
  0.300000000000E+01  0.250000000000E+01  0.200000000000E+01  0.150000000000E+01  0.100000000000E+01  0.500000000000E+00  0.000000000000E+00
  0.350000000000E+01  0.300000000000E+01  0.250000000000E+01  0.200000000000E+01  0.150000000000E+01  0.100000000000E+01  0.500000000000E+00
  0.000000000000E+00  0.400000000000E+01  0.350000000000E+01  0.300000000000E+01  0.250000000000E+01  0.200000000000E+01  0.150000000000E+01
  0.100000000000E+01  0.500000000000E+00  0.000000000000E+00  0.450000000000E+01  0.400000000000E+01  0.350000000000E+01  0.300000000000E+01
  0.250000000000E+01  0.200000000000E+01  0.150000000000E+01  0.100000000000E+01  0.500000000000E+00  0.000000000000E+00  0.500000000000E+01