# vtk DataFile Version 2.0
FUN3D:global_image_vtk
ASCII
DATASET UNSTRUCTURED_GRID
POINTS 1331 double
    0.0000000000000000E+00    0.2500000000000000E+01    0.0000000000000000E+00
    0.5000000000000000E+00    0.2500000000000000E+01    0.0000000000000000E+00
    0.1000000000000000E+01    0.2500000000000000E+01    0.0000000000000000E+00
    0.1500000000000000E+01    0.2500000000000000E+01    0.0000000000000000E+00
    0.2000000000000000E+01    0.2500000000000000E+01    0.0000000000000000E+00
    0.2500000000000000E+01    0.2500000000000000E+01    0.0000000000000000E+00
    0.3000000000000000E+01    0.2500000000000000E+01    0.0000000000000000E+00
    0.3500000000000000E+01    0.2500000000000000E+01    0.0000000000000000E+00
    0.4000000000000000E+01    0.2500000000000000E+01    0.0000000000000000E+00
    0.4500000000000000E+01    0.2500000000000000E+01    0.0000000000000000E+00
    0.5000000000000000E+01    0.2500000000000000E+01    0.0000000000000000E+00
    0.0000000000000000E+00    0.2500000000000000E+01    0.4999999999999982E+00
    0.4999999999999998E+00    0.2500000000000000E+01    0.4999999999999984E+00
    0.9999999999999998E+00    0.2500000000000000E+01    0.4999999999999987E+00
    0.1500000000000000E+01    0.2500000000000000E+01    0.4999999999999989E+00
    0.2000000000000000E+01    0.2500000000000000E+01    0.4999999999999991E+00
    0.2500000000000000E+01    0.2500000000000000E+01    0.4999999999999993E+00
    0.3000000000000000E+01    0.2500000000000000E+01    0.4999999999999996E+00
    0.3500000000000000E+01    0.2500000000000000E+01    0.4999999999999998E+00
    0.4000000000000000E+01    0.2500000000000000E+01    0.5000000000000000E+00
    0.4500000000000002E+01    0.2500000000000000E+01    0.5000000000000002E+00
    0.5000000000000000E+01    0.2500000000000000E+01    0.5000000000000004E+00
    0.0000000000000000E+00    0.2500000000000000E+01    0.1000000000000001E+01
    0.4999999999999997E+00    0.2500000000000000E+01    0.1000000000000001E+01
    0.1000000000000000E+01    0.2500000000000000E+01    0.1000000000000001E+01
    0.1500000000000000E+01    0.2500000000000000E+01    0.1000000000000001E+01
    0.2000000000000000E+01    0.2500000000000000E+01    0.1000000000000001E+01
    0.2500000000000000E+01    0.2500000000000000E+01    0.1000000000000001E+01
    0.3000000000000000E+01    0.2500000000000000E+01    0.1000000000000001E+01
    0.3500000000000000E+01    0.2500000000000000E+01    0.1000000000000001E+01
    0.4000000000000000E+01    0.2500000000000000E+01    0.1000000000000001E+01
    0.4499999999999999E+01    0.2500000000000000E+01    0.1000000000000001E+01
    0.5000000000000000E+01    0.2500000000000000E+01    0.1000000000000001E+01
    0.0000000000000000E+00    0.2500000000000000E+01    0.1499999999999999E+01
    0.4999999999999994E+00    0.2500000000000000E+01    0.1499999999999999E+01
    0.1000000000000000E+01    0.2500000000000000E+01    0.1499999999999999E+01
    0.1500000000000000E+01    0.2500000000000000E+01    0.1499999999999999E+01
    0.2000000000000001E+01    0.2500000000000000E+01    0.1499999999999999E+01
    0.2500000000000000E+01    0.2500000000000000E+01    0.1499999999999999E+01
    0.2999999999999999E+01    0.2500000000000000E+01    0.1499999999999999E+01
    0.3500000000000000E+01    0.2500000000000000E+01    0.1499999999999999E+01
    0.4000000000000001E+01    0.2500000000000000E+01    0.1499999999999999E+01
    0.4500000000000001E+01    0.2500000000000000E+01    0.1499999999999999E+01
    0.5000000000000000E+01    0.2500000000000000E+01    0.1499999999999999E+01
    0.0000000000000000E+00    0.2500000000000000E+01    0.2000000000000002E+01
    0.4999999999999992E+00    0.2500000000000000E+01    0.2000000000000001E+01
    0.1000000000000000E+01    0.2500000000000000E+01    0.2000000000000001E+01
    0.1500000000000000E+01    0.2500000000000000E+01    0.2000000000000001E+01
    0.2000000000000001E+01    0.2500000000000000E+01    0.2000000000000001E+01
    0.2500000000000000E+01    0.2500000000000000E+01    0.2000000000000001E+01
    0.2999999999999999E+01    0.2500000000000000E+01    0.2000000000000000E+01
    0.3500000000000000E+01    0.2500000000000000E+01    0.2000000000000000E+01
    0.4000000000000000E+01    0.2500000000000000E+01    0.2000000000000000E+01
    0.4500000000000000E+01    0.2500000000000000E+01    0.2000000000000000E+01
    0.5000000000000000E+01    0.2500000000000000E+01    0.2000000000000000E+01
    0.0000000000000000E+00    0.2500000000000000E+01    0.2500000000000000E+01
    0.4999999999999991E+00    0.2500000000000000E+01    0.2500000000000000E+01
    0.1000000000000000E+01    0.2500000000000000E+01    0.2500000000000000E+01
    0.1500000000000000E+01    0.2500000000000000E+01    0.2500000000000000E+01
    0.2000000000000001E+01    0.2500000000000000E+01    0.2500000000000000E+01
    0.2500000000000000E+01    0.2500000000000000E+01    0.2500000000000000E+01
    0.2999999999999999E+01    0.2500000000000000E+01    0.2500000000000000E+01
    0.3500000000000001E+01    0.2500000000000000E+01    0.2500000000000000E+01
    0.4000000000000000E+01    0.2500000000000000E+01    0.2500000000000000E+01
    0.4500000000000001E+01    0.2500000000000000E+01    0.2500000000000000E+01
    0.5000000000000000E+01    0.2500000000000000E+01    0.2500000000000000E+01
    0.0000000000000000E+00    0.2500000000000000E+01    0.2999999999999998E+01
    0.4999999999999989E+00    0.2500000000000000E+01    0.2999999999999998E+01
    0.1000000000000000E+01    0.2500000000000000E+01    0.2999999999999999E+01
    0.1499999999999999E+01    0.2500000000000000E+01    0.2999999999999999E+01
    0.2000000000000001E+01    0.2500000000000000E+01    0.2999999999999999E+01
    0.2500000000000000E+01    0.2500000000000000E+01    0.2999999999999999E+01
    0.2999999999999999E+01    0.2500000000000000E+01    0.2999999999999999E+01
    0.3500000000000001E+01    0.2500000000000000E+01    0.3000000000000000E+01
    0.4000000000000000E+01    0.2500000000000000E+01    0.3000000000000000E+01
    0.4500000000000001E+01    0.2500000000000000E+01    0.3000000000000000E+01
    0.5000000000000000E+01    0.2500000000000000E+01    0.3000000000000000E+01
    0.0000000000000000E+00    0.2500000000000000E+01    0.3500000000000001E+01
    0.4999999999999988E+00    0.2500000000000000E+01    0.3500000000000001E+01
    0.1000000000000001E+01    0.2500000000000000E+01    0.3500000000000001E+01
    0.1499999999999999E+01    0.2500000000000000E+01    0.3500000000000001E+01
    0.2000000000000001E+01    0.2500000000000000E+01    0.3500000000000001E+01
    0.2500000000000000E+01    0.2500000000000000E+01    0.3500000000000001E+01
    0.2999999999999999E+01    0.2500000000000000E+01    0.3500000000000001E+01
    0.3500000000000001E+01    0.2500000000000000E+01    0.3500000000000001E+01
    0.4000000000000001E+01    0.2500000000000000E+01    0.3500000000000001E+01
    0.4500000000000001E+01    0.2500000000000000E+01    0.3500000000000001E+01
    0.5000000000000000E+01    0.2500000000000000E+01    0.3500000000000001E+01
    0.0000000000000000E+00    0.2500000000000000E+01    0.3999999999999999E+01
    0.4999999999999986E+00    0.2500000000000000E+01    0.4000000000000000E+01
    0.1000000000000001E+01    0.2500000000000000E+01    0.3999999999999999E+01
    0.1499999999999999E+01    0.2500000000000000E+01    0.3999999999999999E+01
    0.2000000000000001E+01    0.2500000000000000E+01    0.3999999999999999E+01
    0.2500000000000000E+01    0.2500000000000000E+01    0.3999999999999999E+01
    0.2999999999999998E+01    0.2500000000000000E+01    0.3999999999999999E+01
    0.3500000000000001E+01    0.2500000000000000E+01    0.3999999999999999E+01
    0.3999999999999999E+01    0.2500000000000000E+01    0.3999999999999999E+01
    0.4500000000000003E+01    0.2500000000000000E+01    0.3999999999999999E+01
    0.5000000000000000E+01    0.2500000000000000E+01    0.3999999999999999E+01
    0.0000000000000000E+00    0.2500000000000000E+01    0.4500000000000002E+01
    0.4999999999999984E+00    0.2500000000000000E+01    0.4500000000000002E+01
    0.1000000000000001E+01    0.2500000000000000E+01    0.4500000000000001E+01
    0.1499999999999999E+01    0.2500000000000000E+01    0.4500000000000003E+01
    0.2000000000000002E+01    0.2500000000000000E+01    0.4500000000000001E+01
    0.2500000000000000E+01    0.2500000000000000E+01    0.4500000000000001E+01
    0.2999999999999998E+01    0.2500000000000000E+01    0.4500000000000001E+01
    0.3500000000000001E+01    0.2500000000000000E+01    0.4499999999999999E+01
    0.3999999999999999E+01    0.2500000000000000E+01    0.4499999999999999E+01
    0.4500000000000002E+01    0.2500000000000000E+01    0.4500000000000000E+01
    0.5000000000000000E+01    0.2500000000000000E+01    0.4500000000000000E+01
    0.0000000000000000E+00    0.2500000000000000E+01    0.5000000000000000E+01
    0.4999999999999982E+00    0.2500000000000000E+01    0.5000000000000000E+01
    0.1000000000000001E+01    0.2500000000000000E+01    0.5000000000000000E+01
    0.1499999999999999E+01    0.2500000000000000E+01    0.5000000000000000E+01
    0.2000000000000002E+01    0.2500000000000000E+01    0.5000000000000000E+01
    0.2500000000000000E+01    0.2500000000000000E+01    0.5000000000000000E+01
    0.2999999999999998E+01    0.2500000000000000E+01    0.5000000000000000E+01
    0.3500000000000001E+01    0.2500000000000000E+01    0.5000000000000000E+01
    0.3999999999999999E+01    0.2500000000000000E+01    0.5000000000000000E+01
    0.4500000000000002E+01    0.2500000000000000E+01    0.5000000000000000E+01
    0.5000000000000000E+01    0.2500000000000000E+01    0.5000000000000000E+01
    0.0000000000000000E+00    0.2000000000000000E+01    0.0000000000000000E+00
    0.5000000000000000E+00    0.2000000000000000E+01    0.0000000000000000E+00
    0.1000000000000000E+01    0.2000000000000000E+01    0.0000000000000000E+00
    0.1500000000000000E+01    0.2000000000000000E+01    0.0000000000000000E+00
[...]
POINT_DATA 1331
SCALARS rho double 1
LOOKUP_TABLE default
   0.8218419480392027E+00
   0.9395542302815596E+00
   0.9567177942842886E+00
   0.9671994581819974E+00
   0.9723506880984677E+00
   0.9742341654595444E+00
   0.9767594632106913E+00
   0.9798034966366563E+00
   0.9730598511285522E+00
   0.8702588636740644E+00
   0.3959738785336722E+00
   0.9951799713315602E+00
   0.9949671585666255E+00
   0.9947855789648122E+00
   0.9943769067216184E+00
   0.9939743231974039E+00
   0.9928902014705699E+00
   0.9923752650647694E+00
   0.9888867900364220E+00
   0.9891600534161878E+00
   0.9797781306482382E+00
   0.1005805994367535E+01
   0.9953651754429161E+00
   0.9952690352333518E+00
   0.9951247198085215E+00
   0.9949371303282240E+00
   0.9945813631632019E+00
   0.9941979251384505E+00
   0.9931572237098755E+00
   0.9923925745269223E+00
   0.9866618944801226E+00
   0.9855834529338672E+00
   0.9606022032437617E+00
   0.9954154664714274E+00
   0.9953779402082087E+00
   0.9952183531269062E+00
   0.9949932943248094E+00
   0.9946650233483123E+00
   0.9942954534699567E+00
   0.9937767915187045E+00
   0.9937861301886366E+00
   0.9934309933440733E+00
   0.9963194477664408E+00
   0.9949510267331524E+00
   0.9956349880804513E+00
   0.9956266456210897E+00
   0.9955033311671819E+00
   0.9953526939756325E+00
   0.9950916520538620E+00
   0.9948964688360420E+00
   0.9943625990149183E+00
   0.9944397196836765E+00
   0.9934607691581657E+00
   0.9955354679410561E+00
   0.9956476331386773E+00
   0.9958860551342372E+00
   0.9958808886084788E+00
   0.9957639742643851E+00
   0.9956416767859807E+00
   0.9954601533777840E+00
   0.9954102014698261E+00
   0.9952645452925886E+00
   0.9957068802303026E+00
   0.9958563260221651E+00
   0.9973272444991496E+00
   0.9981056945141309E+00
   0.9962074127222756E+00
   0.9962062721372982E+00
   0.9960865114589946E+00
   0.9959787633939683E+00
   0.9958240321065188E+00
   0.9958028386190608E+00
   0.9957124308002849E+00
   0.9960655090239990E+00
   0.9963185053745804E+00
   0.9974729478365336E+00
   0.9985239921215761E+00
   0.9965837092963397E+00
   0.9965679804403855E+00
   0.9964166290423290E+00
   0.9962994591519007E+00
   0.9961745440641978E+00
   0.9961946036157234E+00
   0.9962399416565546E+00
   0.9966184865653341E+00
   0.9970346488806711E+00
   0.9979073516309036E+00
   0.9988059221262731E+00
   0.9970532910113079E+00
   0.9969766228335595E+00
   0.9967550227128149E+00
   0.9965898098367281E+00
   0.9964428684765432E+00
   0.9964329640304450E+00
   0.9964880328336154E+00
   0.9968092840276891E+00
   0.9972563269007190E+00
   0.9980545341350727E+00
   0.9989689402614448E+00
   0.9977078696130147E+00
   0.9974457924092112E+00
   0.9970870427969654E+00
   0.9968414158901374E+00
   0.9966594265313544E+00
   0.9966169890408655E+00
   0.9966713555816550E+00
   0.9969467144395617E+00
   0.9973862264827060E+00
   0.9981399819799457E+00
   0.9990606578296161E+00
   0.9985938060854339E+00
   0.9978521351173827E+00
   0.9973576614652309E+00
   0.9970242818590712E+00
   0.9967879424097571E+00
   0.9966794245503261E+00
   0.9966719242056915E+00
   0.9968593432001893E+00
   0.9972409646857600E+00
   0.9979890594299645E+00
   0.9990087449725503E+00
   0.8218375365067518E+00
   0.9395153019390876E+00
   0.9568497055606433E+00
   0.9672350313476286E+00
   0.9722170387398509E+00
   0.9740503945714251E+00
   0.9764122183062318E+00
   0.9793703757526702E+00
   0.9729639347795587E+00
   0.8714913792994998E+00
   0.3987484080533064E+00
   0.9951871379553922E+00
   0.9949729226972225E+00
   0.9947939207742074E+00
   0.9943872504950914E+00
   0.9939876133388656E+00
   0.9929008262465105E+00
   0.9923627298991042E+00
   0.9887718415056167E+00
   0.9888179909218983E+00
   0.9795839334207180E+00
   0.1005966000644824E+01
   0.9953656010940710E+00
   0.9952700849405757E+00
   0.9951259685837653E+00
   0.9949380576693239E+00
   0.9945812572490145E+00
   0.9941932403991692E+00
   0.9931436029586868E+00
   0.9923637861556807E+00
   0.9866303725493329E+00
   0.9856006140973385E+00
   0.9607306357981501E+00
   0.9954165977985839E+00
   0.9953794898478201E+00
   0.9952206134291082E+00
   0.9949958921216838E+00
   0.9946674728469881E+00
   0.9942950512110320E+00
   0.9937672939092562E+00
   0.9937584121061657E+00
   0.9933740997148739E+00
   0.9962672677378505E+00
   0.9949629450978674E+00
   0.9956352371790179E+00
   0.9956271706168676E+00
   0.9955041710217504E+00
   0.9953536485450736E+00
   0.9950922467901594E+00
   0.9948958159562634E+00
   0.9943587107429550E+00
   0.9944316953494980E+00
   0.9934464893008781E+00
   0.9955183420091221E+00
   0.9956465692097833E+00
   0.9958861966974966E+00
   0.9958812352153569E+00
   0.9957645669428684E+00
   0.9956424114168472E+00
   0.9954606153861625E+00
   0.9954097086799381E+00
   0.9952616216847006E+00
   0.9957004429395651E+00
   0.9958467846993132E+00
   0.9973168464425398E+00
   0.9981030390448931E+00
   0.9962074068470752E+00
   0.9962063656938983E+00
   0.9960867393116239E+00
   0.9959790981175033E+00
   0.9958242538836248E+00
   0.9958026606884942E+00
   0.9957112737153002E+00
   0.9960628312987128E+00
   0.9963147036954700E+00
   0.9974685703051952E+00
   0.9985222206819986E+00
   0.9965836622384325E+00
   0.9965680063053647E+00
   0.9964167543996177E+00
   0.9962996804142868E+00
   0.9961747099879608E+00
   0.9961945127120566E+00
   0.9962392678337313E+00
   0.9966169063930583E+00
   0.9970325012974961E+00
   0.9979051041256399E+00
   0.9988049975515435E+00
   0.9970532235352663E+00
   0.9969765775978521E+00
   0.9967550239833530E+00
   0.9965898695610403E+00
   0.9964429305358720E+00
   0.9964329433930349E+00
   0.9964877481736075E+00
   0.9968085741064788E+00
   0.9972553018230917E+00
   0.9980534833169892E+00
   0.9989685473175834E+00
   0.9977078017712014E+00
   0.9974457316293264E+00
   0.9970870067833468E+00
   0.9968414253249791E+00
   0.9966594448415381E+00
   0.9966169799677141E+00
   0.9966711937153476E+00
   0.9969463227205326E+00
   0.9973856346900072E+00
   0.9981393911809618E+00
   0.9990604354721303E+00
   0.9985937654644325E+00
   0.9978520695672608E+00
   0.9973575867255920E+00
   0.9970242188394723E+00
   0.9967879001796652E+00
   0.9966794040157613E+00
   0.9966718376164809E+00
   0.9968591506247062E+00
   0.9972406116576845E+00
   0.9979886964804217E+00
   0.9990086153486084E+00
   0.8218383103726776E+00
   0.9395992586153323E+00
   0.9569805862748716E+00
   0.9673633246252039E+00
   0.9723927553899099E+00
   0.9742315578027030E+00
   0.9766682787311396E+00
   0.9796809783345330E+00
   0.9734170193734515E+00
   0.8718395642733409E+00
   0.3987830992457283E+00
   0.9951865796084046E+00
   0.9949711421092614E+00
   0.9947912291922902E+00
   0.9943837647389302E+00
   0.9939836123447697E+00
   0.9928975073013676E+00
   0.9923665734748853E+00
   0.9887906235442234E+00
   0.9888821883651707E+00
   0.9796688519612983E+00
   0.1005984622398596E+01
   0.9953654262426104E+00
   0.9952695608267323E+00
   0.9951251553390253E+00
   0.9949371560978538E+00
   0.9945807871889747E+00
   0.9941942687061420E+00
   0.9931487350240805E+00
   0.9923751310289999E+00
   0.9866497531854875E+00
   0.9856181397637973E+00
   0.9607259180760437E+00
   0.9954163766341574E+00
   0.9953788042070544E+00
   0.9952194607105970E+00
   0.9949943855570551E+00
   0.9946660613820739E+00
   0.9942945876840628E+00
   0.9937704876677096E+00
   0.9937682041264811E+00
   0.9933939089360806E+00
   0.9962929768890949E+00
   0.9949700178933988E+00
   0.9956351681560101E+00
   0.9956269069965972E+00
   0.9955036787581181E+00
   0.9953530016693611E+00
   0.9950918140978274E+00
   0.9948960885127702E+00
   0.9943608149752969E+00
   0.9944365381856993E+00
   0.9934537260110063E+00
   0.9955273286106034E+00
   0.9956489559919746E+00
   0.9958861669190844E+00
   0.9958810317154505E+00
   0.9957641560838472E+00
   0.9956418308208821E+00
   0.9954601517399887E+00
   0.9954097741311805E+00
   0.9952630351473698E+00
   0.9957041329798261E+00
   0.9958524215445741E+00
   0.9973234668957487E+00
   0.9981053583962470E+00
   0.9962074453553392E+00
   0.9962063220208111E+00
   0.9960865746771418E+00
   0.9959788168629603E+00
   0.9958240154767166E+00
   0.9958026850662357E+00
   0.9957119410782321E+00
   0.9960645770237359E+00
   0.9963172017459201E+00
   0.9974714757622506E+00
   0.9985234105269279E+00
   0.9965837220068053E+00
   0.9965680011668494E+00
   0.9964166511959283E+00
   0.9962994701657978E+00
   0.9961745073283031E+00
   0.9961944756702672E+00
   0.9962396527867988E+00
   0.9966179945187231E+00
   0.9970340713967164E+00
   0.9979068048364567E+00
   0.9988057032483106E+00
   0.9970532933908464E+00
   0.9969766295004152E+00
   0.9967550295304560E+00
   0.9965898112078595E+00
   0.9964428493555805E+00
   0.9964329042351089E+00
   0.9964879087298609E+00
   0.9968090681103564E+00
   0.9972560631553516E+00
   0.9980542911112243E+00
   0.9989688463727767E+00
   0.9977078691547629E+00
   0.9974457939190612E+00
   0.9970870436989657E+00
   0.9968414128298890E+00
   0.9966594123473919E+00
   0.9966169525201930E+00
   0.9966712885896201E+00
   0.9969466067098625E+00
   0.9973860968242639E+00
   0.9981398645703746E+00
   0.9990606110870969E+00
   0.9985938052763135E+00
   0.9978521352909998E+00
   0.9973576615797362E+00
   0.9970242798548903E+00
   0.9967879343906954E+00
   0.9966794021918294E+00
   0.9966718804821015E+00
   0.9968592701293284E+00
   0.9972408719802700E+00
   0.9979889719991779E+00
   0.9990087057613750E+00
   0.8218382575783233E+00
   0.9395306242057129E+00
   0.9569050678090972E+00
   0.9672737843870864E+00
   0.9722283412843071E+00
   0.9740461966670696E+00
   0.9763974510309836E+00
   0.9793888151314941E+00
   0.9731368381225501E+00
   0.8717514272816871E+00
   0.3987983801347591E+00
   0.9951878327639082E+00
   0.9949725124985778E+00
   0.9947928640471785E+00
   0.9943851381888300E+00
   0.9939841443037253E+00
   0.9928940401698763E+00
   0.9923540852096630E+00
   0.9887609240545574E+00
   0.9888265919091720E+00
   0.9796335196112101E+00
   0.1006011750430116E+01
   0.9953656643741391E+00
   0.9952698455466888E+00
   0.9951253826665796E+00
   0.9949370421354280E+00
   0.9945798003335998E+00
   0.9941913432949290E+00
   0.9931428962869522E+00
   0.9923667951546212E+00
   0.9866426664522364E+00
   0.9856209988985808E+00
   0.9607415236684227E+00
   0.9954167275826070E+00
   0.9953793384046510E+00
   0.9952201121163946E+00
   0.9949948714673080E+00
   0.9946658471615228E+00
   0.9942924354222200E+00
   0.9937643240769046E+00
   0.9937566542213073E+00
   0.9933767828381859E+00
   0.9962797224530149E+00
   0.9949733128168422E+00
   0.9956352250388967E+00
   0.9956270560847067E+00
   0.9955038872538884E+00
   0.9953531309645930E+00
   0.9950915340852615E+00
   0.9948949614474880E+00
   0.9943581323666711E+00
   0.9944322892979527E+00
   0.9934483047057214E+00
   0.9955225968162293E+00
   0.9956494460006183E+00
   0.9958861838895970E+00
   0.9958811546733577E+00
   0.9957643600685858E+00
   0.9956420215713293E+00
   0.9954600355960700E+00
   0.9954089666623342E+00
   0.9952609148591046E+00
   0.9957004719831891E+00
   0.9958477622980458E+00
   0.9973193183491845E+00
   0.9981049517608683E+00
   0.9962073823398839E+00
   0.9962063116478468E+00
   0.9960866225911885E+00
   0.9959788966166524E+00
   0.9958239716593391E+00
   0.9958023531121976E+00
   0.9957110062710705E+00
   0.9960628989111244E+00
   0.9963150568502220E+00
   0.9974693557110124E+00
   0.9985228623387742E+00
   0.9965836416375590E+00
   0.9965679683365627E+00
   0.9964166757671485E+00
   0.9962995491004477E+00
   0.9961745228412522E+00
   0.9961943115046034E+00
   0.9962390978804151E+00
   0.9966169431777123E+00
   0.9970327480148596E+00
   0.9979055321276014E+00
   0.9988053006609614E+00
   0.9970532077229486E+00
   0.9969765534084446E+00
   0.9967549778068927E+00
   0.9965897969974579E+00
   0.9964428289638110E+00
   0.9964328374750600E+00
   0.9964876558415684E+00
   0.9968085691289494E+00
   0.9972553909880709E+00
   0.9980536468373872E+00
   0.9989686706640530E+00
   0.9977077910267915E+00
   0.9974457154922799E+00
   0.9970869763179584E+00
   0.9968413782111220E+00
   0.9966593788739676E+00
   0.9966169103357164E+00
   0.9966711345350711E+00
   0.9969463120697230E+00
   0.9973856821532060E+00
   0.9981394764823366E+00
   0.9990604954370037E+00
   0.9985937597472657E+00
   0.9978520587960948E+00
   0.9973575656984796E+00
   0.9970241851429394E+00
   0.9967878504043172E+00
   0.9966793462616016E+00
   0.9966717813667971E+00
   0.9968591205152387E+00
   0.9972406231746227E+00
   0.9979887441274103E+00
   0.9990086602631345E+00
   0.8218386940542355E+00
   0.9396040544808721E+00
   0.9569923426058994E+00
   0.9673716264399256E+00
   0.9723943687677827E+00
   0.9742278065555112E+00
   0.9766625764132074E+00
   0.9796866977340658E+00
   0.9734582248341002E+00
   0.8718918790636577E+00
   0.3988067769155346E+00
   0.9951879522122677E+00
   0.9949724027632474E+00
   0.9947926647784155E+00
   0.9943847880807453E+00
   0.9939840633427536E+00
   0.9928942901165692E+00
   0.9923554672529967E+00
   0.9887640092621524E+00
   0.9888287965747268E+00
   0.9796326369014673E+00
   0.1006011561132305E+01
   0.9953657178604928E+00
   0.9952697584861482E+00
   0.9951251912438044E+00
   0.9949367736091217E+00
   0.9945796855040250E+00
   0.9941916136301961E+00
   0.9931440200637256E+00
   0.9923690773082440E+00
   0.9866455375642750E+00
   0.9856240040405470E+00
   0.9607436662965432E+00
   0.9954167705669316E+00
   0.9953792389857458E+00
   0.9952198890235674E+00
   0.9949945437984780E+00
   0.9946656575291125E+00
   0.9942926180049754E+00
   0.9937652664844586E+00
   0.9937587804260288E+00
   0.9933792441672764E+00
   0.9962820714629362E+00
   0.9949742007765933E+00
   0.9956352792928089E+00
   0.9956270297816621E+00
   0.9955037774428592E+00
   0.9953529536098537E+00
   0.9950914653819530E+00
   0.9948951890740768E+00
   0.9943589325503165E+00
   0.9944338723740761E+00
   0.9934502192588502E+00
   0.9955242820230527E+00
   0.9956498466157895E+00
   0.9958862431336930E+00
   0.9958811276691720E+00
   0.9957642325918260E+00
   0.9956418036469007E+00
   0.9954598806397484E+00
   0.9954090379469137E+00
   0.9952614539804004E+00
   0.9957016876483661E+00
   0.9958493752442841E+00
   0.9973209540857644E+00
   0.9981055636279516E+00
   0.9962074669399735E+00
   0.9962063546910633E+00
   0.9960865987308871E+00
   0.9959787966267585E+00
   0.9958238857211386E+00
   0.9958023725182650E+00
   0.9957113072375380E+00
   0.9960635892323817E+00
   0.9963159617508727E+00
   0.9974702514048800E+00
   0.9985231537274090E+00
   0.9965837292854550E+00
   0.9965680155177392E+00
   0.9964166566879130E+00
   0.9962994457301899E+00
   0.9961744116639238E+00
   0.9961942621144421E+00
   0.9962392595849084E+00
   0.9966174066916591E+00
   0.9970334009191523E+00
   0.9979062012089824E+00
   0.9988055551962713E+00
   0.9970532925844081E+00
   0.9969766329491292E+00
   0.9967550290663758E+00
   0.9965897972649914E+00
   0.9964428024193287E+00
   0.9964328006136352E+00
   0.9964877213120278E+00
   0.9968087785907325E+00
   0.9972557233672209E+00
   0.9980539788285232E+00
   0.9989687508903443E+00
   0.9977078665943554E+00
   0.9974457934549125E+00
   0.9970870404254050E+00
   0.9968414013424330E+00
   0.9966593825124977E+00
   0.9966168906864011E+00
   0.9966711835062376E+00
   0.9969464480812374E+00
   0.9973859113468452E+00
   0.9981396958897729E+00
   0.9990605490764251E+00
   0.9985938032261098E+00
   0.9978521341552187E+00
   0.9973576593580227E+00
   0.9970242728391019E+00
   0.9967879160022503E+00
   0.9966793618955180E+00
   0.9966718095553035E+00
   0.9968591585623449E+00
   0.9972407328020277E+00
   0.9979888364058864E+00
   0.9990086396881480E+00
   0.8218385770882946E+00
   0.9395316468537183E+00
   0.9569072477834519E+00
   0.9672752883503805E+00
   0.9722281929570038E+00
   0.9740447516360299E+00
   0.9763965325350541E+00
   0.9793915770779915E+00
   0.9731463450326249E+00
   0.8717615142932557E+00
   0.3988031765196246E+00
   0.9951880737268212E+00
   0.9949726117422820E+00
   0.9947928772326324E+00
   0.9943848627950144E+00
   0.9939836193871354E+00
   0.9928928134762052E+00
   0.9923519575904292E+00
   0.9887586218657582E+00
   0.9888206326288120E+00
   0.9796279018438494E+00
   0.1006014267780790E+01
   0.9953656996280456E+00
   0.9952697665516885E+00
   0.9951251797722831E+00
   0.9949366665218966E+00
   0.9945792733736373E+00
   0.9941906773798906E+00
   0.9931424274858209E+00
   0.9923671442978902E+00
   0.9866441745560419E+00
   0.9856241853174288E+00
   0.9607454746891726E+00
   0.9954167829768444E+00
   0.9953793320675127E+00
   0.9952200085164403E+00
   0.9949945886846943E+00
   0.9946653674217428E+00
   0.9942916750613190E+00
   0.9937632690676810E+00
   0.9937557930556234E+00
   0.9933758661523694E+00
   0.9962797544203769E+00
   0.9949745952695257E+00
   0.9956352167366962E+00
   0.9956270100695721E+00
   0.9955037835789720E+00
   0.9953529468974702E+00
   0.9950912816669916E+00
   0.9948946945698214E+00
   0.9943579369599562E+00
   0.9944324791043540E+00
   0.9934488224608325E+00
   0.9955233211070640E+00
   0.9956499894845749E+00
   0.9958861772855790E+00
   0.9958811233464006E+00
   0.9957642778533131E+00
   0.9956418665913632E+00
   0.9954598032583510E+00
   0.9954086813004309E+00
   0.9952606206878645E+00
   0.9957003861718317E+00
   0.9958479244490098E+00
   0.9973198161805555E+00
   0.9981054399151652E+00
   0.9962073685454313E+00
   0.9962062854688132E+00
   0.9960865696071249E+00
   0.9959788096374533E+00
   0.9958238519047681E+00
   0.9958022306002856E+00
   0.9957109079708378E+00
   0.9960629276206890E+00
   0.9963151949009087E+00
   0.9974695801484479E+00
   0.9985230271114826E+00
   0.9965836300767047E+00
   0.9965679488302437E+00
   0.9964166366929017E+00
   0.9962994863132472E+00
   0.9961744356974207E+00
   0.9961942201407001E+00
   0.9962390233256609E+00
   0.9966169533744627E+00
   0.9970328512773505E+00
   0.9979057070573368E+00
   0.9988054268308252E+00
   0.9970531986162239E+00
   0.9969765402557598E+00
   0.9967549535688353E+00
   0.9965897599860724E+00
   0.9964427787841186E+00
   0.9964327868713280E+00
   0.9964876155029265E+00
   0.9968085703892161E+00
   0.9972554352742120E+00
   0.9980537217866946E+00
   0.9989687248517302E+00
   0.9977077847528414E+00
   0.9974457063894272E+00
   0.9970869596347973E+00
   0.9968413529134732E+00
   0.9966593443082734E+00
   0.9966168744779359E+00
   0.9966711054936703E+00
   0.9969463090960992E+00
   0.9973857097534232E+00
   0.9981395229432718E+00
   0.9990605282193122E+00
   0.9985937563660827E+00
   0.9978520525701048E+00
   0.9973575538853950E+00
   0.9970241665980674E+00
   0.9967878237092618E+00
   0.9966793158425673E+00
   0.9966717524200926E+00
   0.9968591058901773E+00
   0.9972406311614187E+00
   0.9979887727279496E+00
   0.9990086888254651E+00
   0.8218386940289947E+00
   0.9396040542355222E+00
   0.9569923423259226E+00
   0.9673716262667782E+00
   0.9723943685725265E+00
   0.9742278064940643E+00
   0.9766625765384416E+00
   0.9796866984561423E+00
   0.9734582254214543E+00
   0.8718918782376709E+00
   0.3988067768178406E+00
   0.9951879522065505E+00
   0.9949724027576531E+00
   0.9947926647718410E+00
   0.9943847880722586E+00
   0.9939840633292508E+00
   0.9928942900918863E+00
   0.9923554672182061E+00
   0.9887640091766802E+00
   0.9888287965077135E+00
   0.9796326367751189E+00
   0.1006011561178116E+01
   0.9953657178543556E+00
   0.9952697584805716E+00
   0.9951251912382978E+00
   0.9949367736046271E+00
   0.9945796855017559E+00
   0.9941916136374569E+00
   0.9931440200840305E+00
   0.9923690773633413E+00
   0.9866455376506144E+00
   0.9856240041278292E+00
   0.9607436663196118E+00
   0.9954167705617440E+00
   0.9953792389791304E+00
   0.9952198890135524E+00
   0.9949945437830100E+00
   0.9946656575047892E+00
   0.9942926179751196E+00
   0.9937652664450933E+00
   0.9937587804155600E+00