title="tecplot geometry and solution file"
variables = x y z rho u v w p mach temperature
zone t="boundary 1 bc-1", solutiontime= 0.9000000E+02, strandid=1001, i=121, j=100, f=feblock
  0.000000000000E+00  0.000000000000E+00  0.000000000000E+00  0.000000000000E+00  0.000000000000E+00  0.000000000000E+00  0.000000000000E+00
  0.000000000000E+00  0.000000000000E+00  0.000000000000E+00  0.000000000000E+00  0.000000000000E+00  0.000000000000E+00  0.000000000000E+00
  0.000000000000E+00  0.000000000000E+00  0.000000000000E+00  0.000000000000E+00  0.000000000000E+00  0.000000000000E+00  0.000000000000E+00
  0.000000000000E+00  0.000000000000E+00  0.000000000000E+00  0.000000000000E+00  0.000000000000E+00  0.000000000000E+00  0.000000000000E+00
  0.000000000000E+00  0.000000000000E+00  0.000000000000E+00  0.000000000000E+00  0.000000000000E+00  0.000000000000E+00  0.000000000000E+00
  0.000000000000E+00  0.000000000000E+00  0.000000000000E+00  0.000000000000E+00  0.000000000000E+00  0.000000000000E+00  0.000000000000E+00
  0.000000000000E+00  0.000000000000E+00  0.000000000000E+00  0.000000000000E+00  0.000000000000E+00  0.000000000000E+00  0.000000000000E+00
  0.000000000000E+00  0.000000000000E+00  0.000000000000E+00  0.000000000000E+00  0.000000000000E+00  0.000000000000E+00  0.000000000000E+00
  0.000000000000E+00  0.000000000000E+00  0.000000000000E+00  0.000000000000E+00  0.000000000000E+00  0.000000000000E+00  0.000000000000E+00
  0.000000000000E+00  0.000000000000E+00  0.000000000000E+00  0.000000000000E+00  0.000000000000E+00  0.000000000000E+00  0.000000000000E+00
  0.000000000000E+00  0.000000000000E+00  0.000000000000E+00  0.000000000000E+00  0.000000000000E+00  0.000000000000E+00  0.000000000000E+00
  0.000000000000E+00  0.000000000000E+00  0.000000000000E+00  0.000000000000E+00  0.000000000000E+00  0.000000000000E+00  0.000000000000E+00
  0.000000000000E+00  0.000000000000E+00  0.000000000000E+00  0.000000000000E+00  0.000000000000E+00  0.000000000000E+00  0.000000000000E+00
  0.000000000000E+00  0.000000000000E+00  0.000000000000E+00  0.000000000000E+00  0.000000000000E+00  0.000000000000E+00  0.000000000000E+00
  0.000000000000E+00  0.000000000000E+00  0.000000000000E+00  0.000000000000E+00  0.000000000000E+00  0.000000000000E+00  0.000000000000E+00
  0.000000000000E+00  0.000000000000E+00  0.000000000000E+00  0.000000000000E+00  0.000000000000E+00  0.000000000000E+00  0.000000000000E+00
  0.000000000000E+00  0.000000000000E+00  0.000000000000E+00  0.000000000000E+00  0.000000000000E+00  0.000000000000E+00  0.000000000000E+00
  0.000000000000E+00  0.000000000000E+00
  0.250000000000E+01  0.250000000000E+01  0.200000000000E+01  0.250000000000E+01  0.200000000000E+01  0.150000000000E+01  0.250000000000E+01
  0.200000000000E+01  0.150000000000E+01  0.100000000000E+01  0.250000000000E+01  0.200000000000E+01  0.150000000000E+01  0.100000000000E+01
  0.500000000000E+00  0.250000000000E+01  0.200000000000E+01  0.150000000000E+01  0.100000000000E+01  0.500000000000E+00  0.000000000000E+00
  0.250000000000E+01  0.200000000000E+01  0.150000000000E+01  0.100000000000E+01  0.500000000000E+00  0.000000000000E+00 -0.500000000000E+00
  0.250000000000E+01  0.200000000000E+01  0.150000000000E+01  0.100000000000E+01  0.500000000000E+00  0.000000000000E+00 -0.500000000000E+00
 -0.100000000000E+01  0.250000000000E+01  0.200000000000E+01  0.150000000000E+01  0.100000000000E+01  0.500000000000E+00  0.000000000000E+00
 -0.500000000000E+00 -0.100000000000E+01 -0.150000000000E+01  0.250000000000E+01  0.200000000000E+01  0.150000000000E+01  0.100000000000E+01
  0.500000000000E+00  0.000000000000E+00 -0.500000000000E+00 -0.100000000000E+01 -0.150000000000E+01 -0.200000000000E+01  0.250000000000E+01
  0.200000000000E+01  0.150000000000E+01  0.100000000000E+01  0.500000000000E+00  0.000000000000E+00 -0.500000000000E+00 -0.100000000000E+01
 -0.150000000000E+01 -0.200000000000E+01 -0.250000000000E+01  0.200000000000E+01  0.150000000000E+01  0.100000000000E+01  0.500000000000E+00
  0.000000000000E+00 -0.500000000000E+00 -0.100000000000E+01 -0.150000000000E+01 -0.200000000000E+01 -0.250000000000E+01  0.150000000000E+01
  0.100000000000E+01  0.500000000000E+00  0.000000000000E+00 -0.500000000000E+00 -0.100000000000E+01 -0.150000000000E+01 -0.200000000000E+01
 -0.250000000000E+01  0.100000000000E+01  0.500000000000E+00  0.000000000000E+00 -0.500000000000E+00 -0.100000000000E+01 -0.150000000000E+01
 -0.200000000000E+01 -0.250000000000E+01  0.500000000000E+00  0.000000000000E+00 -0.500000000000E+00 -0.100000000000E+01 -0.150000000000E+01
 -0.200000000000E+01 -0.250000000000E+01  0.000000000000E+00 -0.500000000000E+00 -0.100000000000E+01 -0.150000000000E+01 -0.200000000000E+01
 -0.250000000000E+01 -0.500000000000E+00 -0.100000000000E+01 -0.150000000000E+01 -0.200000000000E+01 -0.250000000000E+01 -0.100000000000E+01
 -0.150000000000E+01 -0.200000000000E+01 -0.250000000000E+01 -0.150000000000E+01 -0.200000000000E+01 -0.250000000000E+01 -0.200000000000E+01
 -0.250000000000E+01 -0.250000000000E+01
  0.000000000000E+00  0.500000000000E+00  0.000000000000E+00  0.100000000000E+01  0.500000000000E+00  0.000000000000E+00  0.150000000000E+01
  0.100000000000E+01  0.500000000000E+00  0.000000000000E+00  0.200000000000E+01  0.150000000000E+01  0.100000000000E+01  0.500000000000E+00
  0.000000000000E+00  0.250000000000E+01  0.200000000000E+01  0.150000000000E+01  0.100000000000E+01  0.500000000000E+00  0.000000000000E+00
  0.300000000000E+01  0.250000000000E+01  0.200000000000E+01  0.150000000000E+01  0.100000000000E+01  0.500000000000E+00  0.000000000000E+00
  0.350000000000E+01  0.300000000000E+01  0.250000000000E+01  0.200000000000E+01  0.150000000000E+01  0.100000000000E+01  0.500000000000E+00
  0.000000000000E+00  0.400000000000E+01  0.350000000000E+01  0.300000000000E+01  0.250000000000E+01  0.200000000000E+01  0.150000000000E+01
  0.100000000000E+01  0.500000000000E+00  0.000000000000E+00  0.450000000000E+01  0.400000000000E+01  0.350000000000E+01  0.300000000000E+01
  0.250000000000E+01  0.200000000000E+01  0.150000000000E+01  0.100000000000E+01  0.500000000000E+00  0.000000000000E+00  0.500000000000E+01
  0.450000000000E+01  0.400000000000E+01  0.350000000000E+01  0.300000000000E+01  0.250000000000E+01  0.200000000000E+01  0.150000000000E+01
  0.100000000000E+01  0.500000000000E+00  0.000000000000E+00  0.500000000000E+01  0.450000000000E+01  0.400000000000E+01  0.350000000000E+01
  0.300000000000E+01  0.250000000000E+01  0.200000000000E+01  0.150000000000E+01  0.100000000000E+01  0.500000000000E+00  0.500000000000E+01
  0.450000000000E+01  0.400000000000E+01  0.350000000000E+01  0.300000000000E+01  0.250000000000E+01  0.200000000000E+01  0.150000000000E+01
  0.100000000000E+01  0.500000000000E+01  0.450000000000E+01  0.400000000000E+01  0.350000000000E+01  0.300000000000E+01  0.250000000000E+01
  0.200000000000E+01  0.150000000000E+01  0.500000000000E+01  0.450000000000E+01  0.400000000000E+01  0.350000000000E+01  0.300000000000E+01
  0.250000000000E+01  0.200000000000E+01  0.500000000000E+01  0.450000000000E+01  0.400000000000E+01  0.350000000000E+01  0.300000000000E+01
  0.250000000000E+01  0.500000000000E+01  0.450000000000E+01  0.400000000000E+01  0.350000000000E+01  0.300000000000E+01  0.500000000000E+01
  0.450000000000E+01  0.400000000000E+01  0.350000000000E+01  0.500000000000E+01  0.450000000000E+01  0.400000000000E+01  0.500000000000E+01
  0.450000000000E+01  0.500000000000E+01
  0.821844528517E+00  0.995181600976E+00  0.821838669975E+00  0.995366835978E+00  0.995188728735E+00  0.821840483781E+00  0.995417088538E+00
  0.995367151187E+00  0.995188197701E+00  0.821839923533E+00  0.995636470540E+00  0.995418193769E+00  0.995367058831E+00  0.995189432087E+00
  0.821840466920E+00  0.995887481923E+00  0.995636704793E+00  0.995417992837E+00  0.995367251170E+00  0.995189560560E+00  0.821840428334E+00
  0.996208689882E+00  0.995887615302E+00  0.995636649318E+00  0.995418330221E+00  0.995367321314E+00  0.995189677928E+00  0.821840466889E+00
  0.996584882224E+00  0.996208674018E+00  0.995887593022E+00  0.995636694547E+00  0.995418380417E+00  0.995367300034E+00  0.995189560555E+00
  0.821839923576E+00  0.997054281523E+00  0.996584826428E+00  0.996208722217E+00  0.995887603268E+00  0.995636758464E+00  0.995418388989E+00
  0.995367321307E+00  0.995189432081E+00  0.821840483691E+00  0.997708649974E+00  0.997054205966E+00  0.996584894729E+00  0.996208649842E+00
  0.995887668498E+00  0.995636687178E+00  0.995418380412E+00  0.995367251164E+00  0.995188197680E+00  0.821838670089E+00  0.998594271321E+00
  0.997708575473E+00  0.997054283906E+00  0.996584806172E+00  0.996208743143E+00  0.995887596897E+00  0.995636758461E+00  0.995418330213E+00
  0.995367058816E+00  0.995188728722E+00  0.821844528625E+00  0.998594226048E+00  0.997708649509E+00  0.997054190221E+00  0.996584901745E+00
  0.996208636644E+00  0.995887668495E+00  0.995636694540E+00  0.995417992822E+00  0.995367151177E+00  0.995181600926E+00  0.998594270357E+00
  0.997708564768E+00  0.997054282951E+00  0.996584794696E+00  0.996208743140E+00  0.995887603261E+00  0.995636649313E+00  0.995418193749E+00
  0.995366836017E+00  0.998594220379E+00  0.997708646891E+00  0.997054181138E+00  0.996584901743E+00  0.996208649837E+00  0.995887593014E+00
  0.995636704780E+00  0.995417088540E+00  0.998594268369E+00  0.997708558520E+00  0.997054282949E+00  0.996584806167E+00  0.996208722212E+00
  0.995887615287E+00  0.995636470554E+00  0.998594217013E+00  0.997708646890E+00  0.997054190218E+00  0.996584894723E+00  0.996208674009E+00
  0.995887481925E+00  0.998594268369E+00  0.997708564765E+00  0.997054283902E+00  0.996584826419E+00  0.996208689883E+00  0.998594220378E+00
  0.997708649506E+00  0.997054205960E+00  0.996584882221E+00  0.998594270355E+00  0.997708575468E+00  0.997054281520E+00  0.998594226045E+00
  0.997708649971E+00  0.998594271319E+00
  0.000000000000E+00  0.504825076808E+00  0.000000000000E+00  0.504641611409E+00  0.504802883094E+00  0.000000000000E+00  0.504563525501E+00
  0.504642649096E+00  0.504803725020E+00  0.000000000000E+00  0.504342785117E+00  0.504562530822E+00  0.504642731077E+00  0.504802538047E+00
  0.000000000000E+00  0.504090190385E+00  0.504342582287E+00  0.504562709188E+00  0.504642549028E+00  0.504802462249E+00  0.000000000000E+00
  0.503764694387E+00  0.504090086089E+00  0.504342616364E+00  0.504562388538E+00  0.504642479038E+00  0.504802332935E+00  0.000000000000E+00
  0.503381009533E+00  0.503764716046E+00  0.504090085502E+00  0.504342578766E+00  0.504562323915E+00  0.504642501185E+00  0.504802462256E+00
  0.000000000000E+00  0.502906057113E+00  0.503381072034E+00  0.503764662322E+00  0.504090087614E+00  0.504342506728E+00  0.504562327021E+00
  0.504642479045E+00  0.504802538051E+00  0.000000000000E+00  0.502258663511E+00  0.502906122550E+00  0.503380995885E+00  0.503764733351E+00
  0.504090004803E+00  0.504342582605E+00  0.504562323920E+00  0.504642549035E+00  0.504803725046E+00  0.000000000000E+00  0.501466513531E+00
  0.502258729108E+00  0.502906053887E+00  0.503381087401E+00  0.503764638514E+00  0.504090088506E+00  0.504342506731E+00  0.504562388546E+00
  0.504642731092E+00  0.504802883111E+00  0.000000000000E+00  0.501466541602E+00  0.502258663620E+00  0.502906135170E+00  0.503380985887E+00
  0.503764743709E+00  0.504090004807E+00  0.504342578773E+00  0.504562709200E+00  0.504642649102E+00  0.504825076877E+00  0.501466514452E+00
  0.502258737683E+00  0.502906053247E+00  0.503381096588E+00  0.503764638516E+00  0.504090087621E+00  0.504342616370E+00  0.504562530837E+00
  0.504641611380E+00  0.501466546215E+00  0.502258665298E+00  0.502906142652E+00  0.503380985889E+00  0.503764733356E+00  0.504090085509E+00
  0.504342582302E+00  0.504563525491E+00  0.501466516228E+00  0.502258742672E+00  0.502906053249E+00  0.503381087406E+00  0.503764662327E+00
  0.504090086103E+00  0.504342785106E+00  0.501466548835E+00  0.502258665299E+00  0.502906135173E+00  0.503380995890E+00  0.503764716055E+00
  0.504090190383E+00  0.501466516229E+00  0.502258737686E+00  0.502906053891E+00  0.503381072042E+00  0.503764694386E+00  0.501466546216E+00
  0.502258663623E+00  0.502906122556E+00  0.503381009535E+00  0.501466514454E+00  0.502258729112E+00  0.502906057116E+00  0.501466541604E+00
  0.502258663512E+00  0.501466513533E+00
  0.000000000000E+00  0.000000000000E+00  0.000000000000E+00  0.000000000000E+00  0.236841288185E-05  0.000000000000E+00  0.000000000000E+00
 -0.829874049542E-07  0.200305943503E-06  0.000000000000E+00  0.000000000000E+00  0.200142095930E-06  0.410665601313E-07  0.207579849543E-06
  0.000000000000E+00  0.000000000000E+00  0.118506721168E-07  0.571628204742E-09  0.798592340293E-07  0.118369417093E-07  0.000000000000E+00
  0.000000000000E+00  0.127025868248E-07 -0.792099511036E-08  0.477476785444E-07  0.283816736406E-07  0.617132478831E-12  0.000000000000E+00
  0.000000000000E+00  0.229616004105E-08 -0.840374128688E-08  0.199038754627E-07 -0.813464939642E-08 -0.995563354226E-12 -0.118324706410E-07
  0.000000000000E+00  0.000000000000E+00  0.994644366822E-09 -0.569860505412E-08  0.787239984806E-08 -0.250980111969E-08 -0.361460678007E-12
 -0.283817107145E-07 -0.207576755406E-06  0.000000000000E+00  0.000000000000E+00  0.146523917030E-09 -0.389051207548E-08  0.259857106306E-08
 -0.493132414341E-08 -0.688311012295E-12  0.813400441783E-08 -0.798592413038E-07 -0.200298583828E-06  0.000000000000E+00  0.000000000000E+00
  0.724428316343E-10 -0.250708678153E-08  0.681114782436E-09 -0.283890376866E-08 -0.477237711701E-12  0.250831050161E-08 -0.477499163167E-07
 -0.410631832424E-07 -0.236839737765E-05  0.000000000000E+00 -0.408187615537E-10 -0.120893749791E-08 -0.377613546920E-10 -0.229834589801E-08
 -0.624770068453E-12  0.493051368633E-08 -0.199051589802E-07 -0.577382576368E-09  0.830028471331E-07  0.000000000000E+00  0.930205725644E-11
  0.102432013013E-09 -0.143163992474E-08 -0.458619417356E-12  0.283819121169E-08 -0.787340343089E-08  0.791916073825E-08 -0.200147520839E-06
  0.000000000000E+00  0.374742847843E-09 -0.660247346668E-09 -0.338712767318E-12  0.229782677686E-08 -0.259977344285E-08  0.840260233467E-08
 -0.118517768956E-07  0.000000000000E+00  0.740194671258E-10 -0.317290198136E-12  0.143155823132E-08 -0.682033449377E-09  0.569819571365E-08
 -0.127031056371E-07  0.000000000000E+00  0.157710218152E-11  0.660156622568E-09  0.371011886202E-10  0.389020668108E-08 -0.229686077291E-08
  0.000000000000E+00 -0.719189310352E-10 -0.103030862714E-09  0.250717010754E-08 -0.995146360645E-09  0.000000000000E+00 -0.371590760935E-09
  0.120891449930E-08 -0.147013466885E-09  0.000000000000E+00 -0.731689328752E-11 -0.728446888602E-10  0.000000000000E+00  0.432804999041E-10
  0.000000000000E+00  0.000000000000E+00
  0.000000000000E+00  0.371691784189E-03  0.000000000000E+00  0.618614176912E-04  0.370074019796E-03  0.000000000000E+00  0.326013305592E-04
  0.637228657879E-04  0.370836395923E-03  0.000000000000E+00  0.248028481572E-05  0.322783166119E-04  0.639269352931E-04  0.370608787902E-03
  0.000000000000E+00  0.147331320929E-05  0.247597538314E-05  0.323985563327E-04  0.640996543734E-04  0.370754660138E-03  0.000000000000E+00
 -0.211606883370E-05  0.140242917481E-05  0.254430613672E-05  0.323515131226E-04  0.641518690501E-04  0.370783004475E-03  0.000000000000E+00
 -0.132176778546E-04 -0.214861770410E-05  0.145100076694E-05  0.254763549411E-05  0.323747619538E-04  0.641604784706E-04  0.370754652492E-03
  0.000000000000E+00 -0.771572262849E-04 -0.132451993452E-04 -0.211864342416E-05  0.142077036159E-05  0.257405821362E-05  0.323663696889E-04
  0.641518688072E-04  0.370608808312E-03  0.000000000000E+00 -0.284779164284E-03 -0.771696975561E-04 -0.132224983544E-04 -0.213650215372E-05
  0.143985638773E-05  0.256792568621E-05  0.323747613851E-04  0.640996569514E-04  0.370836368333E-03  0.000000000000E+00 -0.843472359639E-03
 -0.284789451102E-03 -0.771591945044E-04 -0.132414872275E-04 -0.212050613117E-05  0.142510863708E-05  0.257405824950E-05  0.323515135725E-04
  0.639269322125E-04  0.370074074658E-03  0.000000000000E+00 -0.843497017252E-03 -0.284780355646E-03 -0.771682982582E-04 -0.132271704403E-04
 -0.213198163185E-05  0.143985614149E-05  0.254763514297E-05  0.323985547460E-04  0.637228599003E-04  0.371691816167E-03 -0.843472926904E-03
 -0.284790011418E-03 -0.771616539247E-04 -0.132400324091E-04 -0.212050639195E-05  0.142076980324E-05  0.254430483585E-05  0.322783105773E-04
  0.618613873864E-04 -0.843500458547E-03 -0.284782350348E-03 -0.771678486315E-04 -0.132271706039E-04 -0.213650256029E-05  0.145100023913E-05
  0.247597103884E-05  0.326013248977E-04 -0.843474401731E-03 -0.284790518655E-03 -0.771616541037E-04 -0.132414875336E-04 -0.211864414111E-05
  0.140242843299E-05  0.248028051416E-05 -0.843502544795E-03 -0.284782350542E-03 -0.771682986490E-04 -0.132224987384E-04 -0.214861831803E-05
  0.147331456711E-05 -0.843474402242E-03 -0.284790011874E-03 -0.771591951302E-04 -0.132451995535E-04 -0.211606932775E-05 -0.843500459570E-03
 -0.284780356267E-03 -0.771696979719E-04 -0.132176784610E-04 -0.843472928171E-03 -0.284789451558E-03 -0.771572270343E-04 -0.843497018905E-03
 -0.284779164956E-03 -0.843472360209E-03
  0.710208623093E+00  0.709503359071E+00  0.710204732901E+00  0.709652581632E+00  0.709510431235E+00  0.710205878803E+00  0.709707043459E+00
  0.709652910062E+00  0.709509949825E+00  0.710205588020E+00  0.709926022687E+00  0.709708145586E+00  0.709652810139E+00  0.709511155586E+00
  0.710205987564E+00  0.710176591468E+00  0.709926255310E+00  0.709707946488E+00  0.709652998529E+00  0.709511295881E+00  0.710205972590E+00
  0.710497282764E+00  0.710176722279E+00  0.709926201235E+00  0.709708281411E+00  0.709653067863E+00  0.709511410114E+00  0.710205987541E+00
  0.710872916297E+00  0.710497266476E+00  0.710176702449E+00  0.709926245055E+00  0.709708333855E+00  0.709653044719E+00  0.709511295875E+00
  0.710205588047E+00  0.711341697150E+00  0.710872859745E+00  0.710497315050E+00  0.710176710243E+00  0.709926310133E+00  0.709708339711E+00
  0.709653067857E+00  0.709511155582E+00  0.710205878738E+00  0.711995381229E+00  0.711341622491E+00  0.710872928826E+00  0.710497242274E+00
  0.710176777832E+00  0.709926237788E+00  0.709708333849E+00  0.709652998522E+00  0.709509949803E+00  0.710204732981E+00  0.712880391684E+00
  0.711995307558E+00  0.711341699522E+00  0.710872839504E+00  0.710497336079E+00  0.710176703889E+00  0.709926310130E+00  0.709708281403E+00
  0.709652810123E+00  0.709510431227E+00  0.710208623179E+00  0.712880348711E+00  0.711995380742E+00  0.711341606780E+00  0.710872935794E+00
  0.710497228973E+00  0.710176777828E+00  0.709926245048E+00  0.709707946474E+00  0.709652910051E+00  0.709503359026E+00  0.712880390739E+00
  0.711995296867E+00  0.711341698558E+00  0.710872828091E+00  0.710497336077E+00  0.710176710236E+00  0.709926201229E+00  0.709708145566E+00
  0.709652581670E+00  0.712880343027E+00  0.711995378126E+00  0.711341597709E+00  0.710872935791E+00  0.710497242269E+00  0.710176702440E+00
  0.709926255296E+00  0.709707043461E+00  0.712880388763E+00  0.711995290628E+00  0.711341698556E+00  0.710872839500E+00  0.710497315045E+00
  0.710176722264E+00  0.709926022701E+00  0.712880339643E+00  0.711995378125E+00  0.711341606776E+00  0.710872928821E+00  0.710497266467E+00
  0.710176591470E+00  0.712880388763E+00  0.711995296864E+00  0.711341699518E+00  0.710872859737E+00  0.710497282765E+00  0.712880343026E+00
  0.711995380739E+00  0.711341622485E+00  0.710872916293E+00  0.712880390737E+00  0.711995307553E+00  0.711341697147E+00  0.712880348708E+00
  0.711995381226E+00  0.712880391681E+00
  0.000000000000E+00  0.505301934634E+00  0.000000000000E+00  0.505112055195E+00  0.505279010010E+00  0.000000000000E+00  0.505027263657E+00
  0.505113057175E+00  0.505279889895E+00  0.000000000000E+00  0.504784074684E+00  0.505026156278E+00  0.505113151386E+00  0.505278585654E+00
  0.000000000000E+00  0.504505829035E+00  0.504783848358E+00  0.505026354683E+00  0.505112950946E+00  0.505278492552E+00  0.000000000000E+00
  0.504147550817E+00  0.504505711974E+00  0.504783887627E+00  0.505026000157E+00  0.505112874020E+00  0.505278352256E+00  0.000000000000E+00
  0.503725542183E+00  0.504147574257E+00  0.504505712787E+00  0.504783845882E+00  0.505025929550E+00  0.505112899026E+00  0.505278492559E+00
  0.000000000000E+00  0.503202884190E+00  0.503725610663E+00  0.504147515455E+00  0.504505714728E+00  0.504783766848E+00  0.505025932749E+00
  0.505112874027E+00  0.505278585659E+00  0.000000000000E+00  0.502489243181E+00  0.503202957009E+00  0.503725527247E+00  0.504147594045E+00
  0.504505624364E+00  0.504783850441E+00  0.505025929556E+00  0.505112950954E+00  0.505279889922E+00  0.000000000000E+00  0.501608323520E+00
  0.502489316050E+00  0.503202880725E+00  0.503725628093E+00  0.504147489463E+00  0.504505716263E+00  0.504783766852E+00  0.505026000165E+00
  0.505113151402E+00  0.505279010027E+00  0.000000000000E+00  0.501608355388E+00  0.502489243346E+00  0.503202971220E+00  0.503725516547E+00
  0.504147605790E+00  0.504505624367E+00  0.504783845890E+00  0.505026354696E+00  0.505113057183E+00  0.505301934706E+00  0.501608324532E+00
  0.502489325706E+00  0.503202880185E+00  0.503725638429E+00  0.504147489465E+00  0.504505714735E+00  0.504783887633E+00  0.505026156295E+00
  0.505112055162E+00  0.501608360584E+00  0.502489245289E+00  0.503202979623E+00  0.503725516549E+00  0.504147594050E+00  0.504505712795E+00
  0.504783848374E+00  0.505027263647E+00  0.501608326507E+00  0.502489331325E+00  0.503202880187E+00  0.503725628098E+00  0.504147515460E+00
  0.504505711990E+00  0.504784074672E+00  0.501608363553E+00  0.502489245291E+00  0.503202971223E+00  0.503725527253E+00  0.504147574267E+00
  0.504505829034E+00  0.501608326508E+00  0.502489325709E+00  0.503202880729E+00  0.503725610672E+00  0.504147550816E+00  0.501608360585E+00
  0.502489243349E+00  0.503202957015E+00  0.503725542186E+00  0.501608324534E+00  0.502489316054E+00  0.503202884193E+00  0.501608355390E+00
  0.502489243183E+00  0.501608323522E+00
  0.120982988610E+01  0.998114014291E+00  0.120983188354E+01  0.998138152059E+00  0.998116814478E+00  0.120983116547E+01  0.998164359728E+00
  0.998138297915E+00  0.998116669841E+00  0.120983149487E+01  0.998252335236E+00  0.998164801527E+00  0.998138249984E+00  0.998117128050E+00
  0.120983137557E+01  0.998352972704E+00  0.998252427466E+00  0.998164722995E+00  0.998138322084E+00  0.998117196561E+00  0.120983140686E+01
  0.998481749830E+00  0.998353022885E+00  0.998252407050E+00  0.998164855729E+00  0.998138349265E+00  0.998117239548E+00  0.120983137557E+01
  0.998632530522E+00  0.998481742841E+00  0.998353017343E+00  0.998252423319E+00  0.998164879154E+00  0.998138338051E+00  0.998117196558E+00
  0.120983149485E+01  0.998820620367E+00  0.998632506990E+00  0.998481762794E+00  0.998353018029E+00  0.998252450743E+00  0.998164878796E+00
  0.998138349263E+00  0.998117128050E+00  0.120983116549E+01  0.999082782079E+00  0.998820591226E+00  0.998632535594E+00  0.998481733059E+00
  0.998353047652E+00  0.998252420490E+00  0.998164879151E+00  0.998138322081E+00  0.998116669831E+00  0.120983188351E+01  0.999437486295E+00
  0.999082753307E+00  0.998820621310E+00  0.998632498853E+00  0.998481771373E+00  0.998353015484E+00  0.998252450742E+00  0.998164855726E+00
  0.998138249979E+00  0.998116814479E+00  0.120982988609E+01  0.999437471360E+00  0.999082781862E+00  0.998820584938E+00  0.998632538350E+00
  0.998481727596E+00  0.998353047651E+00  0.998252423316E+00  0.998164722989E+00  0.998138297910E+00  0.998114014278E+00  0.999437485935E+00
  0.999082749025E+00  0.998820620913E+00  0.998632494319E+00  0.998481771372E+00  0.998353018026E+00  0.998252407048E+00  0.998164801519E+00
  0.998138152075E+00  0.999437469064E+00  0.999082780813E+00  0.998820581301E+00  0.998632538349E+00  0.998481733057E+00  0.998353017340E+00
  0.998252427461E+00  0.998164359729E+00  0.999437485154E+00  0.999082746527E+00  0.998820620912E+00  0.998632498851E+00  0.998481762792E+00
  0.998353022879E+00  0.998252335241E+00  0.999437467689E+00  0.999082780812E+00  0.998820584936E+00  0.998632535591E+00  0.998481742837E+00
  0.998352972704E+00  0.999437485154E+00  0.999082749024E+00  0.998820621309E+00  0.998632506986E+00  0.998481749830E+00  0.999437469064E+00
  0.999082781861E+00  0.998820591224E+00  0.998632530521E+00  0.999437485934E+00  0.999082753305E+00  0.998820620366E+00  0.999437471359E+00
  0.999082782078E+00  0.999437486294E+00
        67        57        46        56
        57        47        37        46
        47        38        29        37
        38        30        22        29
        30        23        16        22
        23        17        11        16
        17        12         7        11
        12         8         4         7
         8         5         2         4
         5         3         1         2
        77        68        57        67
        68        58        47        57
        58        48        38        47
        48        39        30        38
        39        31        23        30
        31        24        17        23
        24        18        12        17
        18        13         8        12
        13         9         5         8
         9         6         3         5
        86        78        68        77
        78        69        58        68
        69        59        48        58
        59        49        39        48
        49        40        31        39
        40        32        24        31
        32        25        18        24
        25        19        13        18
        19        14         9        13
        14        10         6         9
        94        87        78        86
        87        79        69        78
        79        70        59        69
        70        60        49        59
        60        50        40        49
        50        41        32        40
        41        33        25        32
        33        26        19        25
        26        20        14        19
        20        15        10        14
       101        95        87        94
        95        88        79        87
        88        80        70        79
        80        71        60        70
        71        61        50        60
        61        51        41        50
        51        42        33        41
        42        34        26        33
        34        27        20        26
        27        21        15        20
       107       102        95       101
       102        96        88        95
        96        89        80        88
        89        81        71        80
        81        72        61        71
        72        62        51        61
        62        52        42        51
        52        43        34        42
        43        35        27        34
        35        28        21        27
       112       108       102       107
       108       103        96       102
       103        97        89        96
        97        90        81        89
        90        82        72        81
        82        73        62        72
        73        63        52        62
        63        53        43        52
        53        44        35        43
        44        36        28        35
       116       113       108       112
       113       109       103       108
       109       104        97       103
       104        98        90        97
        98        91        82        90
        91        83        73        82
        83        74        63        73
        74        64        53        63
        64        54        44        53
        54        45        36        44
       119       117       113       116
       117       114       109       113
       114       110       104       109
       110       105        98       104
       105        99        91        98
        99        92        83        91
        92        84        74        83
        84        75        64        74
        75        65        54        64
        65        55        45        54
       121       120       117       119
       120       118       114       117
       118       115       110       114
       115       111       105       110
       111       106        99       105
       106       100        92        99
       100        93        84        92
        93        85        75        84
        85        76        65        75
        76        66        55        65
zone t="boundary 2 bc-2", solutiontime= 0.9000000E+02, strandid=1002, i=121, j=100, f=feblock
  0.000000000000E+00  0.500000000000E+00  0.000000000000E+00  0.100000000000E+01  0.500000000000E+00  0.000000000000E+00  0.150000000000E+01
  0.100000000000E+01  0.500000000000E+00  0.000000000000E+00  0.200000000000E+01  0.150000000000E+01  0.100000000000E+01  0.500000000000E+00
  0.000000000000E+00  0.250000000000E+01  0.200000000000E+01  0.150000000000E+01  0.100000000000E+01  0.500000000000E+00  0.000000000000E+00
  0.300000000000E+01  0.250000000000E+01  0.200000000000E+01  0.150000000000E+01  0.100000000000E+01  0.500000000000E+00  0.000000000000E+00
  0.350000000000E+01  0.300000000000E+01  0.250000000000E+01  0.200000000000E+01  0.150000000000E+01  0.100000000000E+01  0.500000000000E+00
  0.000000000000E+00  0.400000000000E+01  0.350000000000E+01  0.300000000000E+01  0.250000000000E+01  0.200000000000E+01  0.150000000000E+01
  0.100000000000E+01  0.500000000000E+00  0.000000000000E+00  0.450000000000E+01  0.400000000000E+01  0.350000000000E+01  0.300000000000E+01
  0.250000000000E+01  0.200000000000E+01  0.150000000000E+01  0.100000000000E+01  0.500000000000E+00  0.000000000000E+00  0.500000000000E+01