# vtk DataFile Version 2.0
FUN3D:global_image_vtk
ASCII
DATASET UNSTRUCTURED_GRID
POINTS 1331 double
    0.0000000000000000E+00    0.2500000000000000E+01    0.0000000000000000E+00
    0.5000000000000000E+00    0.2500000000000000E+01    0.0000000000000000E+00
    0.1000000000000000E+01    0.2500000000000000E+01    0.0000000000000000E+00
    0.1500000000000000E+01    0.2500000000000000E+01    0.0000000000000000E+00
    0.2000000000000000E+01    0.2500000000000000E+01    0.0000000000000000E+00
    0.2500000000000000E+01    0.2500000000000000E+01    0.0000000000000000E+00
    0.3000000000000000E+01    0.2500000000000000E+01    0.0000000000000000E+00
    0.3500000000000000E+01    0.2500000000000000E+01    0.0000000000000000E+00
    0.4000000000000000E+01    0.2500000000000000E+01    0.0000000000000000E+00
    0.4500000000000000E+01    0.2500000000000000E+01    0.0000000000000000E+00
    0.5000000000000000E+01    0.2500000000000000E+01    0.0000000000000000E+00
    0.0000000000000000E+00    0.2500000000000000E+01    0.4999999999999982E+00
    0.4999999999999998E+00    0.2500000000000000E+01    0.4999999999999984E+00
    0.9999999999999998E+00    0.2500000000000000E+01    0.4999999999999987E+00
    0.1500000000000000E+01    0.2500000000000000E+01    0.4999999999999989E+00
    0.2000000000000000E+01    0.2500000000000000E+01    0.4999999999999991E+00
    0.2500000000000000E+01    0.2500000000000000E+01    0.4999999999999993E+00
    0.3000000000000000E+01    0.2500000000000000E+01    0.4999999999999996E+00
    0.3500000000000000E+01    0.2500000000000000E+01    0.4999999999999998E+00
    0.4000000000000000E+01    0.2500000000000000E+01    0.5000000000000000E+00
    0.4500000000000002E+01    0.2500000000000000E+01    0.5000000000000002E+00
    0.5000000000000000E+01    0.2500000000000000E+01    0.5000000000000004E+00
    0.0000000000000000E+00    0.2500000000000000E+01    0.1000000000000001E+01
    0.4999999999999997E+00    0.2500000000000000E+01    0.1000000000000001E+01
    0.1000000000000000E+01    0.2500000000000000E+01    0.1000000000000001E+01
    0.1500000000000000E+01    0.2500000000000000E+01    0.1000000000000001E+01
    0.2000000000000000E+01    0.2500000000000000E+01    0.1000000000000001E+01
    0.2500000000000000E+01    0.2500000000000000E+01    0.1000000000000001E+01
    0.3000000000000000E+01    0.2500000000000000E+01    0.1000000000000001E+01
    0.3500000000000000E+01    0.2500000000000000E+01    0.1000000000000001E+01
    0.4000000000000000E+01    0.2500000000000000E+01    0.1000000000000001E+01
    0.4499999999999999E+01    0.2500000000000000E+01    0.1000000000000001E+01
    0.5000000000000000E+01    0.2500000000000000E+01    0.1000000000000001E+01
    0.0000000000000000E+00    0.2500000000000000E+01    0.1499999999999999E+01
    0.4999999999999994E+00    0.2500000000000000E+01    0.1499999999999999E+01
    0.1000000000000000E+01    0.2500000000000000E+01    0.1499999999999999E+01
    0.1500000000000000E+01    0.2500000000000000E+01    0.1499999999999999E+01
    0.2000000000000001E+01    0.2500000000000000E+01    0.1499999999999999E+01
    0.2500000000000000E+01    0.2500000000000000E+01    0.1499999999999999E+01
    0.2999999999999999E+01    0.2500000000000000E+01    0.1499999999999999E+01
    0.3500000000000000E+01    0.2500000000000000E+01    0.1499999999999999E+01
    0.4000000000000001E+01    0.2500000000000000E+01    0.1499999999999999E+01
    0.4500000000000001E+01    0.2500000000000000E+01    0.1499999999999999E+01
    0.5000000000000000E+01    0.2500000000000000E+01    0.1499999999999999E+01
    0.0000000000000000E+00    0.2500000000000000E+01    0.2000000000000002E+01
    0.4999999999999992E+00    0.2500000000000000E+01    0.2000000000000001E+01
    0.1000000000000000E+01    0.2500000000000000E+01    0.2000000000000001E+01
    0.1500000000000000E+01    0.2500000000000000E+01    0.2000000000000001E+01
    0.2000000000000001E+01    0.2500000000000000E+01    0.2000000000000001E+01
    0.2500000000000000E+01    0.2500000000000000E+01    0.2000000000000001E+01
    0.2999999999999999E+01    0.2500000000000000E+01    0.2000000000000000E+01
    0.3500000000000000E+01    0.2500000000000000E+01    0.2000000000000000E+01
    0.4000000000000000E+01    0.2500000000000000E+01    0.2000000000000000E+01
    0.4500000000000000E+01    0.2500000000000000E+01    0.2000000000000000E+01
    0.5000000000000000E+01    0.2500000000000000E+01    0.2000000000000000E+01
    0.0000000000000000E+00    0.2500000000000000E+01    0.2500000000000000E+01
    0.4999999999999991E+00    0.2500000000000000E+01    0.2500000000000000E+01
    0.1000000000000000E+01    0.2500000000000000E+01    0.2500000000000000E+01
    0.1500000000000000E+01    0.2500000000000000E+01    0.2500000000000000E+01
    0.2000000000000001E+01    0.2500000000000000E+01    0.2500000000000000E+01
    0.2500000000000000E+01    0.2500000000000000E+01    0.2500000000000000E+01
    0.2999999999999999E+01    0.2500000000000000E+01    0.2500000000000000E+01
    0.3500000000000001E+01    0.2500000000000000E+01    0.2500000000000000E+01
    0.4000000000000000E+01    0.2500000000000000E+01    0.2500000000000000E+01
    0.4500000000000001E+01    0.2500000000000000E+01    0.2500000000000000E+01
    0.5000000000000000E+01    0.2500000000000000E+01    0.2500000000000000E+01
    0.0000000000000000E+00    0.2500000000000000E+01    0.2999999999999998E+01
    0.4999999999999989E+00    0.2500000000000000E+01    0.2999999999999998E+01
    0.1000000000000000E+01    0.2500000000000000E+01    0.2999999999999999E+01
    0.1499999999999999E+01    0.2500000000000000E+01    0.2999999999999999E+01
    0.2000000000000001E+01    0.2500000000000000E+01    0.2999999999999999E+01
    0.2500000000000000E+01    0.2500000000000000E+01    0.2999999999999999E+01
    0.2999999999999999E+01    0.2500000000000000E+01    0.2999999999999999E+01
    0.3500000000000001E+01    0.2500000000000000E+01    0.3000000000000000E+01
    0.4000000000000000E+01    0.2500000000000000E+01    0.3000000000000000E+01
    0.4500000000000001E+01    0.2500000000000000E+01    0.3000000000000000E+01
    0.5000000000000000E+01    0.2500000000000000E+01    0.3000000000000000E+01
    0.0000000000000000E+00    0.2500000000000000E+01    0.3500000000000001E+01
    0.4999999999999988E+00    0.2500000000000000E+01    0.3500000000000001E+01
    0.1000000000000001E+01    0.2500000000000000E+01    0.3500000000000001E+01
    0.1499999999999999E+01    0.2500000000000000E+01    0.3500000000000001E+01
    0.2000000000000001E+01    0.2500000000000000E+01    0.3500000000000001E+01
    0.2500000000000000E+01    0.2500000000000000E+01    0.3500000000000001E+01
    0.2999999999999999E+01    0.2500000000000000E+01    0.3500000000000001E+01
    0.3500000000000001E+01    0.2500000000000000E+01    0.3500000000000001E+01
    0.4000000000000001E+01    0.2500000000000000E+01    0.3500000000000001E+01
    0.4500000000000001E+01    0.2500000000000000E+01    0.3500000000000001E+01
    0.5000000000000000E+01    0.2500000000000000E+01    0.3500000000000001E+01
    0.0000000000000000E+00    0.2500000000000000E+01    0.3999999999999999E+01
    0.4999999999999986E+00    0.2500000000000000E+01    0.4000000000000000E+01
    0.1000000000000001E+01    0.2500000000000000E+01    0.3999999999999999E+01
    0.1499999999999999E+01    0.2500000000000000E+01    0.3999999999999999E+01
    0.2000000000000001E+01    0.2500000000000000E+01    0.3999999999999999E+01
    0.2500000000000000E+01    0.2500000000000000E+01    0.3999999999999999E+01
    0.2999999999999998E+01    0.2500000000000000E+01    0.3999999999999999E+01
    0.3500000000000001E+01    0.2500000000000000E+01    0.3999999999999999E+01
    0.3999999999999999E+01    0.2500000000000000E+01    0.3999999999999999E+01
    0.4500000000000003E+01    0.2500000000000000E+01    0.3999999999999999E+01
    0.5000000000000000E+01    0.2500000000000000E+01    0.3999999999999999E+01
    0.0000000000000000E+00    0.2500000000000000E+01    0.4500000000000002E+01
    0.4999999999999984E+00    0.2500000000000000E+01    0.4500000000000002E+01
    0.1000000000000001E+01    0.2500000000000000E+01    0.4500000000000001E+01
    0.1499999999999999E+01    0.2500000000000000E+01    0.4500000000000003E+01
    0.2000000000000002E+01    0.2500000000000000E+01    0.4500000000000001E+01
    0.2500000000000000E+01    0.2500000000000000E+01    0.4500000000000001E+01
    0.2999999999999998E+01    0.2500000000000000E+01    0.4500000000000001E+01
    0.3500000000000001E+01    0.2500000000000000E+01    0.4499999999999999E+01
    0.3999999999999999E+01    0.2500000000000000E+01    0.4499999999999999E+01
    0.4500000000000002E+01    0.2500000000000000E+01    0.4500000000000000E+01
    0.5000000000000000E+01    0.2500000000000000E+01    0.4500000000000000E+01
    0.0000000000000000E+00    0.2500000000000000E+01    0.5000000000000000E+01
    0.4999999999999982E+00    0.2500000000000000E+01    0.5000000000000000E+01
    0.1000000000000001E+01    0.2500000000000000E+01    0.5000000000000000E+01
    0.1499999999999999E+01    0.2500000000000000E+01    0.5000000000000000E+01
    0.2000000000000002E+01    0.2500000000000000E+01    0.5000000000000000E+01
    0.2500000000000000E+01    0.2500000000000000E+01    0.5000000000000000E+01
    0.2999999999999998E+01    0.2500000000000000E+01    0.5000000000000000E+01
    0.3500000000000001E+01    0.2500000000000000E+01    0.5000000000000000E+01
    0.3999999999999999E+01    0.2500000000000000E+01    0.5000000000000000E+01
    0.4500000000000002E+01    0.2500000000000000E+01    0.5000000000000000E+01
    0.5000000000000000E+01    0.2500000000000000E+01    0.5000000000000000E+01
    0.0000000000000000E+00    0.2000000000000000E+01    0.0000000000000000E+00
    0.5000000000000000E+00    0.2000000000000000E+01    0.0000000000000000E+00
    0.1000000000000000E+01    0.2000000000000000E+01    0.0000000000000000E+00
    0.1500000000000000E+01    0.2000000000000000E+01    0.0000000000000000E+00
[...]
POINT_DATA 1331
SCALARS rho double 1
LOOKUP_TABLE default
   0.1822762454055697E+01
   0.8026030589814985E+00
   0.8627013948500329E+00
   0.1000960560869458E+01
   0.1006722683115356E+01
   0.9914317635757227E+00
   0.9931142588288308E+00
   0.9995031300491576E+00
   0.9929744687054962E+00
   0.9054534431686455E+00
   0.5956552943118176E+00
   0.1117290222282911E+01
   0.9418167387942593E+00
   0.9964315160229574E+00
   0.1001298617665165E+01
   0.1003960742127740E+01
   0.1001222484092614E+01
   0.1001142144739892E+01
   0.9985206089675448E+00
   0.9960948710488866E+00
   0.9881651869860845E+00
   0.9977383752937260E+00
   0.1052197926789871E+01
   0.9794794140671711E+00
   0.9764874091276892E+00
   0.9872485662453463E+00
   0.9931425688650610E+00
   0.9919512692404513E+00
   0.9921139242274328E+00
   0.9930155248589269E+00
   0.9901671496332534E+00
   0.9930096777153690E+00
   0.9770197561714468E+00
   0.1026238277915797E+01
   0.1000533401271051E+01
   0.9967206350781881E+00
   0.9938543484341817E+00
   0.9946320615210285E+00
   0.9941487168830735E+00
   0.9942874947140534E+00
   0.9947630672753829E+00
   0.9954434680417913E+00
   0.1000067775058411E+01
   0.1002022105377256E+01
   0.1009869804675910E+01
   0.1002183358845588E+01
   0.9979430330239983E+00
   0.9968537158005973E+00
   0.9971748895849162E+00
   0.9969086832603770E+00
   0.9969734627696824E+00
   0.9976327015737511E+00
   0.9977383764977441E+00
   0.1000275383574245E+01
   0.1001435766764354E+01
   0.1004081927950592E+01
   0.1002178074896645E+01
   0.9998972950821725E+00
   0.9983536314536816E+00
   0.9978977140676856E+00
   0.9976584560188148E+00
   0.9977143341310413E+00
   0.9983072120983858E+00
   0.9988719835608511E+00
   0.1000449836556108E+01
   0.1001714601725625E+01
   0.1001519693311043E+01
   0.1001080874259195E+01
   0.9997884894669189E+00
   0.9989904203162441E+00
   0.9985777338261360E+00
   0.9983822032173106E+00
   0.9983730774320361E+00
   0.9987508799183257E+00
   0.9991143739726115E+00
   0.9999713994877062E+00
   0.1000803061734173E+01
   0.1000684160747108E+01
   0.1000637596653651E+01
   0.9999241157678913E+00
   0.9993464706138093E+00
   0.9989599017797471E+00
   0.9987930837252817E+00
   0.9987841221054695E+00
   0.9990514828384057E+00
   0.9993825691060220E+00
   0.9999004783699806E+00
   0.1000437443728092E+01
   0.1000261311794350E+01
   0.1000271672042750E+01
   0.9998804772197650E+00
   0.9995372446040041E+00
   0.9992436525681530E+00
   0.9990926129914592E+00
   0.9990540055705005E+00
   0.9992056092130295E+00
   0.9994407526160630E+00
   0.9997888529684834E+00
   0.1000183471478387E+01
   0.1000107349346202E+01
   0.1000131857758338E+01
   0.9999058959145499E+00
   0.9996615304942232E+00
   0.9994215393403941E+00
   0.9992748255904358E+00
   0.9992176119326969E+00
   0.9993005850247187E+00
   0.9994768878140319E+00
   0.9997407571313573E+00
   0.1000059280093730E+01
   0.1000043857852530E+01
   0.1000094372794581E+01
   0.9999630524537364E+00
   0.9997644439808013E+00
   0.9995381244516393E+00
   0.9993657350950488E+00
   0.9992673724857455E+00
   0.9992889432157261E+00
   0.9994183306867738E+00
   0.9996539463764775E+00
   0.9999695368880318E+00
   0.1820758029279368E+01
   0.8020723668316239E+00
   0.8628271697318569E+00
   0.1000983111437517E+01
   0.1006749140002165E+01
   0.9914428307400682E+00
   0.9931125047868703E+00
   0.9994730347058477E+00
   0.9929362450358924E+00
   0.9054305886465503E+00
   0.5955704894079555E+00
   0.1114389313427082E+01
   0.9411031244494292E+00
   0.9974157264111499E+00
   0.1001390201212863E+01
   0.1004151757535822E+01
   0.1001346046746816E+01
   0.1001309319087311E+01
   0.9985787712726603E+00
   0.9960226318072494E+00
   0.9879366355847324E+00
   0.9980229988935108E+00
   0.1051858268250772E+01
   0.9794207979759320E+00
   0.9767238605952039E+00
   0.9872385253800916E+00
   0.9931594874978971E+00
   0.9919560211081876E+00
   0.9921166553752184E+00
   0.9930032031466322E+00
   0.9901524278791155E+00
   0.9930912581456354E+00
   0.9772955173445822E+00
   0.1026026878071252E+01
   0.1000419885541764E+01
   0.9968283385888668E+00
   0.9939033159358842E+00
   0.9946884813953701E+00
   0.9941918264635963E+00
   0.9943314594384655E+00
   0.9947905197680131E+00
   0.9954515280366629E+00
   0.1000037071254676E+01
   0.1002009463215693E+01
   0.1009801249260157E+01
   0.1002085007155467E+01
   0.9979252690830062E+00
   0.9968456360354422E+00
   0.9971812456965755E+00
   0.9969162372260518E+00
   0.9969829449848530E+00
   0.9976388646715436E+00
   0.9977422917756896E+00
   0.1000267605587160E+01
   0.1001434571011486E+01
   0.1004061318131776E+01
   0.1002133586947585E+01
   0.9998730730962092E+00
   0.9983364558945786E+00
   0.9978898378189552E+00
   0.9976544493344242E+00
   0.9977134277280392E+00
   0.9983051022047745E+00
   0.9988680825355852E+00
   0.1000439135539557E+01
   0.1001704881461490E+01
   0.1001511465814688E+01
   0.1001060058832885E+01
   0.9997700916981515E+00
   0.9989751151020739E+00
   0.9985670440674047E+00
   0.9983744778637135E+00
   0.9983679361448196E+00
   0.9987465728706988E+00
   0.9991108357839753E+00
   0.9999660298020913E+00
   0.1000796673813846E+01
   0.1000679982574137E+01
   0.1000627992631550E+01
   0.9999129069769115E+00
   0.9993353464419870E+00
   0.9989503556985617E+00
   0.9987850171667401E+00
   0.9987775201351833E+00
   0.9990455537632995E+00
   0.9993774476980851E+00
   0.9998960627797788E+00
   0.1000434220826499E+01
   0.1000258807519430E+01
   0.1000266665137778E+01
   0.9998736504017112E+00
   0.9995295459477175E+00
   0.9992360198758513E+00
   0.9990854031898675E+00
   0.9990474788586732E+00
   0.9991996110544149E+00
   0.9994354199987160E+00
   0.9997848361727379E+00
   0.1000181239797707E+01
   0.1000105924977515E+01
   0.1000129076346693E+01
   0.9999016106703849E+00
   0.9996560968526463E+00
   0.9994154844208345E+00
   0.9992685296883895E+00
   0.9992114115342442E+00
   0.9992946491245573E+00
   0.9994715131804018E+00
   0.9997367963540448E+00
   0.1000057227300930E+01
   0.1000043170538649E+01
   0.1000092561415081E+01
   0.9999598958902634E+00
   0.9997600440488346E+00
   0.9995328167200246E+00
   0.9993598903498079E+00
   0.9992613601478990E+00
   0.9992830411055192E+00
   0.9994127836769265E+00
   0.9996496341960814E+00
   0.9999671936299679E+00
   0.1820405260989471E+01
   0.8021939174173488E+00
   0.8629126524557015E+00
   0.1000915289876312E+01
   0.1006699795950771E+01
   0.9914136653296026E+00
   0.9930938357220631E+00
   0.9994629726051895E+00
   0.9929438840313909E+00
   0.9054374424609472E+00
   0.5955314909480671E+00
   0.1114381590487484E+01
   0.9414700500670447E+00
   0.9974544252156508E+00
   0.1001334532708655E+01
   0.1004137606215636E+01
   0.1001334857503718E+01
   0.1001307739439524E+01
   0.9985948151474238E+00
   0.9960704128748772E+00
   0.9880443699379143E+00
   0.9981228573242937E+00
   0.1051925836165688E+01
   0.9795446187273353E+00
   0.9767359304540049E+00
   0.9872155267756502E+00
   0.9931521529909809E+00
   0.9919496057316761E+00
   0.9921169120346965E+00
   0.9930104518622191E+00
   0.9901699749452673E+00
   0.9931189873430670E+00
   0.9773067072739637E+00
   0.1026044220815244E+01
   0.1000500211038566E+01
   0.9968484343876279E+00
   0.9938899607717082E+00
   0.9946742823376672E+00
   0.9941757910278733E+00
   0.9943186927115545E+00
   0.9947838985973754E+00
   0.9954540378820380E+00
   0.1000057015842318E+01
   0.1002035174417046E+01
   0.1009812780074719E+01
   0.1002129618298753E+01
   0.9979524670301045E+00
   0.9968542233213823E+00
   0.9971835725668649E+00
   0.9969138772878436E+00
   0.9969800802637085E+00
   0.9976377068991292E+00
   0.9977435018729598E+00
   0.1000274359873109E+01
   0.1001442302593293E+01
   0.1004067816326243E+01
   0.1002156341526535E+01
   0.9998918857759748E+00
   0.9983461849857549E+00
   0.9978947932034630E+00
   0.9976556732608874E+00
   0.9977133011063236E+00
   0.9983055115079360E+00
   0.9988701684935971E+00
   0.1000444370596285E+01
   0.1001710959046652E+01
   0.1001515978525892E+01
   0.1001072253102762E+01
   0.9997835681733381E+00
   0.9989851735011837E+00
   0.9985740936450049E+00
   0.9983787397379642E+00
   0.9983705605637850E+00
   0.9987485037223699E+00
   0.9991126395660213E+00
   0.9999687924970968E+00
   0.1000800155092480E+01
   0.1000682918141969E+01
   0.1000634452484066E+01
   0.9999213013623434E+00
   0.9993431414480725E+00
   0.9989569963895006E+00
   0.9987901881394353E+00
   0.9987815939284741E+00
   0.9990489787313453E+00
   0.9993803918518183E+00
   0.9998985635998638E+00
   0.1000435935173547E+01
   0.1000260725228377E+01
   0.1000270373280699E+01
   0.9998790058769207E+00
   0.9995353558348816E+00
   0.9992416990751205E+00
   0.9990905113056781E+00
   0.9990519739308241E+00
   0.9992035819302180E+00
   0.9994388687824375E+00
   0.9997873301736196E+00
   0.1000182424429826E+01
   0.1000107058939194E+01
   0.1000131261753713E+01
   0.9999050791833429E+00
   0.9996603896583480E+00
   0.9994202070456758E+00
   0.9992732837209455E+00
   0.9992159793194092E+00
   0.9992988962313578E+00
   0.9994752568366292E+00
   0.9997394536856445E+00
   0.1000058501495217E+01
   0.1000043725868787E+01
   0.1000094017225908E+01
   0.9999624958811255E+00
   0.9997636161815681E+00
   0.9995370657297473E+00
   0.9993644442580217E+00
   0.9992659223315539E+00
   0.9992874010677268E+00
   0.9994167922160019E+00
   0.9996526751992406E+00
   0.9999688083961042E+00
   0.1820473677384743E+01
   0.8023248060459190E+00
   0.8630616925338354E+00
   0.1000925406827691E+01
   0.1006685453514720E+01
   0.9914065291879384E+00
   0.9930900436571226E+00
   0.9994553315505686E+00
   0.9929410888458468E+00
   0.9054598915581028E+00
   0.5955841446565124E+00
   0.1114166414782702E+01
   0.9413771451412433E+00
   0.9976036652223468E+00
   0.1001348403062456E+01
   0.1004153432849755E+01
   0.1001326031953983E+01
   0.1001297285038340E+01
   0.9985611800166986E+00
   0.9960141938766567E+00
   0.9879631777604796E+00
   0.9980802263640486E+00
   0.1051860300845768E+01
   0.9795418183531902E+00
   0.9767982594453842E+00
   0.9872299329987829E+00
   0.9931662891551831E+00
   0.9919541433968778E+00
   0.9921212578222470E+00
   0.9930086841579550E+00
   0.9901676906460299E+00
   0.9931181576506377E+00
   0.9773162501704789E+00
   0.1025996723546670E+01
   0.1000466439261922E+01
   0.9968768033176687E+00
   0.9939034181991787E+00
   0.9946899836497218E+00
   0.9941826785005345E+00
   0.9943233243742926E+00
   0.9947805430294977E+00
   0.9954437730955844E+00
   0.1000036210977304E+01
   0.1002017537081282E+01
   0.1009792811457231E+01
   0.1002103722760634E+01
   0.9979525550825701E+00
   0.9968545403754526E+00
   0.9971886886363631E+00
   0.9969168793432180E+00
   0.9969826503970616E+00
   0.9976372248003178E+00
   0.9977411876607150E+00
   0.1000267997621943E+01
   0.1001435941316443E+01
   0.1004059100875831E+01
   0.1002141107641775E+01
   0.9998879415714004E+00
   0.9983438428797884E+00
   0.9978959508823051E+00
   0.9976564840506309E+00
   0.9977142023456260E+00
   0.9983044714866588E+00
   0.9988673419498602E+00
   0.1000439031195664E+01
   0.1001706249884783E+01
   0.1001511668234661E+01
   0.1001063199983879E+01
   0.9997779833606628E+00
   0.9989811333175276E+00
   0.9985725793766729E+00
   0.9983779082985186E+00
   0.9983703463628004E+00
   0.9987478999021128E+00
   0.9991115838035245E+00
   0.9999663893410383E+00
   0.1000797258318585E+01
   0.1000680555083952E+01
   0.1000629469233350E+01
   0.9999168518161294E+00
   0.9993391302303630E+00
   0.9989542772365493E+00
   0.9987881254749458E+00
   0.9987801137313143E+00
   0.9990475304534636E+00
   0.9993790472068437E+00
   0.9998970757766699E+00
   0.1000434756153197E+01
   0.1000259257054745E+01
   0.1000267454566258E+01
   0.9998757090896839E+00
   0.9995319314967599E+00
   0.9992387354481725E+00
   0.9990879364519424E+00
   0.9990498384801930E+00
   0.9992016484886894E+00
   0.9994371925811427E+00
   0.9997860866980144E+00
   0.1000181887541954E+01
   0.1000106190632590E+01
   0.1000129523423428E+01
   0.9999027229017848E+00
   0.9996575959604765E+00
   0.9994173717507399E+00
   0.9992705438022378E+00
   0.9992134853245490E+00
   0.9992966327586310E+00
   0.9994733364206814E+00
   0.9997381463900934E+00
   0.1000057928379099E+01
   0.1000043301742778E+01
   0.1000092838697967E+01
   0.9999606265246713E+00
   0.9997611726919710E+00
   0.9995343396063703E+00
   0.9993616531189747E+00
   0.9992632716081065E+00
   0.9992849674510440E+00
   0.9994146388555442E+00
   0.9996511017885163E+00
   0.9999680114466910E+00
   0.1820504330572267E+01
   0.8023522621633992E+00
   0.8630935050911044E+00
   0.1000925056514590E+01
   0.1006681495383470E+01
   0.9914056774233914E+00
   0.9930915105708124E+00
   0.9994568627250006E+00
   0.9929449705614212E+00
   0.9054717633200277E+00
   0.5956056264466308E+00
   0.1114142653796165E+01
   0.9413586529833053E+00
   0.9976093045234811E+00
   0.1001341144944230E+01
   0.1004155793403934E+01
   0.1001324145490357E+01
   0.1001297976932632E+01
   0.9985620591306535E+00
   0.9960158092327173E+00
   0.9879586488310712E+00
   0.9980782315791433E+00
   0.1051853064206256E+01
   0.9795457202739525E+00
   0.9768040846584244E+00
   0.9872253235415021E+00
   0.9931651209789838E+00
   0.9919519562667347E+00
   0.9921216891185299E+00
   0.9930101567493802E+00
   0.9901708347021732E+00
   0.9931213839301319E+00
   0.9773214565722198E+00
   0.1025992429808411E+01
   0.1000469914383569E+01
   0.9968828403221460E+00
   0.9939022662283188E+00
   0.9946907149394867E+00
   0.9941816564397793E+00
   0.9943237266792256E+00
   0.9947816897629470E+00
   0.9954463398861371E+00
   0.1000037904475209E+01
   0.1002018121050781E+01
   0.1009792934997022E+01
   0.1002107359549246E+01
   0.9979555618765781E+00
   0.9968529184559345E+00
   0.9971876632494974E+00
   0.9969153556899113E+00
   0.9969823053125146E+00
   0.9976376885097833E+00
   0.9977427324594809E+00
   0.1000269538442381E+01
   0.1001437147277464E+01
   0.1004060104320981E+01
   0.1002144534054954E+01
   0.9998912743372858E+00
   0.9983438595333342E+00
   0.9978952459575152E+00
   0.9976548897736164E+00
   0.9977130579041973E+00
   0.9983039152367985E+00
   0.9988677965985481E+00
   0.1000439943549173E+01
   0.1001707129419139E+01
   0.1001512864775689E+01
   0.1001065876991913E+01
   0.9997809143658173E+00
   0.9989823933360606E+00
   0.9985730847744091E+00
   0.9983776118765856E+00
   0.9983699639399760E+00
   0.9987475764101832E+00
   0.9991116866515051E+00
   0.9999669134532728E+00
   0.1000797947193740E+01
   0.1000681568882528E+01
   0.1000631435756997E+01
   0.9999192096698239E+00
   0.9993406914775587E+00
   0.9989552508601123E+00
   0.9987884820040321E+00
   0.9987802699969874E+00
   0.9990476229836146E+00
   0.9993792224671155E+00
   0.9998974131713319E+00
   0.1000435155049643E+01
   0.1000260027476525E+01
   0.1000268859603680E+01
   0.9998775693189360E+00
   0.9995335907765123E+00
   0.9992400838783785E+00
   0.9990888490089301E+00
   0.9990504838961032E+00
   0.9992021323105015E+00
   0.9994375780073004E+00
   0.9997863007003627E+00
   0.1000181871945102E+01
   0.1000106703977153E+01
   0.1000130488617711E+01
   0.9999041332434261E+00
   0.9996591137888988E+00
   0.9994188249511595E+00
   0.9992717638875915E+00
   0.9992144713119145E+00
   0.9992974038399165E+00
   0.9994738990420982E+00
   0.9997384327421006E+00
   0.1000057965092312E+01
   0.1000043566944577E+01
   0.1000093530849483E+01
   0.9999617868138289E+00
   0.9997626008425448E+00
   0.9995358459931312E+00
   0.9993630379524020E+00
   0.9992644426747561E+00
   0.9992859032025825E+00
   0.9994153614667038E+00
   0.9996515396024455E+00
   0.9999681490219717E+00
   0.1820504893236422E+01
   0.8023536871255801E+00
   0.8631041968103265E+00
   0.1000928194199204E+01
   0.1006681427933307E+01
   0.9914042182777743E+00
   0.9930898210033843E+00
   0.9994547390311732E+00
   0.9929434432255942E+00
   0.9054719745645078E+00
   0.5956077434502383E+00
   0.1114134613126283E+01
   0.9413472341620431E+00
   0.9976240750110126E+00
   0.1001343548809299E+01
   0.1004157788253522E+01
   0.1001321922802674E+01
   0.1001294151645115E+01
   0.9985546711634357E+00
   0.9960064790939673E+00
   0.9879473939112051E+00
   0.9980720755020649E+00
   0.1051846503847777E+01
   0.9795426995824235E+00
   0.9768116316085198E+00
   0.9872272781805915E+00
   0.9931661818604641E+00
   0.9919507622247247E+00
   0.9921200848252399E+00
   0.9930074802261913E+00
   0.9901680848000537E+00
   0.9931183250024244E+00
   0.9773196053044597E+00
   0.1025987379115904E+01
   0.1000464608316206E+01
   0.9968879769104230E+00
   0.9939054060836764E+00
   0.9946935192571048E+00
   0.9941819983640772E+00
   0.9943226926462660E+00
   0.9947785446626911E+00
   0.9954420789181455E+00
   0.1000033094940805E+01
   0.1002015593723680E+01
   0.1009789921136235E+01
   0.1002103474414526E+01
   0.9979571522740132E+00
   0.9968544901367842E+00
   0.9971895324211454E+00
   0.9969160804828883E+00
   0.9969823136133331E+00
   0.9976365596116339E+00
   0.9977409231042712E+00
   0.1000267312078983E+01
   0.1001435618733584E+01
   0.1004058235260384E+01
   0.1002141481963333E+01
   0.9998914706066278E+00
   0.9983447237791165E+00
   0.9978966001141392E+00
   0.9976555833404107E+00
   0.9977131485462696E+00
   0.9983030924690696E+00
   0.9988663477982366E+00
   0.1000438021702788E+01
   0.1001705739818178E+01
   0.1001511613157397E+01
   0.1001063599327111E+01
   0.9997801022129071E+00
   0.9989823650137341E+00
   0.9985737314186418E+00
   0.9983781928000673E+00
   0.9983703123317265E+00
   0.9987474052918079E+00
   0.9991110606480361E+00
   0.9999659905080621E+00
   0.1000797228806774E+01
   0.1000680709273902E+01
   0.1000629845320929E+01
   0.9999181641095956E+00
   0.9993401413819341E+00
   0.9989552498713236E+00
   0.9987886534686123E+00
   0.9987804569027022E+00
   0.9990476141971223E+00
   0.9993789895180989E+00
   0.9998969027197288E+00
   0.1000434554318457E+01
   0.1000259410465089E+01
   0.1000267729939284E+01
   0.9998765202469290E+00
   0.9995327733153685E+00
   0.9992396316475408E+00
   0.9990886278137634E+00
   0.9990503834312284E+00
   0.9992020170346455E+00
   0.9994374609921521E+00
   0.9997861815281273E+00
   0.1000181818138012E+01
   0.1000106294183249E+01
   0.1000129708028326E+01
   0.9999032147041265E+00
   0.9996582180065672E+00
   0.9994181207103998E+00
   0.9992712693054780E+00
   0.9992141585793043E+00
   0.9992971939347670E+00
   0.9994737939497675E+00
   0.9997384334031255E+00
   0.1000058057123567E+01
   0.1000043354001400E+01
   0.1000092957249342E+01
   0.9999609697476290E+00
   0.9997616890774665E+00
   0.9995350093057206E+00
   0.9993623683035395E+00
   0.9992639750664191E+00
   0.9992855996122205E+00
   0.9994151915985047E+00
   0.9996515046446278E+00
   0.9999682568066860E+00
   0.1820504327968049E+01
   0.8023522601122872E+00
   0.8630935046956542E+00
   0.1000925057204610E+01
   0.1006681495800737E+01
   0.9914056776821144E+00
   0.9930915109429427E+00
   0.9994568631770056E+00
   0.9929449709792390E+00
   0.9054717633918220E+00
   0.5956056263778897E+00
   0.1114142654188282E+01
   0.9413586529186344E+00
   0.9976093043702126E+00
   0.1001341144711515E+01
   0.1004155793233269E+01
   0.1001324145301175E+01
   0.1001297976845008E+01
   0.9985620591081739E+00
   0.9960158092101780E+00
   0.9879586489793964E+00
   0.9980782318230228E+00
   0.1051853064917135E+01
   0.9795457204423109E+00
   0.9768040844980590E+00
   0.9872253231669622E+00
   0.9931651208287934E+00
   0.9919519561498388E+00
   0.9921216890798573E+00
   0.9930101567252059E+00
   0.9901708347731610E+00
   0.9931213840534868E+00
   0.9773214567834237E+00
   0.1025992430114281E+01
   0.1000469914890054E+01
   0.9968828405704272E+00
   0.9939022662133463E+00
   0.9946907148735719E+00
   0.9941816563332577E+00
   0.9943237265913508E+00
   0.9947816896725526E+00