title="tecplot geometry and solution file"
variables = x y z rho u v w p mach temperature
zone t="boundary 1 bc-1", solutiontime= 0.5000000E+02, strandid=1001, i=121, j=100, f=feblock
  0.000000000000E+00  0.000000000000E+00  0.000000000000E+00  0.000000000000E+00  0.000000000000E+00  0.000000000000E+00  0.000000000000E+00
  0.000000000000E+00  0.000000000000E+00  0.000000000000E+00  0.000000000000E+00  0.000000000000E+00  0.000000000000E+00  0.000000000000E+00
  0.000000000000E+00  0.000000000000E+00  0.000000000000E+00  0.000000000000E+00  0.000000000000E+00  0.000000000000E+00  0.000000000000E+00
  0.000000000000E+00  0.000000000000E+00  0.000000000000E+00  0.000000000000E+00  0.000000000000E+00  0.000000000000E+00  0.000000000000E+00
  0.000000000000E+00  0.000000000000E+00  0.000000000000E+00  0.000000000000E+00  0.000000000000E+00  0.000000000000E+00  0.000000000000E+00
  0.000000000000E+00  0.000000000000E+00  0.000000000000E+00  0.000000000000E+00  0.000000000000E+00  0.000000000000E+00  0.000000000000E+00
  0.000000000000E+00  0.000000000000E+00  0.000000000000E+00  0.000000000000E+00  0.000000000000E+00  0.000000000000E+00  0.000000000000E+00
  0.000000000000E+00  0.000000000000E+00  0.000000000000E+00  0.000000000000E+00  0.000000000000E+00  0.000000000000E+00  0.000000000000E+00
  0.000000000000E+00  0.000000000000E+00  0.000000000000E+00  0.000000000000E+00  0.000000000000E+00  0.000000000000E+00  0.000000000000E+00
  0.000000000000E+00  0.000000000000E+00  0.000000000000E+00  0.000000000000E+00  0.000000000000E+00  0.000000000000E+00  0.000000000000E+00
  0.000000000000E+00  0.000000000000E+00  0.000000000000E+00  0.000000000000E+00  0.000000000000E+00  0.000000000000E+00  0.000000000000E+00
  0.000000000000E+00  0.000000000000E+00  0.000000000000E+00  0.000000000000E+00  0.000000000000E+00  0.000000000000E+00  0.000000000000E+00
  0.000000000000E+00  0.000000000000E+00  0.000000000000E+00  0.000000000000E+00  0.000000000000E+00  0.000000000000E+00  0.000000000000E+00
  0.000000000000E+00  0.000000000000E+00  0.000000000000E+00  0.000000000000E+00  0.000000000000E+00  0.000000000000E+00  0.000000000000E+00
  0.000000000000E+00  0.000000000000E+00  0.000000000000E+00  0.000000000000E+00  0.000000000000E+00  0.000000000000E+00  0.000000000000E+00
  0.000000000000E+00  0.000000000000E+00  0.000000000000E+00  0.000000000000E+00  0.000000000000E+00  0.000000000000E+00  0.000000000000E+00
  0.000000000000E+00  0.000000000000E+00  0.000000000000E+00  0.000000000000E+00  0.000000000000E+00  0.000000000000E+00  0.000000000000E+00
  0.000000000000E+00  0.000000000000E+00
  0.250000000000E+01  0.250000000000E+01  0.200000000000E+01  0.250000000000E+01  0.200000000000E+01  0.150000000000E+01  0.250000000000E+01
  0.200000000000E+01  0.150000000000E+01  0.100000000000E+01  0.250000000000E+01  0.200000000000E+01  0.150000000000E+01  0.100000000000E+01
  0.500000000000E+00  0.250000000000E+01  0.200000000000E+01  0.150000000000E+01  0.100000000000E+01  0.500000000000E+00  0.000000000000E+00
  0.250000000000E+01  0.200000000000E+01  0.150000000000E+01  0.100000000000E+01  0.500000000000E+00  0.000000000000E+00 -0.500000000000E+00
  0.250000000000E+01  0.200000000000E+01  0.150000000000E+01  0.100000000000E+01  0.500000000000E+00  0.000000000000E+00 -0.500000000000E+00
 -0.100000000000E+01  0.250000000000E+01  0.200000000000E+01  0.150000000000E+01  0.100000000000E+01  0.500000000000E+00  0.000000000000E+00
 -0.500000000000E+00 -0.100000000000E+01 -0.150000000000E+01  0.250000000000E+01  0.200000000000E+01  0.150000000000E+01  0.100000000000E+01
  0.500000000000E+00  0.000000000000E+00 -0.500000000000E+00 -0.100000000000E+01 -0.150000000000E+01 -0.200000000000E+01  0.250000000000E+01
  0.200000000000E+01  0.150000000000E+01  0.100000000000E+01  0.500000000000E+00  0.000000000000E+00 -0.500000000000E+00 -0.100000000000E+01
 -0.150000000000E+01 -0.200000000000E+01 -0.250000000000E+01  0.200000000000E+01  0.150000000000E+01  0.100000000000E+01  0.500000000000E+00
  0.000000000000E+00 -0.500000000000E+00 -0.100000000000E+01 -0.150000000000E+01 -0.200000000000E+01 -0.250000000000E+01  0.150000000000E+01
  0.100000000000E+01  0.500000000000E+00  0.000000000000E+00 -0.500000000000E+00 -0.100000000000E+01 -0.150000000000E+01 -0.200000000000E+01
 -0.250000000000E+01  0.100000000000E+01  0.500000000000E+00  0.000000000000E+00 -0.500000000000E+00 -0.100000000000E+01 -0.150000000000E+01
 -0.200000000000E+01 -0.250000000000E+01  0.500000000000E+00  0.000000000000E+00 -0.500000000000E+00 -0.100000000000E+01 -0.150000000000E+01
 -0.200000000000E+01 -0.250000000000E+01  0.000000000000E+00 -0.500000000000E+00 -0.100000000000E+01 -0.150000000000E+01 -0.200000000000E+01
 -0.250000000000E+01 -0.500000000000E+00 -0.100000000000E+01 -0.150000000000E+01 -0.200000000000E+01 -0.250000000000E+01 -0.100000000000E+01
 -0.150000000000E+01 -0.200000000000E+01 -0.250000000000E+01 -0.150000000000E+01 -0.200000000000E+01 -0.250000000000E+01 -0.200000000000E+01
 -0.250000000000E+01 -0.250000000000E+01
  0.000000000000E+00  0.500000000000E+00  0.000000000000E+00  0.100000000000E+01  0.500000000000E+00  0.000000000000E+00  0.150000000000E+01
  0.100000000000E+01  0.500000000000E+00  0.000000000000E+00  0.200000000000E+01  0.150000000000E+01  0.100000000000E+01  0.500000000000E+00
  0.000000000000E+00  0.250000000000E+01  0.200000000000E+01  0.150000000000E+01  0.100000000000E+01  0.500000000000E+00  0.000000000000E+00
  0.300000000000E+01  0.250000000000E+01  0.200000000000E+01  0.150000000000E+01  0.100000000000E+01  0.500000000000E+00  0.000000000000E+00
  0.350000000000E+01  0.300000000000E+01  0.250000000000E+01  0.200000000000E+01  0.150000000000E+01  0.100000000000E+01  0.500000000000E+00
  0.000000000000E+00  0.400000000000E+01  0.350000000000E+01  0.300000000000E+01  0.250000000000E+01  0.200000000000E+01  0.150000000000E+01
  0.100000000000E+01  0.500000000000E+00  0.000000000000E+00  0.450000000000E+01  0.400000000000E+01  0.350000000000E+01  0.300000000000E+01
  0.250000000000E+01  0.200000000000E+01  0.150000000000E+01  0.100000000000E+01  0.500000000000E+00  0.000000000000E+00  0.500000000000E+01
  0.450000000000E+01  0.400000000000E+01  0.350000000000E+01  0.300000000000E+01  0.250000000000E+01  0.200000000000E+01  0.150000000000E+01
  0.100000000000E+01  0.500000000000E+00  0.000000000000E+00  0.500000000000E+01  0.450000000000E+01  0.400000000000E+01  0.350000000000E+01
  0.300000000000E+01  0.250000000000E+01  0.200000000000E+01  0.150000000000E+01  0.100000000000E+01  0.500000000000E+00  0.500000000000E+01
  0.450000000000E+01  0.400000000000E+01  0.350000000000E+01  0.300000000000E+01  0.250000000000E+01  0.200000000000E+01  0.150000000000E+01
  0.100000000000E+01  0.500000000000E+01  0.450000000000E+01  0.400000000000E+01  0.350000000000E+01  0.300000000000E+01  0.250000000000E+01
  0.200000000000E+01  0.150000000000E+01  0.500000000000E+01  0.450000000000E+01  0.400000000000E+01  0.350000000000E+01  0.300000000000E+01
  0.250000000000E+01  0.200000000000E+01  0.500000000000E+01  0.450000000000E+01  0.400000000000E+01  0.350000000000E+01  0.300000000000E+01
  0.250000000000E+01  0.500000000000E+01  0.450000000000E+01  0.400000000000E+01  0.350000000000E+01  0.300000000000E+01  0.500000000000E+01
  0.450000000000E+01  0.400000000000E+01  0.350000000000E+01  0.500000000000E+01  0.450000000000E+01  0.400000000000E+01  0.500000000000E+01
  0.450000000000E+01  0.500000000000E+01
  0.182276139377E+01  0.111728436941E+01  0.182075701222E+01  0.105219635441E+01  0.111438380394E+01  0.182040420497E+01  0.102623433933E+01
  0.105185682072E+01  0.111437594953E+01  0.182047269224E+01  0.100986989040E+01  0.102602302409E+01  0.105192431563E+01  0.111416077004E+01
  0.182050327380E+01  0.100407902527E+01  0.100980142818E+01  0.102604032030E+01  0.105185884768E+01  0.111413707131E+01  0.182050391331E+01
  0.100152039937E+01  0.100405835066E+01  0.100981288147E+01  0.102599284264E+01  0.105185159592E+01  0.111412897618E+01  0.182050327119E+01
  0.100068213676E+01  0.100151217549E+01  0.100406490544E+01  0.100979297942E+01  0.102598853205E+01  0.105184502315E+01  0.111413707171E+01
  0.182047268465E+01  0.100026177588E+01  0.100067799376E+01  0.100151669274E+01  0.100405616126E+01  0.100979305338E+01  0.102598350313E+01
  0.105185159663E+01  0.111416077379E+01  0.182040421923E+01  0.100010648616E+01  0.100025931520E+01  0.100068090301E+01  0.100151235894E+01
  0.100405718163E+01  0.100979008093E+01  0.102598853236E+01  0.105185884864E+01  0.111437595721E+01  0.182075717091E+01  0.100004458798E+01
  0.100010506962E+01  0.100026119336E+01  0.100067854255E+01  0.100151358307E+01  0.100405528628E+01  0.100979305362E+01  0.102599284230E+01
  0.105192432184E+01  0.111438383793E+01  0.182276166956E+01  0.100004389233E+01  0.100010619176E+01  0.100025975850E+01  0.100067957103E+01
  0.100151232548E+01  0.100405718180E+01  0.100979297922E+01  0.102604032270E+01  0.105185680649E+01  0.111728441613E+01  0.100004444950E+01
  0.100010534251E+01  0.100026050698E+01  0.100067869329E+01  0.100151358313E+01  0.100405616119E+01  0.100981288238E+01  0.102602301665E+01
  0.105219632340E+01  0.100004403325E+01  0.100010583659E+01  0.100025989520E+01  0.100067957107E+01  0.100151235880E+01  0.100406490595E+01
  0.100980142263E+01  0.102623432532E+01  0.100004428046E+01  0.100010543936E+01  0.100026050700E+01  0.100067854249E+01  0.100151669282E+01
  0.100405834952E+01  0.100986988162E+01  0.100004409046E+01  0.100010583659E+01  0.100025975846E+01  0.100068090306E+01  0.100151217499E+01
  0.100407902300E+01  0.100004428046E+01  0.100010534249E+01  0.100026119338E+01  0.100067799363E+01  0.100152039829E+01  0.100004403323E+01
  0.100010619177E+01  0.100025931513E+01  0.100068213634E+01  0.100004444950E+01  0.100010506958E+01  0.100026177569E+01  0.100004389231E+01
  0.100010648608E+01  0.100004458792E+01
  0.000000000000E+00  0.449576913340E+00  0.000000000000E+00  0.466819023743E+00  0.440685086571E+00  0.000000000000E+00  0.478298386995E+00
  0.466815040522E+00  0.440508993826E+00  0.000000000000E+00  0.490775737673E+00  0.478619242799E+00  0.466709048799E+00  0.440710357131E+00
  0.000000000000E+00  0.495757111541E+00  0.490883060880E+00  0.478565141644E+00  0.466800915616E+00  0.440733486377E+00  0.000000000000E+00
  0.498209473335E+00  0.495790631972E+00  0.490858455730E+00  0.478635656532E+00  0.466808993746E+00  0.440747448702E+00  0.000000000000E+00
  0.499124740133E+00  0.498221572668E+00  0.495779130795E+00  0.490889213270E+00  0.478640040717E+00  0.466818708551E+00  0.440733486295E+00
  0.000000000000E+00  0.499624898331E+00  0.499129797203E+00  0.498215817538E+00  0.495793426678E+00  0.490888374334E+00  0.478648970010E+00
  0.466808993232E+00  0.440710356097E+00  0.000000000000E+00  0.499826526874E+00  0.499627579443E+00  0.499126667581E+00  0.498222430692E+00
  0.495792002237E+00  0.490893485133E+00  0.478640040224E+00  0.466800914979E+00  0.440508989894E+00  0.000000000000E+00  0.499911753813E+00
  0.499827933334E+00  0.499625671596E+00  0.499129831659E+00  0.498221100328E+00  0.495795229634E+00  0.490888374040E+00  0.478635655811E+00
  0.466709044385E+00  0.440685073727E+00  0.000000000000E+00  0.499912365514E+00  0.499826851601E+00  0.499627415857E+00  0.499128812892E+00
  0.498223053253E+00  0.495792001986E+00  0.490889213240E+00  0.478565137947E+00  0.466815048591E+00  0.449576902812E+00  0.499911883786E+00
  0.499827820652E+00  0.499626672542E+00  0.499130035201E+00  0.498221100246E+00  0.495793426419E+00  0.490858454866E+00  0.478619239723E+00
  0.466819053779E+00  0.499912354264E+00  0.499827308480E+00  0.499627423889E+00  0.499128812837E+00  0.498222430718E+00  0.495779130011E+00
  0.490883063753E+00  0.478298383874E+00  0.499912077554E+00  0.499827744264E+00  0.499626672525E+00  0.499129831631E+00  0.498215817443E+00
  0.495790631704E+00  0.490775742169E+00  0.499912294485E+00  0.499827308468E+00  0.499627415871E+00  0.499126667485E+00  0.498221572803E+00
  0.495757111836E+00  0.499912077543E+00  0.499827820663E+00  0.499625671571E+00  0.499129797164E+00  0.498209473883E+00  0.499912354273E+00
  0.499826851590E+00  0.499627579457E+00  0.499124740366E+00  0.499911883794E+00  0.499827933342E+00  0.499624898490E+00  0.499912365520E+00
  0.499826526952E+00  0.499911753877E+00
  0.000000000000E+00  0.000000000000E+00  0.000000000000E+00  0.000000000000E+00 -0.100240534189E-02  0.000000000000E+00  0.000000000000E+00
 -0.248539297378E-03 -0.683051045248E-04  0.000000000000E+00  0.000000000000E+00 -0.722720551725E-04 -0.185920155001E-04  0.242760376573E-05
  0.000000000000E+00  0.000000000000E+00 -0.118504836983E-05 -0.693757440309E-05 -0.111455191180E-04  0.230026064909E-04  0.000000000000E+00
  0.000000000000E+00  0.326798277058E-05  0.460683968461E-05 -0.221729994679E-05  0.645833223689E-05 -0.568749430038E-10  0.000000000000E+00
  0.000000000000E+00  0.193840812250E-05  0.270240891872E-05  0.230302023850E-05  0.532576556656E-05  0.216789923865E-09 -0.230015405978E-04
  0.000000000000E+00  0.000000000000E+00  0.652740838771E-06  0.164925145898E-05  0.223558089476E-05  0.307261712762E-05  0.569428238046E-11
 -0.645748807588E-05 -0.242243604335E-05  0.000000000000E+00  0.000000000000E+00  0.185999831136E-06  0.804180479896E-06  0.138726475115E-05
  0.181097217846E-05  0.722058558232E-10 -0.532622612316E-05  0.111487954136E-04  0.683246515904E-04  0.000000000000E+00  0.000000000000E+00
  0.452974806220E-07  0.391778309514E-06  0.627044514334E-06  0.968356918418E-06 -0.467422509722E-10 -0.307254966564E-05  0.221558680995E-05
  0.185975252174E-04  0.100242741753E-02  0.000000000000E+00  0.317501087651E-07  0.171914324503E-06  0.246204570904E-06  0.446248273556E-06
  0.905068615323E-11 -0.181120581363E-05 -0.230300039144E-05  0.692572786752E-05  0.248563544496E-03  0.000000000000E+00  0.790734982951E-07
  0.921313252169E-07  0.198334493921E-06 -0.538948940964E-11 -0.968410657820E-06 -0.223585741144E-05 -0.460984551918E-05  0.722563991748E-04
  0.000000000000E+00  0.719476790533E-07  0.872187503991E-07 -0.314845778609E-12 -0.446297351365E-06 -0.138730449064E-05 -0.270335371766E-05
  0.118025166717E-05  0.000000000000E+00  0.423446363604E-07 -0.167191297130E-11 -0.198355926199E-06 -0.627061421872E-06 -0.164954601111E-05
 -0.326876571988E-05  0.000000000000E+00 -0.178194774470E-11 -0.872299005645E-07 -0.246201083360E-06 -0.804290678275E-06 -0.193858442887E-05
  0.000000000000E+00 -0.423498512471E-07 -0.921267458700E-07 -0.391819906979E-06 -0.652789824850E-06  0.000000000000E+00 -0.719445837848E-07
 -0.171929943062E-06 -0.186016533196E-06  0.000000000000E+00 -0.790808734997E-07 -0.453013570866E-07  0.000000000000E+00 -0.317517743750E-07
  0.000000000000E+00  0.000000000000E+00
  0.000000000000E+00  0.287454730585E+00  0.000000000000E+00  0.101250385234E+00  0.288303427659E+00  0.000000000000E+00  0.313909628687E-01
  0.100457660551E+00  0.288164481724E+00  0.000000000000E+00  0.895638460786E-02  0.313187512740E-01  0.100315976639E+00  0.288158868387E+00
  0.000000000000E+00  0.205107983796E-02  0.899004263220E-02  0.312624977734E-01  0.100241150245E+00  0.288165607289E+00  0.000000000000E+00
  0.382573268716E-03  0.207886206575E-02  0.895625968054E-02  0.312514378506E-01  0.100239077754E+00  0.288167544659E+00  0.000000000000E+00
 -0.368442468476E-04  0.394506002532E-03  0.206360832609E-02  0.896048181627E-02  0.312513818525E-01  0.100240928304E+00  0.288165606782E+00
  0.000000000000E+00 -0.566331878698E-04 -0.326525002890E-04  0.388409899203E-03  0.207098529671E-02  0.895915324297E-02  0.312520377839E-01
  0.100239078210E+00  0.288158867692E+00  0.000000000000E+00 -0.365089529022E-04 -0.551012497945E-04 -0.348871862387E-04  0.393044572507E-03
  0.207021433766E-02  0.896015528213E-02  0.312513823421E-01  0.100241155246E+00  0.288164486230E+00  0.000000000000E+00  0.276609282676E-04
 -0.360046263306E-04 -0.560366754671E-04 -0.326269741243E-04  0.392496503504E-03  0.207130206813E-02  0.895915327451E-02  0.312514406429E-01
  0.100315986619E+00  0.288303404716E+00  0.000000000000E+00  0.273292224778E-04 -0.363648265527E-04 -0.549705978962E-04 -0.329097248117E-04
  0.393307405461E-03  0.207021435124E-02  0.896048184066E-02  0.312625033998E-01  0.100457610060E+00  0.287454675797E+00  0.275651558386E-04
 -0.359227310400E-04 -0.551547909861E-04 -0.324435930014E-04  0.392496469983E-03  0.207098528087E-02  0.895625939165E-02  0.313187314493E-01
  0.101250256056E+00  0.274232082480E-04 -0.360423555592E-04 -0.549372521873E-04 -0.329097518498E-04  0.393044540251E-03  0.206360769243E-02
  0.899003767784E-02  0.313909104220E-01  0.274864748239E-04 -0.359612974593E-04 -0.551548040845E-04 -0.326270174669E-04  0.388409623223E-03
  0.207886034397E-02  0.895637143191E-02  0.274227100386E-04 -0.360423664672E-04 -0.549706071892E-04 -0.348873325786E-04  0.394505692509E-03
  0.205107490094E-02  0.274864700573E-04 -0.359227296980E-04 -0.560367348881E-04 -0.326526336041E-04  0.382571586825E-03  0.274232063174E-04
 -0.363648519398E-04 -0.551012944204E-04 -0.368449420832E-04  0.275651552287E-04 -0.360046493465E-04 -0.566334217431E-04  0.273292087361E-04
 -0.365090211632E-04  0.276608946676E-04
  0.130197242412E+01  0.805721439504E+00  0.130054072301E+01  0.774928583579E+00  0.803169572867E+00  0.130028871784E+01  0.741407623864E+00
  0.774522468711E+00  0.803189124275E+00  0.130033763731E+01  0.724192883867E+00  0.741183661581E+00  0.774587251604E+00  0.802970509025E+00
  0.130035948128E+01  0.718368912873E+00  0.724124692773E+00  0.741198143027E+00  0.774509165485E+00  0.802945285301E+00  0.130035993808E+01
  0.715806092559E+00  0.718348299230E+00  0.724135964157E+00  0.741149474177E+00  0.774500616790E+00  0.802936583258E+00  0.130035947942E+01
  0.714967902490E+00  0.715797869215E+00  0.718354801899E+00  0.724116058814E+00  0.741145076744E+00  0.774493459498E+00  0.802945285866E+00
  0.130033763190E+01  0.714547481947E+00  0.714963750166E+00  0.715802388247E+00  0.718346080101E+00  0.724116134009E+00  0.741140033575E+00
  0.774500617536E+00  0.802970512745E+00  0.130028872802E+01  0.714392194337E+00  0.714545017896E+00  0.714966669001E+00  0.715798061224E+00
  0.718347093386E+00  0.724113151094E+00  0.741145077066E+00  0.774509166667E+00  0.803189131043E+00  0.130054083636E+01  0.714330312297E+00
  0.714390778033E+00  0.714546899663E+00  0.714964303447E+00  0.715799278411E+00  0.718345211481E+00  0.724116134258E+00  0.741149473921E+00
  0.774587258573E+00  0.803169605121E+00  0.130197262111E+01  0.714329624618E+00  0.714391900439E+00  0.714545460575E+00  0.714965332540E+00
  0.715798026615E+00  0.718347093549E+00  0.724116058612E+00  0.741198145639E+00  0.774522452053E+00  0.805721488755E+00  0.714330174622E+00
  0.714391049129E+00  0.714546214274E+00  0.714964456143E+00  0.715799278473E+00  0.718346080031E+00  0.724135965075E+00  0.741183652753E+00
  0.774928547123E+00  0.714329763216E+00  0.714391546469E+00  0.714545597540E+00  0.714965332583E+00  0.715798061085E+00  0.718354802405E+00
  0.724124687172E+00  0.741407606653E+00  0.714330009102E+00  0.714391146271E+00  0.714546214291E+00  0.714964303391E+00  0.715802388324E+00
  0.718348298079E+00  0.724192875005E+00  0.714329819267E+00  0.714391546477E+00  0.714545460533E+00  0.714966669057E+00  0.715797868713E+00
  0.718368910595E+00  0.714330009103E+00  0.714391049106E+00  0.714546899681E+00  0.714963750036E+00  0.715806091487E+00  0.714329763200E+00
  0.714391900449E+00  0.714545017826E+00  0.714967902076E+00  0.714330174622E+00  0.714390777995E+00  0.714547481754E+00  0.714329624594E+00
  0.714392194254E+00  0.714330312233E+00
  0.000000000000E+00  0.531076351173E+00  0.000000000000E+00  0.470418477186E+00  0.524255347189E+00  0.000000000000E+00  0.476609801392E+00
  0.470297217490E+00  0.524023750964E+00  0.000000000000E+00  0.489888178042E+00  0.476946403068E+00  0.470161176134E+00  0.524209187049E+00
  0.000000000000E+00  0.495357604240E+00  0.490002346207E+00  0.476888426692E+00  0.470243227423E+00  0.524234789789E+00  0.000000000000E+00
  0.498058430883E+00  0.495393220204E+00  0.489976142528E+00  0.476962303553E+00  0.470251551980E+00  0.524248415176E+00  0.000000000000E+00
  0.499056689602E+00  0.498071351904E+00  0.495381039612E+00  0.490008817552E+00  0.476967063287E+00  0.470261993293E+00  0.524234789353E+00
  0.000000000000E+00  0.499598755363E+00  0.499062161794E+00  0.498065144757E+00  0.495396204750E+00  0.490007948707E+00  0.476976419915E+00
  0.470251551512E+00  0.524209185475E+00  0.000000000000E+00  0.499815886898E+00  0.499601683059E+00  0.499058739498E+00  0.498072187325E+00
  0.495394680582E+00  0.490013354953E+00  0.476967062797E+00  0.470243227698E+00  0.524023749746E+00  0.000000000000E+00  0.499907293316E+00
  0.499817434773E+00  0.499599586607E+00  0.499062139989E+00  0.498070737849E+00  0.495398091208E+00  0.490007948390E+00  0.476962303021E+00
  0.470161173222E+00  0.524255321497E+00  0.000000000000E+00  0.499907971749E+00  0.499816240853E+00  0.499601475419E+00  0.499061018677E+00
  0.498072813625E+00  0.495394680316E+00  0.490008817543E+00  0.476888423105E+00  0.470297216688E+00  0.531076307847E+00  0.499907436844E+00
  0.499817295444E+00  0.499600655595E+00  0.499062327787E+00  0.498070737760E+00  0.495396204498E+00  0.489976141574E+00  0.476946399838E+00
  0.470418483262E+00  0.499907947227E+00  0.499816732772E+00  0.499601469702E+00  0.499061018618E+00  0.498072187365E+00  0.495381038777E+00
  0.490002349531E+00  0.476609797159E+00  0.499907646275E+00  0.499817209277E+00  0.499600655577E+00  0.499062139967E+00  0.498065144655E+00
  0.495393220042E+00  0.489888183157E+00  0.499907882136E+00  0.499816732759E+00  0.499601475437E+00  0.499058739396E+00  0.498071352088E+00
  0.495357604740E+00  0.499907646263E+00  0.499817295457E+00  0.499599586579E+00  0.499062161769E+00  0.498058431536E+00  0.499907947238E+00
  0.499816240840E+00  0.499601683081E+00  0.499056689876E+00  0.499907436852E+00  0.499817434785E+00  0.499598755541E+00  0.499907971758E+00
  0.499815886983E+00  0.499907293387E+00
  0.100000000000E+01  0.100959974577E+01  0.100000000000E+01  0.103108133046E+01  0.100902166564E+01  0.100000000000E+01  0.101143631004E+01
  0.103087362732E+01  0.100905334009E+01  0.100000000000E+01  0.100396105186E+01  0.101133902637E+01  0.103089370227E+01  0.100897351878E+01
  0.100000000000E+01  0.100163080068E+01  0.100393457723E+01  0.101134173747E+01  0.103085393451E+01  0.100896328501E+01  0.100000000000E+01
  0.100060720702E+01  0.100162268284E+01  0.100393881721E+01  0.101132212694E+01  0.103084966331E+01  0.100895968114E+01  0.100000000000E+01
  0.100027274068E+01  0.100060392817E+01  0.100162521089E+01  0.100393100665E+01  0.101132037545E+01  0.103084657857E+01  0.100896328536E+01
  0.100000000000E+01  0.100010467145E+01  0.100027107269E+01  0.100060573210E+01  0.100162177271E+01  0.100393103738E+01  0.101131845087E+01
  0.103084966360E+01  0.100897352006E+01  0.100000000000E+01  0.100004258137E+01  0.100010368297E+01  0.100027224822E+01  0.100060401329E+01
  0.100162216768E+01  0.100392985699E+01  0.101132037559E+01  0.103085393515E+01  0.100905334163E+01  0.100000000000E+01  0.100001784844E+01
  0.100004201521E+01  0.100010443889E+01  0.100027129819E+01  0.100060449176E+01  0.100162143441E+01  0.100393103748E+01  0.101132212693E+01
  0.103089370546E+01  0.100902167538E+01  0.100000000000E+01  0.100001758136E+01  0.100004246434E+01  0.100010385932E+01  0.100027170988E+01
  0.100060399834E+01  0.100162216774E+01  0.100393100657E+01  0.101134173866E+01  0.103087361909E+01  0.100959976526E+01  0.100001779418E+01
  0.100004212183E+01  0.100010416587E+01  0.100027136114E+01  0.100060449178E+01  0.100162177268E+01  0.100393881757E+01  0.101133902166E+01
  0.103108131234E+01  0.100001763448E+01  0.100004232399E+01  0.100010391435E+01  0.100027170990E+01  0.100060401324E+01  0.100162521109E+01
  0.100393457498E+01  0.101143630037E+01  0.100001773150E+01  0.100004216098E+01  0.100010416588E+01  0.100027129817E+01  0.100060573213E+01
  0.100162268238E+01  0.100396104831E+01  0.100001765573E+01  0.100004232399E+01  0.100010385931E+01  0.100027224824E+01  0.100060392797E+01
  0.100163079976E+01  0.100001773150E+01  0.100004212182E+01  0.100010443890E+01  0.100027107264E+01  0.100060720659E+01  0.100001763447E+01
  0.100004246435E+01  0.100010368294E+01  0.100027274052E+01  0.100001779418E+01  0.100004201520E+01  0.100010467137E+01  0.100001758135E+01
  0.100004258134E+01  0.100001784841E+01
        67        57        46        56
        57        47        37        46
        47        38        29        37
        38        30        22        29
        30        23        16        22
        23        17        11        16
        17        12         7        11
        12         8         4         7
         8         5         2         4
         5         3         1         2
        77        68        57        67
        68        58        47        57
        58        48        38        47
        48        39        30        38
        39        31        23        30
        31        24        17        23
        24        18        12        17
        18        13         8        12
        13         9         5         8
         9         6         3         5
        86        78        68        77
        78        69        58        68
        69        59        48        58
        59        49        39        48
        49        40        31        39
        40        32        24        31
        32        25        18        24
        25        19        13        18
        19        14         9        13
        14        10         6         9
        94        87        78        86
        87        79        69        78
        79        70        59        69
        70        60        49        59
        60        50        40        49
        50        41        32        40
        41        33        25        32
        33        26        19        25
        26        20        14        19
        20        15        10        14
       101        95        87        94
        95        88        79        87
        88        80        70        79
        80        71        60        70
        71        61        50        60
        61        51        41        50
        51        42        33        41
        42        34        26        33
        34        27        20        26
        27        21        15        20
       107       102        95       101
       102        96        88        95
        96        89        80        88
        89        81        71        80
        81        72        61        71
        72        62        51        61
        62        52        42        51
        52        43        34        42
        43        35        27        34
        35        28        21        27
       112       108       102       107
       108       103        96       102
       103        97        89        96
        97        90        81        89
        90        82        72        81
        82        73        62        72
        73        63        52        62
        63        53        43        52
        53        44        35        43
        44        36        28        35
       116       113       108       112
       113       109       103       108
       109       104        97       103
       104        98        90        97
        98        91        82        90
        91        83        73        82
        83        74        63        73
        74        64        53        63
        64        54        44        53
        54        45        36        44
       119       117       113       116
       117       114       109       113
       114       110       104       109
       110       105        98       104
       105        99        91        98
        99        92        83        91
        92        84        74        83
        84        75        64        74
        75        65        54        64
        65        55        45        54
       121       120       117       119
       120       118       114       117
       118       115       110       114
       115       111       105       110
       111       106        99       105
       106       100        92        99
       100        93        84        92
        93        85        75        84
        85        76        65        75
        76        66        55        65
zone t="boundary 2 bc-2", solutiontime= 0.5000000E+02, strandid=1002, i=121, j=100, f=feblock
  0.000000000000E+00  0.500000000000E+00  0.000000000000E+00  0.100000000000E+01  0.500000000000E+00  0.000000000000E+00  0.150000000000E+01
  0.100000000000E+01  0.500000000000E+00  0.000000000000E+00  0.200000000000E+01  0.150000000000E+01  0.100000000000E+01  0.500000000000E+00
  0.000000000000E+00  0.250000000000E+01  0.200000000000E+01  0.150000000000E+01  0.100000000000E+01  0.500000000000E+00  0.000000000000E+00
  0.300000000000E+01  0.250000000000E+01  0.200000000000E+01  0.150000000000E+01  0.100000000000E+01  0.500000000000E+00  0.000000000000E+00
  0.350000000000E+01  0.300000000000E+01  0.250000000000E+01  0.200000000000E+01  0.150000000000E+01  0.100000000000E+01  0.500000000000E+00
  0.000000000000E+00  0.400000000000E+01  0.350000000000E+01  0.300000000000E+01  0.250000000000E+01  0.200000000000E+01  0.150000000000E+01
  0.100000000000E+01  0.500000000000E+00  0.000000000000E+00  0.450000000000E+01  0.400000000000E+01  0.350000000000E+01  0.300000000000E+01
  0.250000000000E+01  0.200000000000E+01  0.150000000000E+01  0.100000000000E+01  0.500000000000E+00  0.000000000000E+00  0.500000000000E+01