title="tecplot geometry and solution file"
variables = x y z rho u v w p mach temperature
zone t="boundary 1 bc-1", solutiontime= 0.6000000E+02, strandid=1001, i=121, j=100, f=feblock
  0.000000000000E+00  0.000000000000E+00  0.000000000000E+00  0.000000000000E+00  0.000000000000E+00  0.000000000000E+00  0.000000000000E+00
  0.000000000000E+00  0.000000000000E+00  0.000000000000E+00  0.000000000000E+00  0.000000000000E+00  0.000000000000E+00  0.000000000000E+00
  0.000000000000E+00  0.000000000000E+00  0.000000000000E+00  0.000000000000E+00  0.000000000000E+00  0.000000000000E+00  0.000000000000E+00
  0.000000000000E+00  0.000000000000E+00  0.000000000000E+00  0.000000000000E+00  0.000000000000E+00  0.000000000000E+00  0.000000000000E+00
  0.000000000000E+00  0.000000000000E+00  0.000000000000E+00  0.000000000000E+00  0.000000000000E+00  0.000000000000E+00  0.000000000000E+00
  0.000000000000E+00  0.000000000000E+00  0.000000000000E+00  0.000000000000E+00  0.000000000000E+00  0.000000000000E+00  0.000000000000E+00
  0.000000000000E+00  0.000000000000E+00  0.000000000000E+00  0.000000000000E+00  0.000000000000E+00  0.000000000000E+00  0.000000000000E+00
  0.000000000000E+00  0.000000000000E+00  0.000000000000E+00  0.000000000000E+00  0.000000000000E+00  0.000000000000E+00  0.000000000000E+00
  0.000000000000E+00  0.000000000000E+00  0.000000000000E+00  0.000000000000E+00  0.000000000000E+00  0.000000000000E+00  0.000000000000E+00
  0.000000000000E+00  0.000000000000E+00  0.000000000000E+00  0.000000000000E+00  0.000000000000E+00  0.000000000000E+00  0.000000000000E+00
  0.000000000000E+00  0.000000000000E+00  0.000000000000E+00  0.000000000000E+00  0.000000000000E+00  0.000000000000E+00  0.000000000000E+00
  0.000000000000E+00  0.000000000000E+00  0.000000000000E+00  0.000000000000E+00  0.000000000000E+00  0.000000000000E+00  0.000000000000E+00
  0.000000000000E+00  0.000000000000E+00  0.000000000000E+00  0.000000000000E+00  0.000000000000E+00  0.000000000000E+00  0.000000000000E+00
  0.000000000000E+00  0.000000000000E+00  0.000000000000E+00  0.000000000000E+00  0.000000000000E+00  0.000000000000E+00  0.000000000000E+00
  0.000000000000E+00  0.000000000000E+00  0.000000000000E+00  0.000000000000E+00  0.000000000000E+00  0.000000000000E+00  0.000000000000E+00
  0.000000000000E+00  0.000000000000E+00  0.000000000000E+00  0.000000000000E+00  0.000000000000E+00  0.000000000000E+00  0.000000000000E+00
  0.000000000000E+00  0.000000000000E+00  0.000000000000E+00  0.000000000000E+00  0.000000000000E+00  0.000000000000E+00  0.000000000000E+00
  0.000000000000E+00  0.000000000000E+00
  0.250000000000E+01  0.250000000000E+01  0.200000000000E+01  0.250000000000E+01  0.200000000000E+01  0.150000000000E+01  0.250000000000E+01
  0.200000000000E+01  0.150000000000E+01  0.100000000000E+01  0.250000000000E+01  0.200000000000E+01  0.150000000000E+01  0.100000000000E+01
  0.500000000000E+00  0.250000000000E+01  0.200000000000E+01  0.150000000000E+01  0.100000000000E+01  0.500000000000E+00  0.000000000000E+00
  0.250000000000E+01  0.200000000000E+01  0.150000000000E+01  0.100000000000E+01  0.500000000000E+00  0.000000000000E+00 -0.500000000000E+00
  0.250000000000E+01  0.200000000000E+01  0.150000000000E+01  0.100000000000E+01  0.500000000000E+00  0.000000000000E+00 -0.500000000000E+00
 -0.100000000000E+01  0.250000000000E+01  0.200000000000E+01  0.150000000000E+01  0.100000000000E+01  0.500000000000E+00  0.000000000000E+00
 -0.500000000000E+00 -0.100000000000E+01 -0.150000000000E+01  0.250000000000E+01  0.200000000000E+01  0.150000000000E+01  0.100000000000E+01
  0.500000000000E+00  0.000000000000E+00 -0.500000000000E+00 -0.100000000000E+01 -0.150000000000E+01 -0.200000000000E+01  0.250000000000E+01
  0.200000000000E+01  0.150000000000E+01  0.100000000000E+01  0.500000000000E+00  0.000000000000E+00 -0.500000000000E+00 -0.100000000000E+01
 -0.150000000000E+01 -0.200000000000E+01 -0.250000000000E+01  0.200000000000E+01  0.150000000000E+01  0.100000000000E+01  0.500000000000E+00
  0.000000000000E+00 -0.500000000000E+00 -0.100000000000E+01 -0.150000000000E+01 -0.200000000000E+01 -0.250000000000E+01  0.150000000000E+01
  0.100000000000E+01  0.500000000000E+00  0.000000000000E+00 -0.500000000000E+00 -0.100000000000E+01 -0.150000000000E+01 -0.200000000000E+01
 -0.250000000000E+01  0.100000000000E+01  0.500000000000E+00  0.000000000000E+00 -0.500000000000E+00 -0.100000000000E+01 -0.150000000000E+01
 -0.200000000000E+01 -0.250000000000E+01  0.500000000000E+00  0.000000000000E+00 -0.500000000000E+00 -0.100000000000E+01 -0.150000000000E+01
 -0.200000000000E+01 -0.250000000000E+01  0.000000000000E+00 -0.500000000000E+00 -0.100000000000E+01 -0.150000000000E+01 -0.200000000000E+01
 -0.250000000000E+01 -0.500000000000E+00 -0.100000000000E+01 -0.150000000000E+01 -0.200000000000E+01 -0.250000000000E+01 -0.100000000000E+01
 -0.150000000000E+01 -0.200000000000E+01 -0.250000000000E+01 -0.150000000000E+01 -0.200000000000E+01 -0.250000000000E+01 -0.200000000000E+01
 -0.250000000000E+01 -0.250000000000E+01
  0.000000000000E+00  0.500000000000E+00  0.000000000000E+00  0.100000000000E+01  0.500000000000E+00  0.000000000000E+00  0.150000000000E+01
  0.100000000000E+01  0.500000000000E+00  0.000000000000E+00  0.200000000000E+01  0.150000000000E+01  0.100000000000E+01  0.500000000000E+00
  0.000000000000E+00  0.250000000000E+01  0.200000000000E+01  0.150000000000E+01  0.100000000000E+01  0.500000000000E+00  0.000000000000E+00
  0.300000000000E+01  0.250000000000E+01  0.200000000000E+01  0.150000000000E+01  0.100000000000E+01  0.500000000000E+00  0.000000000000E+00
  0.350000000000E+01  0.300000000000E+01  0.250000000000E+01  0.200000000000E+01  0.150000000000E+01  0.100000000000E+01  0.500000000000E+00
  0.000000000000E+00  0.400000000000E+01  0.350000000000E+01  0.300000000000E+01  0.250000000000E+01  0.200000000000E+01  0.150000000000E+01
  0.100000000000E+01  0.500000000000E+00  0.000000000000E+00  0.450000000000E+01  0.400000000000E+01  0.350000000000E+01  0.300000000000E+01
  0.250000000000E+01  0.200000000000E+01  0.150000000000E+01  0.100000000000E+01  0.500000000000E+00  0.000000000000E+00  0.500000000000E+01
  0.450000000000E+01  0.400000000000E+01  0.350000000000E+01  0.300000000000E+01  0.250000000000E+01  0.200000000000E+01  0.150000000000E+01
  0.100000000000E+01  0.500000000000E+00  0.000000000000E+00  0.500000000000E+01  0.450000000000E+01  0.400000000000E+01  0.350000000000E+01
  0.300000000000E+01  0.250000000000E+01  0.200000000000E+01  0.150000000000E+01  0.100000000000E+01  0.500000000000E+00  0.500000000000E+01
  0.450000000000E+01  0.400000000000E+01  0.350000000000E+01  0.300000000000E+01  0.250000000000E+01  0.200000000000E+01  0.150000000000E+01
  0.100000000000E+01  0.500000000000E+01  0.450000000000E+01  0.400000000000E+01  0.350000000000E+01  0.300000000000E+01  0.250000000000E+01
  0.200000000000E+01  0.150000000000E+01  0.500000000000E+01  0.450000000000E+01  0.400000000000E+01  0.350000000000E+01  0.300000000000E+01
  0.250000000000E+01  0.200000000000E+01  0.500000000000E+01  0.450000000000E+01  0.400000000000E+01  0.350000000000E+01  0.300000000000E+01
  0.250000000000E+01  0.500000000000E+01  0.450000000000E+01  0.400000000000E+01  0.350000000000E+01  0.300000000000E+01  0.500000000000E+01
  0.450000000000E+01  0.400000000000E+01  0.350000000000E+01  0.500000000000E+01  0.450000000000E+01  0.400000000000E+01  0.500000000000E+01
  0.450000000000E+01  0.500000000000E+01
  0.182276230926E+01  0.111728895691E+01  0.182075788012E+01  0.105219765811E+01  0.111438812840E+01  0.182040511254E+01  0.102623740742E+01
  0.105185802525E+01  0.111438035337E+01  0.182047353068E+01  0.100986985651E+01  0.102602603787E+01  0.105192558009E+01  0.111416523912E+01
  0.182050418097E+01  0.100408133405E+01  0.100980128663E+01  0.102604335759E+01  0.105186005720E+01  0.111414143850E+01  0.182050474437E+01
  0.100151981432E+01  0.100406075980E+01  0.100981282706E+01  0.102599587722E+01  0.105185280050E+01  0.111413340421E+01  0.182050417837E+01
  0.100068377724E+01  0.100151161338E+01  0.100406723009E+01  0.100979285620E+01  0.102599157853E+01  0.105184627231E+01  0.111414143889E+01
  0.182047352309E+01  0.100026147107E+01  0.100067960192E+01  0.100151610331E+01  0.100405852879E+01  0.100979297948E+01  0.102598652125E+01
  0.105185280121E+01  0.111416524286E+01  0.182040512680E+01  0.100010712667E+01  0.100025896622E+01  0.100068253351E+01  0.100151181729E+01
  0.100405952236E+01  0.100978996772E+01  0.102599157884E+01  0.105186005816E+01  0.111438036104E+01  0.182075803882E+01  0.100004404204E+01
  0.100010569196E+01  0.100026088092E+01  0.100068017818E+01  0.100151299083E+01  0.100405766761E+01  0.100979297973E+01  0.102599587687E+01
  0.105192558630E+01  0.111438816241E+01  0.182276258506E+01  0.100004335900E+01  0.100010683629E+01  0.100025941674E+01  0.100068118711E+01
  0.100151175416E+01  0.100405952253E+01  0.100979285600E+01  0.102604336000E+01  0.105185801103E+01  0.111728900362E+01  0.100004391464E+01
  0.100010595800E+01  0.100026018454E+01  0.100068032676E+01  0.100151299089E+01  0.100405852872E+01  0.100981282797E+01  0.102602603043E+01
  0.105219762710E+01  0.100004348700E+01  0.100010647641E+01  0.100025956862E+01  0.100068118714E+01  0.100151181715E+01  0.100406723059E+01
  0.100980128109E+01  0.102623739340E+01  0.100004375378E+01  0.100010606758E+01  0.100026018456E+01  0.100068017812E+01  0.100151610339E+01
  0.100406075866E+01  0.100986984772E+01  0.100004354380E+01  0.100010647641E+01  0.100025941669E+01  0.100068253356E+01  0.100151161288E+01
  0.100408133177E+01  0.100004375379E+01  0.100010595798E+01  0.100026088094E+01  0.100067960179E+01  0.100151981325E+01  0.100004348699E+01
  0.100010683630E+01  0.100025896615E+01  0.100068377682E+01  0.100004391464E+01  0.100010569193E+01  0.100026147088E+01  0.100004335898E+01
  0.100010712658E+01  0.100004404198E+01
  0.000000000000E+00  0.449572778424E+00  0.000000000000E+00  0.466817307488E+00  0.440681437720E+00  0.000000000000E+00  0.478295592451E+00
  0.466813430551E+00  0.440505318320E+00  0.000000000000E+00  0.490775365224E+00  0.478616437698E+00  0.466707381980E+00  0.440706662286E+00
  0.000000000000E+00  0.495755275472E+00  0.490882739693E+00  0.478562364956E+00  0.466799274437E+00  0.440729827533E+00  0.000000000000E+00
  0.498209335037E+00  0.495788830908E+00  0.490858073790E+00  0.478632868158E+00  0.466807363541E+00  0.440743794606E+00  0.000000000000E+00
  0.499123331240E+00  0.498221570257E+00  0.495777280491E+00  0.490888881717E+00  0.478637248090E+00  0.466817051948E+00  0.440729827446E+00
  0.000000000000E+00  0.499625437574E+00  0.499128443084E+00  0.498215701797E+00  0.495791591399E+00  0.490888027557E+00  0.478646182110E+00
  0.466807363029E+00  0.440706661251E+00  0.000000000000E+00  0.499826044863E+00  0.499628042517E+00  0.499125256552E+00  0.498222378622E+00
  0.495790158288E+00  0.490893179831E+00  0.478637247598E+00  0.466799273798E+00  0.440505314396E+00  0.000000000000E+00  0.499911759749E+00
  0.499827373379E+00  0.499626187044E+00  0.499128503166E+00  0.498221018742E+00  0.495793435312E+00  0.490888027259E+00  0.478632867437E+00
  0.466707377568E+00  0.440681424870E+00  0.000000000000E+00  0.499912347782E+00  0.499826359999E+00  0.499627932186E+00  0.499127423006E+00
  0.498222992936E+00  0.495790158041E+00  0.490888881687E+00  0.478562361258E+00  0.466813438618E+00  0.449572767909E+00  0.499911900989E+00
  0.499827266600E+00  0.499627159187E+00  0.499128622380E+00  0.498221018664E+00  0.495791591137E+00  0.490858072931E+00  0.478616434622E+00
  0.466817337525E+00  0.499912299740E+00  0.499826787105E+00  0.499627919334E+00  0.499127422947E+00  0.498222378649E+00  0.495777279708E+00
  0.490882742566E+00  0.478295589331E+00  0.499912088093E+00  0.499827251455E+00  0.499627159164E+00  0.499128503144E+00  0.498215701698E+00
  0.495788830641E+00  0.490775369717E+00  0.499912317362E+00  0.499826787094E+00  0.499627932201E+00  0.499125256456E+00  0.498221570391E+00
  0.495755275764E+00  0.499912088094E+00  0.499827266606E+00  0.499626187024E+00  0.499128443040E+00  0.498209335591E+00  0.499912299744E+00
  0.499826359990E+00  0.499628042529E+00  0.499123331481E+00  0.499911900994E+00  0.499827373389E+00  0.499625437736E+00  0.499912347792E+00
  0.499826044941E+00  0.499911759806E+00
  0.000000000000E+00  0.000000000000E+00  0.000000000000E+00  0.000000000000E+00 -0.100246881993E-02  0.000000000000E+00  0.000000000000E+00
 -0.248562504760E-03 -0.683154805390E-04  0.000000000000E+00  0.000000000000E+00 -0.722759752155E-04 -0.185920269136E-04  0.246669053513E-05
  0.000000000000E+00  0.000000000000E+00 -0.120547689814E-05 -0.691815704894E-05 -0.111673700447E-04  0.230188263443E-04  0.000000000000E+00
  0.000000000000E+00  0.328126065546E-05  0.458142062613E-05 -0.218058846936E-05  0.643822060805E-05 -0.574345164920E-10  0.000000000000E+00
  0.000000000000E+00  0.195561377882E-05  0.269018088541E-05  0.228380049788E-05  0.534623452196E-05  0.216764525112E-09 -0.230177617134E-04
  0.000000000000E+00  0.000000000000E+00  0.643613311583E-06  0.167440181188E-05  0.223892411879E-05  0.307033596625E-05  0.317770206325E-11
 -0.643737372515E-05 -0.246152226811E-05  0.000000000000E+00  0.000000000000E+00  0.175837781934E-06  0.812746774150E-06  0.140669914793E-05
  0.180580646357E-05  0.742938450616E-10 -0.534669522767E-05  0.111706421293E-04  0.683350314615E-04  0.000000000000E+00  0.000000000000E+00
  0.487085377423E-07  0.387660511088E-06  0.620337624063E-06  0.940773097568E-06 -0.446597365388E-10 -0.307026878162E-05  0.217887765558E-05
  0.185975370451E-04  0.100249089269E-02  0.000000000000E+00  0.451709074514E-07  0.172052920857E-06  0.235850854917E-06  0.438125647887E-06
  0.756944324054E-11 -0.180604110726E-05 -0.228378283860E-05  0.690631430211E-05  0.248586750325E-03  0.000000000000E+00  0.804585091550E-07
  0.843371752783E-07  0.210529475733E-06 -0.861030044611E-11 -0.940826441472E-06 -0.223920240220E-05 -0.458442789527E-05  0.722603172089E-04
  0.000000000000E+00  0.707623540041E-07  0.969460333822E-07 -0.126178843203E-12 -0.438174931777E-06 -0.140673515171E-05 -0.269112616374E-05
  0.120067844506E-05  0.000000000000E+00  0.495677109662E-07 -0.436807028783E-12 -0.210549708533E-06 -0.620350295199E-06 -0.167469892850E-05
 -0.328203765410E-05  0.000000000000E+00 -0.598211209189E-12 -0.969575642400E-07 -0.235845964756E-06 -0.812858782685E-06 -0.195578510531E-05
  0.000000000000E+00 -0.495729314629E-07 -0.843357128416E-07 -0.387702196218E-06 -0.643663109399E-06  0.000000000000E+00 -0.707618190926E-07
 -0.172068167246E-06 -0.175856761613E-06  0.000000000000E+00 -0.804615990411E-07 -0.487137406408E-07  0.000000000000E+00 -0.451697452144E-07
  0.000000000000E+00  0.000000000000E+00
  0.000000000000E+00  0.287454845322E+00  0.000000000000E+00  0.101250658671E+00  0.288303532335E+00  0.000000000000E+00  0.313911277473E-01
  0.100457970110E+00  0.288164593977E+00  0.000000000000E+00  0.895624097163E-02  0.313190162231E-01  0.100316193410E+00  0.288158972436E+00
  0.000000000000E+00  0.205093697136E-02  0.898997994362E-02  0.312626398129E-01  0.100241490480E+00  0.288165724881E+00  0.000000000000E+00
  0.382412904622E-03  0.207881429219E-02  0.895610720260E-02  0.312517055304E-01  0.100239316901E+00  0.288167656202E+00  0.000000000000E+00
 -0.367645327284E-04  0.394452864606E-03  0.206348272315E-02  0.896042199200E-02  0.312515217174E-01  0.100241242244E+00  0.288165724376E+00
  0.000000000000E+00 -0.563057363884E-04 -0.326505106808E-04  0.388262370712E-03  0.207091393367E-02  0.895900716106E-02  0.312522982440E-01
  0.100239317359E+00  0.288158971739E+00  0.000000000000E+00 -0.366582625051E-04 -0.550362267113E-04 -0.348434830642E-04  0.392970651114E-03
  0.207009911530E-02  0.896009421378E-02  0.312515222055E-01  0.100241495476E+00  0.288164598483E+00  0.000000000000E+00  0.276894254540E-04
 -0.363737028569E-04 -0.557581000681E-04 -0.325543008386E-04  0.392348912582E-03  0.207124507294E-02  0.895900719085E-02  0.312517083239E-01
  0.100316203389E+00  0.288303509392E+00  0.000000000000E+00  0.273071053350E-04 -0.365345332188E-04 -0.548015632714E-04 -0.329301701952E-04
  0.393225693205E-03  0.207009913263E-02  0.896042201589E-02  0.312626454394E-01  0.100457919621E+00  0.287454790532E+00  0.276068651489E-04
 -0.362448897936E-04 -0.549994197030E-04 -0.323632577200E-04  0.392348881215E-03  0.207091391801E-02  0.895610691521E-02  0.313189963993E-01
  0.101250529490E+00  0.273830094734E-04 -0.363060581712E-04 -0.546732329180E-04 -0.329302012669E-04  0.392970624118E-03  0.206348208448E-02
  0.898997499088E-02  0.313910752986E-01  0.275161324926E-04 -0.361682350332E-04 -0.549994346959E-04 -0.325543423103E-04  0.388262087682E-03
  0.207881257235E-02  0.895622778834E-02  0.274231211924E-04 -0.363060642949E-04 -0.548015812664E-04 -0.348436241895E-04  0.394452552554E-03
  0.205093203382E-02  0.275161346263E-04 -0.362449013611E-04 -0.557581444472E-04 -0.326506507685E-04  0.382411238466E-03  0.273830027624E-04
 -0.365345487221E-04 -0.550362781838E-04 -0.367652136149E-04  0.276068627524E-04 -0.363737296138E-04 -0.563059754131E-04  0.273070933082E-04
 -0.366583457119E-04  0.276893868822E-04
  0.130197307805E+01  0.805725901813E+00  0.130054134294E+01  0.774930036729E+00  0.803173835270E+00  0.130028936610E+01  0.741410728795E+00
  0.774523810734E+00  0.803193468342E+00  0.130033823620E+01  0.724192876396E+00  0.741186703204E+00  0.774588656935E+00  0.802974855024E+00
  0.130036012927E+01  0.718371166069E+00  0.724124623323E+00  0.741201220137E+00  0.774510516155E+00  0.802949587522E+00  0.130036053169E+01
  0.715805602370E+00  0.718350604086E+00  0.724135941689E+00  0.741152538017E+00  0.774501978388E+00  0.802940925551E+00  0.130036012741E+01
  0.714969476831E+00  0.715797407223E+00  0.718357062888E+00  0.724115994718E+00  0.741148148376E+00  0.774494828467E+00  0.802949588086E+00
  0.130033823078E+01  0.714547177788E+00  0.714965305118E+00  0.715801897434E+00  0.718348362868E+00  0.724116102885E+00  0.741143092279E+00
  0.774501979133E+00  0.802974858745E+00  0.130028937628E+01  0.714392858341E+00  0.714544672990E+00  0.714968233872E+00  0.715797610964E+00
  0.718349358481E+00  0.724113099450E+00  0.741148148697E+00  0.774510517340E+00  0.803193475106E+00  0.130054145630E+01  0.714329756094E+00
  0.714391424783E+00  0.714546587761E+00  0.714965880946E+00  0.715798790184E+00  0.718347500542E+00  0.724116103134E+00  0.741152537761E+00
  0.774588663900E+00  0.803173867529E+00  0.130197327504E+01  0.714329070083E+00  0.714392567844E+00  0.714545124162E+00  0.714966888961E+00
  0.715797550461E+00  0.718349358646E+00  0.724115994516E+00  0.741201222748E+00  0.774523794078E+00  0.805725951055E+00  0.714329628110E+00
  0.714391691110E+00  0.714545890488E+00  0.714966029126E+00  0.715798790244E+00  0.718348362800E+00  0.724135942604E+00  0.741186694377E+00
  0.774930000272E+00  0.714329199011E+00  0.714392208015E+00  0.714545276974E+00  0.714966889000E+00  0.715797610826E+00  0.718357063390E+00
  0.724124617726E+00  0.741410711581E+00  0.714329466519E+00  0.714391800507E+00  0.714545890504E+00  0.714965880892E+00  0.715801897509E+00
  0.718350602939E+00  0.724192867528E+00  0.714329255422E+00  0.714392208023E+00  0.714545124119E+00  0.714968233930E+00  0.715797406721E+00
  0.718371163787E+00  0.714329466522E+00  0.714391691086E+00  0.714546587780E+00  0.714965304987E+00  0.715805601298E+00  0.714329198996E+00
  0.714392567853E+00  0.714544672919E+00  0.714969476417E+00  0.714329628108E+00  0.714391424746E+00  0.714547177593E+00  0.714329070061E+00
  0.714392858258E+00  0.714329756033E+00
  0.000000000000E+00  0.531072565270E+00  0.000000000000E+00  0.470416732849E+00  0.524251990698E+00  0.000000000000E+00  0.476606753853E+00
  0.470295593291E+00  0.524020368470E+00  0.000000000000E+00  0.489887798082E+00  0.476943358743E+00  0.470159472077E+00  0.524205797789E+00
  0.000000000000E+00  0.495355561749E+00  0.490002013713E+00  0.476885396635E+00  0.470241577711E+00  0.524231428143E+00  0.000000000000E+00
  0.498058317570E+00  0.495391219993E+00  0.489975753027E+00  0.476959273565E+00  0.470249887496E+00  0.524245055375E+00  0.000000000000E+00
  0.499055140508E+00  0.498071370411E+00  0.495378984173E+00  0.490008477404E+00  0.476964021051E+00  0.470260326576E+00  0.524231427703E+00
  0.000000000000E+00  0.499599324751E+00  0.499060666176E+00  0.498065053130E+00  0.495394167604E+00  0.490007592608E+00  0.476973387738E+00
  0.470249887031E+00  0.524205796213E+00  0.000000000000E+00  0.499815332675E+00  0.499602179527E+00  0.499057189085E+00  0.498072157178E+00
  0.495392634073E+00  0.490013039194E+00  0.476964020561E+00  0.470241577983E+00  0.524020367257E+00  0.000000000000E+00  0.499907357423E+00
  0.499816804123E+00  0.499600133008E+00  0.499060668970E+00  0.498070678765E+00  0.495396096277E+00  0.490007592287E+00  0.476959273033E+00
  0.470159469167E+00  0.524251965001E+00  0.000000000000E+00  0.499908014753E+00  0.499815676858E+00  0.499602023960E+00  0.499059488761E+00
  0.498072776857E+00  0.495392633810E+00  0.490008477394E+00  0.476885393049E+00  0.470295592487E+00  0.531072521953E+00  0.499907511596E+00
  0.499816670649E+00  0.499601174868E+00  0.499060773490E+00  0.498070678681E+00  0.495394167349E+00  0.489975752077E+00  0.476943355513E+00
  0.470416738925E+00  0.499907953595E+00  0.499816139885E+00  0.499601995602E+00  0.499059488698E+00  0.498072157219E+00  0.495378983339E+00
  0.490002017038E+00  0.476606749621E+00  0.499907715032E+00  0.499816644611E+00  0.499601174844E+00  0.499060668952E+00  0.498065053023E+00
  0.495391219832E+00  0.489887803193E+00  0.499907965676E+00  0.499816139873E+00  0.499602023979E+00  0.499057188984E+00  0.498071370595E+00
  0.495355562246E+00  0.499907715033E+00  0.499816670657E+00  0.499600132986E+00  0.499060666145E+00  0.498058318229E+00  0.499907953600E+00
  0.499815676848E+00  0.499602179546E+00  0.499055140790E+00  0.499907511602E+00  0.499816804137E+00  0.499599324933E+00  0.499908014766E+00
  0.499815332762E+00  0.499907357487E+00
  0.100000000000E+01  0.100960119185E+01  0.100000000000E+01  0.103108198641E+01  0.100902310489E+01  0.100000000000E+01  0.101143752197E+01
  0.103087423302E+01  0.100905480995E+01  0.100000000000E+01  0.100396107520E+01  0.101134020598E+01  0.103089433343E+01  0.100897493259E+01
  0.100000000000E+01  0.100163163919E+01  0.100393462166E+01  0.101134294230E+01  0.103085454685E+01  0.100896473615E+01  0.100000000000E+01
  0.100060710630E+01  0.100162349330E+01  0.100393884015E+01  0.101132331646E+01  0.103085029505E+01  0.100896112757E+01  0.100000000000E+01
  0.100027330345E+01  0.100060384395E+01  0.100162604445E+01  0.100393104029E+01  0.101132156387E+01  0.103084717644E+01  0.100896473650E+01
  0.100000000000E+01  0.100010455049E+01  0.100027164064E+01  0.100060563489E+01  0.100162259388E+01  0.100393106769E+01  0.101131964963E+01
  0.103085029535E+01  0.100897493388E+01  0.100000000000E+01  0.100004287042E+01  0.100010354915E+01  0.100027280771E+01  0.100060392504E+01
  0.100162299094E+01  0.100392989794E+01  0.101132156401E+01  0.103085454749E+01  0.100905481150E+01  0.100000000000E+01  0.100001761571E+01
  0.100004229826E+01  0.100010431473E+01  0.100027187023E+01  0.100060440097E+01  0.100162225059E+01  0.100393106779E+01  0.101132331645E+01
  0.103089433662E+01  0.100902311463E+01  0.100000000000E+01  0.100001733836E+01  0.100004275412E+01  0.100010373018E+01  0.100027227197E+01
  0.100060390354E+01  0.100162299101E+01  0.100393104021E+01  0.101134294349E+01  0.103087422479E+01  0.100960121135E+01  0.100001756394E+01
  0.100004240506E+01  0.100010403507E+01  0.100027192901E+01  0.100060440100E+01  0.100162259385E+01  0.100393884051E+01  0.101134020127E+01
  0.103108196829E+01  0.100001739086E+01  0.100004261028E+01  0.100010379220E+01  0.100027227199E+01  0.100060392498E+01  0.100162604465E+01
  0.100393461942E+01  0.101143751230E+01  0.100001749858E+01  0.100004244863E+01  0.100010403508E+01  0.100027187021E+01  0.100060563492E+01
  0.100162349284E+01  0.100396107164E+01  0.100001741303E+01  0.100004261028E+01  0.100010373016E+01  0.100027280774E+01  0.100060384375E+01
  0.100163163827E+01  0.100001749858E+01  0.100004240505E+01  0.100010431474E+01  0.100027164059E+01  0.100060710588E+01  0.100001739085E+01
  0.100004275413E+01  0.100010354913E+01  0.100027330328E+01  0.100001756394E+01  0.100004229825E+01  0.100010455042E+01  0.100001733835E+01
  0.100004287039E+01  0.100001761569E+01
        67        57        46        56
        57        47        37        46
        47        38        29        37
        38        30        22        29
        30        23        16        22
        23        17        11        16
        17        12         7        11
        12         8         4         7
         8         5         2         4
         5         3         1         2
        77        68        57        67
        68        58        47        57
        58        48        38        47
        48        39        30        38
        39        31        23        30
        31        24        17        23
        24        18        12        17
        18        13         8        12
        13         9         5         8
         9         6         3         5
        86        78        68        77
        78        69        58        68
        69        59        48        58
        59        49        39        48
        49        40        31        39
        40        32        24        31
        32        25        18        24
        25        19        13        18
        19        14         9        13
        14        10         6         9
        94        87        78        86
        87        79        69        78
        79        70        59        69
        70        60        49        59
        60        50        40        49
        50        41        32        40
        41        33        25        32
        33        26        19        25
        26        20        14        19
        20        15        10        14
       101        95        87        94
        95        88        79        87
        88        80        70        79
        80        71        60        70
        71        61        50        60
        61        51        41        50
        51        42        33        41
        42        34        26        33
        34        27        20        26
        27        21        15        20
       107       102        95       101
       102        96        88        95
        96        89        80        88
        89        81        71        80
        81        72        61        71
        72        62        51        61
        62        52        42        51
        52        43        34        42
        43        35        27        34
        35        28        21        27
       112       108       102       107
       108       103        96       102
       103        97        89        96
        97        90        81        89
        90        82        72        81
        82        73        62        72
        73        63        52        62
        63        53        43        52
        53        44        35        43
        44        36        28        35
       116       113       108       112
       113       109       103       108
       109       104        97       103
       104        98        90        97
        98        91        82        90
        91        83        73        82
        83        74        63        73
        74        64        53        63
        64        54        44        53
        54        45        36        44
       119       117       113       116
       117       114       109       113
       114       110       104       109
       110       105        98       104
       105        99        91        98
        99        92        83        91
        92        84        74        83
        84        75        64        74
        75        65        54        64
        65        55        45        54
       121       120       117       119
       120       118       114       117
       118       115       110       114
       115       111       105       110
       111       106        99       105
       106       100        92        99
       100        93        84        92
        93        85        75        84
        85        76        65        75
        76        66        55        65
zone t="boundary 2 bc-2", solutiontime= 0.6000000E+02, strandid=1002, i=121, j=100, f=feblock
  0.000000000000E+00  0.500000000000E+00  0.000000000000E+00  0.100000000000E+01  0.500000000000E+00  0.000000000000E+00  0.150000000000E+01
  0.100000000000E+01  0.500000000000E+00  0.000000000000E+00  0.200000000000E+01  0.150000000000E+01  0.100000000000E+01  0.500000000000E+00
  0.000000000000E+00  0.250000000000E+01  0.200000000000E+01  0.150000000000E+01  0.100000000000E+01  0.500000000000E+00  0.000000000000E+00
  0.300000000000E+01  0.250000000000E+01  0.200000000000E+01  0.150000000000E+01  0.100000000000E+01  0.500000000000E+00  0.000000000000E+00
  0.350000000000E+01  0.300000000000E+01  0.250000000000E+01  0.200000000000E+01  0.150000000000E+01  0.100000000000E+01  0.500000000000E+00
  0.000000000000E+00  0.400000000000E+01  0.350000000000E+01  0.300000000000E+01  0.250000000000E+01  0.200000000000E+01  0.150000000000E+01
  0.100000000000E+01  0.500000000000E+00  0.000000000000E+00  0.450000000000E+01  0.400000000000E+01  0.350000000000E+01  0.300000000000E+01
  0.250000000000E+01  0.200000000000E+01  0.150000000000E+01  0.100000000000E+01  0.500000000000E+00  0.000000000000E+00  0.500000000000E+01