# vtk DataFile Version 2.0
FUN3D:global_image_vtk
ASCII
DATASET UNSTRUCTURED_GRID
POINTS 1331 double
    0.0000000000000000E+00    0.2500000000000000E+01    0.0000000000000000E+00
    0.5000000000000000E+00    0.2500000000000000E+01    0.0000000000000000E+00
    0.1000000000000000E+01    0.2500000000000000E+01    0.0000000000000000E+00
    0.1500000000000000E+01    0.2500000000000000E+01    0.0000000000000000E+00
    0.2000000000000000E+01    0.2500000000000000E+01    0.0000000000000000E+00
    0.2500000000000000E+01    0.2500000000000000E+01    0.0000000000000000E+00
    0.3000000000000000E+01    0.2500000000000000E+01    0.0000000000000000E+00
    0.3500000000000000E+01    0.2500000000000000E+01    0.0000000000000000E+00
    0.4000000000000000E+01    0.2500000000000000E+01    0.0000000000000000E+00
    0.4500000000000000E+01    0.2500000000000000E+01    0.0000000000000000E+00
    0.5000000000000000E+01    0.2500000000000000E+01    0.0000000000000000E+00
    0.0000000000000000E+00    0.2500000000000000E+01    0.4999999999999982E+00
    0.4999999999999998E+00    0.2500000000000000E+01    0.4999999999999984E+00
    0.9999999999999998E+00    0.2500000000000000E+01    0.4999999999999987E+00
    0.1500000000000000E+01    0.2500000000000000E+01    0.4999999999999989E+00
    0.2000000000000000E+01    0.2500000000000000E+01    0.4999999999999991E+00
    0.2500000000000000E+01    0.2500000000000000E+01    0.4999999999999993E+00
    0.3000000000000000E+01    0.2500000000000000E+01    0.4999999999999996E+00
    0.3500000000000000E+01    0.2500000000000000E+01    0.4999999999999998E+00
    0.4000000000000000E+01    0.2500000000000000E+01    0.5000000000000000E+00
    0.4500000000000002E+01    0.2500000000000000E+01    0.5000000000000002E+00
    0.5000000000000000E+01    0.2500000000000000E+01    0.5000000000000004E+00
    0.0000000000000000E+00    0.2500000000000000E+01    0.1000000000000001E+01
    0.4999999999999997E+00    0.2500000000000000E+01    0.1000000000000001E+01
    0.1000000000000000E+01    0.2500000000000000E+01    0.1000000000000001E+01
    0.1500000000000000E+01    0.2500000000000000E+01    0.1000000000000001E+01
    0.2000000000000000E+01    0.2500000000000000E+01    0.1000000000000001E+01
    0.2500000000000000E+01    0.2500000000000000E+01    0.1000000000000001E+01
    0.3000000000000000E+01    0.2500000000000000E+01    0.1000000000000001E+01
    0.3500000000000000E+01    0.2500000000000000E+01    0.1000000000000001E+01
    0.4000000000000000E+01    0.2500000000000000E+01    0.1000000000000001E+01
    0.4499999999999999E+01    0.2500000000000000E+01    0.1000000000000001E+01
    0.5000000000000000E+01    0.2500000000000000E+01    0.1000000000000001E+01
    0.0000000000000000E+00    0.2500000000000000E+01    0.1499999999999999E+01
    0.4999999999999994E+00    0.2500000000000000E+01    0.1499999999999999E+01
    0.1000000000000000E+01    0.2500000000000000E+01    0.1499999999999999E+01
    0.1500000000000000E+01    0.2500000000000000E+01    0.1499999999999999E+01
    0.2000000000000001E+01    0.2500000000000000E+01    0.1499999999999999E+01
    0.2500000000000000E+01    0.2500000000000000E+01    0.1499999999999999E+01
    0.2999999999999999E+01    0.2500000000000000E+01    0.1499999999999999E+01
    0.3500000000000000E+01    0.2500000000000000E+01    0.1499999999999999E+01
    0.4000000000000001E+01    0.2500000000000000E+01    0.1499999999999999E+01
    0.4500000000000001E+01    0.2500000000000000E+01    0.1499999999999999E+01
    0.5000000000000000E+01    0.2500000000000000E+01    0.1499999999999999E+01
    0.0000000000000000E+00    0.2500000000000000E+01    0.2000000000000002E+01
    0.4999999999999992E+00    0.2500000000000000E+01    0.2000000000000001E+01
    0.1000000000000000E+01    0.2500000000000000E+01    0.2000000000000001E+01
    0.1500000000000000E+01    0.2500000000000000E+01    0.2000000000000001E+01
    0.2000000000000001E+01    0.2500000000000000E+01    0.2000000000000001E+01
    0.2500000000000000E+01    0.2500000000000000E+01    0.2000000000000001E+01
    0.2999999999999999E+01    0.2500000000000000E+01    0.2000000000000000E+01
    0.3500000000000000E+01    0.2500000000000000E+01    0.2000000000000000E+01
    0.4000000000000000E+01    0.2500000000000000E+01    0.2000000000000000E+01
    0.4500000000000000E+01    0.2500000000000000E+01    0.2000000000000000E+01
    0.5000000000000000E+01    0.2500000000000000E+01    0.2000000000000000E+01
    0.0000000000000000E+00    0.2500000000000000E+01    0.2500000000000000E+01
    0.4999999999999991E+00    0.2500000000000000E+01    0.2500000000000000E+01
    0.1000000000000000E+01    0.2500000000000000E+01    0.2500000000000000E+01
    0.1500000000000000E+01    0.2500000000000000E+01    0.2500000000000000E+01
    0.2000000000000001E+01    0.2500000000000000E+01    0.2500000000000000E+01
    0.2500000000000000E+01    0.2500000000000000E+01    0.2500000000000000E+01
    0.2999999999999999E+01    0.2500000000000000E+01    0.2500000000000000E+01
    0.3500000000000001E+01    0.2500000000000000E+01    0.2500000000000000E+01
    0.4000000000000000E+01    0.2500000000000000E+01    0.2500000000000000E+01
    0.4500000000000001E+01    0.2500000000000000E+01    0.2500000000000000E+01
    0.5000000000000000E+01    0.2500000000000000E+01    0.2500000000000000E+01
    0.0000000000000000E+00    0.2500000000000000E+01    0.2999999999999998E+01
    0.4999999999999989E+00    0.2500000000000000E+01    0.2999999999999998E+01
    0.1000000000000000E+01    0.2500000000000000E+01    0.2999999999999999E+01
    0.1499999999999999E+01    0.2500000000000000E+01    0.2999999999999999E+01
    0.2000000000000001E+01    0.2500000000000000E+01    0.2999999999999999E+01
    0.2500000000000000E+01    0.2500000000000000E+01    0.2999999999999999E+01
    0.2999999999999999E+01    0.2500000000000000E+01    0.2999999999999999E+01
    0.3500000000000001E+01    0.2500000000000000E+01    0.3000000000000000E+01
    0.4000000000000000E+01    0.2500000000000000E+01    0.3000000000000000E+01
    0.4500000000000001E+01    0.2500000000000000E+01    0.3000000000000000E+01
    0.5000000000000000E+01    0.2500000000000000E+01    0.3000000000000000E+01
    0.0000000000000000E+00    0.2500000000000000E+01    0.3500000000000001E+01
    0.4999999999999988E+00    0.2500000000000000E+01    0.3500000000000001E+01
    0.1000000000000001E+01    0.2500000000000000E+01    0.3500000000000001E+01
    0.1499999999999999E+01    0.2500000000000000E+01    0.3500000000000001E+01
    0.2000000000000001E+01    0.2500000000000000E+01    0.3500000000000001E+01
    0.2500000000000000E+01    0.2500000000000000E+01    0.3500000000000001E+01
    0.2999999999999999E+01    0.2500000000000000E+01    0.3500000000000001E+01
    0.3500000000000001E+01    0.2500000000000000E+01    0.3500000000000001E+01
    0.4000000000000001E+01    0.2500000000000000E+01    0.3500000000000001E+01
    0.4500000000000001E+01    0.2500000000000000E+01    0.3500000000000001E+01
    0.5000000000000000E+01    0.2500000000000000E+01    0.3500000000000001E+01
    0.0000000000000000E+00    0.2500000000000000E+01    0.3999999999999999E+01
    0.4999999999999986E+00    0.2500000000000000E+01    0.4000000000000000E+01
    0.1000000000000001E+01    0.2500000000000000E+01    0.3999999999999999E+01
    0.1499999999999999E+01    0.2500000000000000E+01    0.3999999999999999E+01
    0.2000000000000001E+01    0.2500000000000000E+01    0.3999999999999999E+01
    0.2500000000000000E+01    0.2500000000000000E+01    0.3999999999999999E+01
    0.2999999999999998E+01    0.2500000000000000E+01    0.3999999999999999E+01
    0.3500000000000001E+01    0.2500000000000000E+01    0.3999999999999999E+01
    0.3999999999999999E+01    0.2500000000000000E+01    0.3999999999999999E+01
    0.4500000000000003E+01    0.2500000000000000E+01    0.3999999999999999E+01
    0.5000000000000000E+01    0.2500000000000000E+01    0.3999999999999999E+01
    0.0000000000000000E+00    0.2500000000000000E+01    0.4500000000000002E+01
    0.4999999999999984E+00    0.2500000000000000E+01    0.4500000000000002E+01
    0.1000000000000001E+01    0.2500000000000000E+01    0.4500000000000001E+01
    0.1499999999999999E+01    0.2500000000000000E+01    0.4500000000000003E+01
    0.2000000000000002E+01    0.2500000000000000E+01    0.4500000000000001E+01
    0.2500000000000000E+01    0.2500000000000000E+01    0.4500000000000001E+01
    0.2999999999999998E+01    0.2500000000000000E+01    0.4500000000000001E+01
    0.3500000000000001E+01    0.2500000000000000E+01    0.4499999999999999E+01
    0.3999999999999999E+01    0.2500000000000000E+01    0.4499999999999999E+01
    0.4500000000000002E+01    0.2500000000000000E+01    0.4500000000000000E+01
    0.5000000000000000E+01    0.2500000000000000E+01    0.4500000000000000E+01
    0.0000000000000000E+00    0.2500000000000000E+01    0.5000000000000000E+01
    0.4999999999999982E+00    0.2500000000000000E+01    0.5000000000000000E+01
    0.1000000000000001E+01    0.2500000000000000E+01    0.5000000000000000E+01
    0.1499999999999999E+01    0.2500000000000000E+01    0.5000000000000000E+01
    0.2000000000000002E+01    0.2500000000000000E+01    0.5000000000000000E+01
    0.2500000000000000E+01    0.2500000000000000E+01    0.5000000000000000E+01
    0.2999999999999998E+01    0.2500000000000000E+01    0.5000000000000000E+01
    0.3500000000000001E+01    0.2500000000000000E+01    0.5000000000000000E+01
    0.3999999999999999E+01    0.2500000000000000E+01    0.5000000000000000E+01
    0.4500000000000002E+01    0.2500000000000000E+01    0.5000000000000000E+01
    0.5000000000000000E+01    0.2500000000000000E+01    0.5000000000000000E+01
    0.0000000000000000E+00    0.2000000000000000E+01    0.0000000000000000E+00
    0.5000000000000000E+00    0.2000000000000000E+01    0.0000000000000000E+00
    0.1000000000000000E+01    0.2000000000000000E+01    0.0000000000000000E+00
    0.1500000000000000E+01    0.2000000000000000E+01    0.0000000000000000E+00
[...]
POINT_DATA 1331
SCALARS rho double 1
LOOKUP_TABLE default
   0.8345266216157617E+00
   0.9344826782193493E+00
   0.9545375936999259E+00
   0.9671036677837652E+00
   0.9706755818307972E+00
   0.9718408235841418E+00
   0.9732934101620944E+00
   0.9729796385082089E+00
   0.9569508613523290E+00
   0.8376591169105867E+00
   0.3942156438011936E+00
   0.9957373633886014E+00
   0.9937728230516327E+00
   0.9938381055453754E+00
   0.9932265618461323E+00
   0.9921810815025388E+00
   0.9905922214791043E+00
   0.9892956406296244E+00
   0.9852434355374303E+00
   0.9844530385482366E+00
   0.9741413147786896E+00
   0.9997721796778071E+00
   0.9963284983928219E+00
   0.9942102829415186E+00
   0.9947095407093742E+00
   0.9951315731893999E+00
   0.9951336887061675E+00
   0.9951531072018223E+00
   0.9947999845578025E+00
   0.9945199354973959E+00
   0.9893382252760606E+00
   0.9891150805986508E+00
   0.9652185435778864E+00
   0.9959193845291209E+00
   0.9959253878747706E+00
   0.9955356107650474E+00
   0.9950316164364037E+00
   0.9944827606804139E+00
   0.9938604012336432E+00
   0.9931920679132394E+00
   0.9932941549897627E+00
   0.9931266434039542E+00
   0.9967039825193778E+00
   0.9958156498955101E+00
   0.9954626428663220E+00
   0.9952117434006669E+00
   0.9952672793519290E+00
   0.9953018100235034E+00
   0.9951126986372976E+00
   0.9948994067471330E+00
   0.9942238199495123E+00
   0.9940882697809752E+00
   0.9928164375794126E+00
   0.9944440062551182E+00
   0.9940962748281280E+00
   0.9959536703037826E+00
   0.9959459926257811E+00
   0.9956959288914828E+00
   0.9954748982647531E+00
   0.9953117887431586E+00
   0.9953610755689734E+00
   0.9953474687595540E+00
   0.9958636856870057E+00
   0.9960538897883593E+00
   0.9973759648887476E+00
   0.9982037676515951E+00
   0.9961304624758246E+00
   0.9961316245766704E+00
   0.9960671046912944E+00
   0.9959441631011886E+00
   0.9957161476405910E+00
   0.9956429209071919E+00
   0.9955859237716440E+00
   0.9960371937275044E+00
   0.9964476061528226E+00
   0.9977452313764900E+00
   0.9989626812480873E+00
   0.9964946329517176E+00
   0.9965129714511608E+00
   0.9963652857214748E+00
   0.9962703762446262E+00
   0.9961549917658813E+00
   0.9961339822802587E+00
   0.9961166603403456E+00
   0.9964411860545500E+00
   0.9968359524460307E+00
   0.9978052751798437E+00
   0.9987973968681041E+00
   0.9969932803708764E+00
   0.9969057671077944E+00
   0.9966738780585073E+00
   0.9965368984685278E+00
   0.9964280056008326E+00
   0.9964478706960519E+00
   0.9965020259192613E+00
   0.9967964391951531E+00
   0.9971639573142758E+00
   0.9978779065666472E+00
   0.9987160234294375E+00
   0.9976688652468971E+00
   0.9973989309203534E+00
   0.9970259375313303E+00
   0.9967679018490039E+00
   0.9965828236260117E+00
   0.9965544732097623E+00
   0.9966258638783498E+00
   0.9969214798156435E+00
   0.9973568561370612E+00
   0.9980845411727522E+00
   0.9989969808319368E+00
   0.9985677039676516E+00
   0.9978178458769935E+00
   0.9973177971384779E+00
   0.9969607781835746E+00
   0.9966910630866916E+00
   0.9965769612798930E+00
   0.9965740535828650E+00
   0.9968060735280647E+00
   0.9973161256303144E+00
   0.9981721099520983E+00
   0.9991724335131856E+00
   0.8338874964676892E+00
   0.9344717801995364E+00
   0.9547118661118205E+00
   0.9671364715743935E+00
   0.9705379897352787E+00
   0.9716585149306142E+00
   0.9730160911237858E+00
   0.9726572619880424E+00
   0.9566862983516107E+00
   0.8380950403253852E+00
   0.3966911414979797E+00
   0.9957219777937838E+00
   0.9938084680955587E+00
   0.9938941163222067E+00
   0.9932702791514149E+00
   0.9922288836045415E+00
   0.9906361682306722E+00
   0.9893239990801311E+00
   0.9851524951167165E+00
   0.9841555068651506E+00
   0.9739075713385533E+00
   0.9998668980777264E+00
   0.9962710224378505E+00
   0.9941976097899892E+00
   0.9947016256682999E+00
   0.9951187844626793E+00
   0.9951238194104912E+00
   0.9951433323337886E+00
   0.9947934216695669E+00
   0.9945073388853196E+00
   0.9893343011037303E+00
   0.9891786661142917E+00
   0.9654013391946238E+00
   0.9959156848677971E+00
   0.9959223835820740E+00
   0.9955389499773334E+00
   0.9950323125225150E+00
   0.9944821027505534E+00
   0.9938548189744648E+00
   0.9931811202227400E+00
   0.9932701814142864E+00
   0.9930868720430086E+00
   0.9966804015721588E+00
   0.9958637252244996E+00
   0.9954588404430479E+00
   0.9952065999780363E+00
   0.9952613190001314E+00
   0.9952935343478241E+00
   0.9951037575520880E+00
   0.9948885030153988E+00
   0.9942141016655540E+00
   0.9940797257611463E+00
   0.9928130076530335E+00
   0.9944547119252158E+00
   0.9941330926757218E+00
   0.9959546911382150E+00
   0.9959442782307877E+00
   0.9956923638190753E+00
   0.9954678699858077E+00
   0.9953021575668026E+00
   0.9953483326611149E+00
   0.9953347027975955E+00
   0.9958524598576559E+00
   0.9960504500131449E+00
   0.9973897788830844E+00
   0.9982369411247501E+00
   0.9961332197914012E+00
   0.9961315751729362E+00
   0.9960639374822298E+00
   0.9959365068908586E+00
   0.9957052516719568E+00
   0.9956294065079679E+00
   0.9955742056661394E+00
   0.9960299694442601E+00
   0.9964506321530250E+00
   0.9977671920435888E+00
   0.9990038313786135E+00
   0.9964977007318171E+00
   0.9965135927825438E+00
   0.9963632450457893E+00
   0.9962645939672327E+00
   0.9961461643282863E+00
   0.9961228249381434E+00
   0.9961063128270229E+00
   0.9964346236721947E+00
   0.9968384935367200E+00
   0.9978247964650950E+00
   0.9988352017860834E+00
   0.9969975717979364E+00
   0.9969075799258298E+00
   0.9966729909526443E+00
   0.9965318720200158E+00
   0.9964201923365803E+00
   0.9964386120036375E+00
   0.9964952870553028E+00
   0.9967955153442656E+00
   0.9971737142357038E+00
   0.9979068533318166E+00
   0.9987667103078487E+00
   0.9976730515845563E+00
   0.9974012891852826E+00
   0.9970264774092887E+00
   0.9967653600584510E+00
   0.9965784594121091E+00
   0.9965485180906772E+00
   0.9966208144156780E+00
   0.9969190391989395E+00
   0.9973615576096138E+00
   0.9981043120241039E+00
   0.9990374226480483E+00
   0.9985714321929248E+00
   0.9978212138157635E+00
   0.9973200839645292E+00
   0.9969583725625668E+00
   0.9966848615506060E+00
   0.9965673930143270E+00
   0.9965665261025390E+00
   0.9968052884103198E+00
   0.9973270986000379E+00
   0.9982062094900631E+00
   0.9992310331523107E+00
   0.8339234061873264E+00
   0.9346065979103799E+00
   0.9548603632423976E+00
   0.9672614646550189E+00
   0.9707223910994400E+00
   0.9718625704491788E+00
   0.9733047595285849E+00
   0.9729733196381249E+00
   0.9570942307960820E+00
   0.8385320119156287E+00
   0.3969179194635764E+00
   0.9957313768259993E+00
   0.9938147247278251E+00
   0.9938904820660068E+00
   0.9932683895103104E+00
   0.9922297116994873E+00
   0.9906406489442707E+00
   0.9893311051782182E+00
   0.9851835469980815E+00
   0.9842183311705794E+00
   0.9740228486724647E+00
   0.9999173251023654E+00
   0.9962742792000988E+00
   0.9942100393939003E+00
   0.9947098129955363E+00
   0.9951228746610825E+00
   0.9951238008579989E+00
   0.9951419446449895E+00
   0.9947852588248837E+00
   0.9945007937153425E+00
   0.9893216351433098E+00
   0.9891561725495442E+00
   0.9653583966507471E+00
   0.9959155556166158E+00
   0.9959233741665932E+00
   0.9955387679659311E+00
   0.9950350601309120E+00
   0.9944865430607119E+00
   0.9938621840415893E+00
   0.9931873492457889E+00
   0.9932763909999990E+00
   0.9930890726008912E+00
   0.9966687563251079E+00
   0.9958219007140222E+00
   0.9954585847197575E+00
   0.9952095651141124E+00
   0.9952658201106374E+00
   0.9953006312088851E+00
   0.9951117882990270E+00
   0.9948988258539582E+00
   0.9942227064166405E+00
   0.9940858704377752E+00
   0.9928108576065199E+00
   0.9944353634877393E+00
   0.9940939898739151E+00
   0.9959537483439096E+00
   0.9959453315222612E+00
   0.9956951390466021E+00
   0.9954739252995498E+00
   0.9953107285674879E+00
   0.9953596973915028E+00
   0.9953453847280688E+00
   0.9958604352403976E+00
   0.9960497545756982E+00
   0.9973712061362388E+00
   0.9982014850901039E+00
   0.9961304764888873E+00
   0.9961314223600011E+00
   0.9960668801813650E+00
   0.9959438704967711E+00
   0.9957156171543768E+00
   0.9956420639052054E+00
   0.9955847091991040E+00
   0.9960354710226657E+00
   0.9964456263092694E+00
   0.9977430687889937E+00
   0.9989614776424554E+00
   0.9964946639714469E+00
   0.9965128313040157E+00
   0.9963650840606479E+00
   0.9962702046818797E+00
   0.9961548016142709E+00
   0.9961335716059350E+00
   0.9961159681467937E+00
   0.9964401418366432E+00
   0.9968347284024340E+00
   0.9978040793483467E+00
   0.9987966213057572E+00
   0.9969932594398998E+00
   0.9969056904117287E+00
   0.9966737140438010E+00
   0.9965367471802479E+00
   0.9964279033663543E+00
   0.9964477155759025E+00
   0.9965017418598338E+00
   0.9967959510459802E+00
   0.9971632988578019E+00
   0.9978772014520368E+00
   0.9987154388732814E+00
   0.9976688616310583E+00
   0.9973989091557719E+00
   0.9970258243898843E+00
   0.9967677313229354E+00
   0.9965826748690665E+00
   0.9965543340556421E+00
   0.9966256860079964E+00
   0.9969212109852009E+00
   0.9973564877012912E+00
   0.9980841195507661E+00
   0.9989966114775443E+00
   0.9985676896063438E+00
   0.9978178234600152E+00
   0.9973177291137629E+00
   0.9969606471572576E+00
   0.9966909200355013E+00
   0.9965768477440340E+00
   0.9965739623426988E+00
   0.9968059695460745E+00
   0.9973159579927562E+00
   0.9981718708760646E+00
   0.9991721955973939E+00
   0.8339617834124762E+00
   0.9345288266407372E+00
   0.9547726262894675E+00
   0.9671645149090681E+00
   0.9705494985335633E+00
   0.9716657375658443E+00
   0.9730217366818564E+00
   0.9726770165411455E+00
   0.9567718644363569E+00
   0.8382993916685446E+00
   0.3968226228947115E+00
   0.9957258697437954E+00
   0.9938135415608059E+00
   0.9938938678037583E+00
   0.9932684258586698E+00
   0.9922297833792646E+00
   0.9906368946077476E+00
   0.9893236119808019E+00
   0.9851554787444818E+00
   0.9841669448798716E+00
   0.9739656953557656E+00
   0.9999167028848436E+00
   0.9962732923450580E+00
   0.9942091076409429E+00
   0.9947065659122903E+00
   0.9951174537710611E+00
   0.9951196818352779E+00
   0.9951377280335191E+00
   0.9947868644343412E+00
   0.9945049580965832E+00
   0.9893420141853639E+00
   0.9891932673944713E+00
   0.9654077089497162E+00
   0.9959168665861848E+00
   0.9959233876125028E+00
   0.9955386396212831E+00
   0.9950311932162315E+00
   0.9944801091294609E+00
   0.9938518014881715E+00
   0.9931776183922241E+00
   0.9932674395215062E+00
   0.9930881085956275E+00
   0.9966899237836044E+00
   0.9958694008251842E+00
   0.9954597036767957E+00
   0.9952091401864475E+00
   0.9952632927263811E+00
   0.9952945827385175E+00
   0.9951037745613788E+00
   0.9948874035685357E+00
   0.9942123897917344E+00
   0.9940785023861126E+00
   0.9928128719116039E+00
   0.9944564426303661E+00
   0.9941334205594398E+00
   0.9959555883979815E+00
   0.9959451982481033E+00
   0.9956930236492817E+00
   0.9954683308883706E+00
   0.9953026350565775E+00
   0.9953485544146227E+00
   0.9953346019721019E+00
   0.9958524385302574E+00
   0.9960507695324901E+00
   0.9973915758024319E+00
   0.9982403381328558E+00
   0.9961333942713639E+00
   0.9961321513843080E+00
   0.9960645657473893E+00
   0.9959369822943531E+00
   0.9957056550031631E+00
   0.9956298127415872E+00
   0.9955746391162877E+00
   0.9960306666187866E+00
   0.9964515649892060E+00
   0.9977687608975285E+00
   0.9990063656498400E+00
   0.9964976545150545E+00
   0.9965138639142495E+00
   0.9963635315374116E+00
   0.9962648220381607E+00
   0.9961464200370956E+00
   0.9961231490414866E+00
   0.9961066995868341E+00
   0.9964352125768412E+00
   0.9968393468993070E+00
   0.9978260923965943E+00
   0.9988366290063218E+00
   0.9969974975252905E+00
   0.9969077139389778E+00
   0.9966731848280055E+00
   0.9965320332341188E+00
   0.9964203429851650E+00
   0.9964388529532680E+00
   0.9964956578653174E+00
   0.9967960494588947E+00
   0.9971744134983862E+00
   0.9979077287802454E+00
   0.9987673377703088E+00
   0.9976730320114567E+00
   0.9974013831665615E+00
   0.9970266422166822E+00
   0.9967654492780144E+00
   0.9965784595134051E+00
   0.9965485611652513E+00
   0.9966210180495019E+00
   0.9969194500184190E+00
   0.9973621710533309E+00
   0.9981050217597716E+00
   0.9990378964480718E+00
   0.9985714323932138E+00
   0.9978211873373275E+00
   0.9973201605340575E+00
   0.9969585239889367E+00
   0.9966850010870052E+00
   0.9965675145022131E+00
   0.9965667120512360E+00
   0.9968056182293187E+00
   0.9973275875313139E+00
   0.9982068242030562E+00
   0.9992314596686249E+00
   0.8339274297490300E+00
   0.9345984560805095E+00
   0.9548629647261461E+00
   0.9672703253111270E+00
   0.9707298438084524E+00
   0.9718650121101636E+00
   0.9733029158956319E+00
   0.9729725921162524E+00
   0.9571105680777714E+00
   0.8385788506983901E+00
   0.3969423079451284E+00
   0.9957251576395735E+00
   0.9938150094629858E+00
   0.9938949526388307E+00
   0.9932697891460750E+00
   0.9922290705402742E+00
   0.9906352487926660E+00
   0.9893171874965880E+00
   0.9851548107681274E+00
   0.9841646252032599E+00
   0.9739752995628966E+00
   0.9999297400790257E+00
   0.9962688966983692E+00
   0.9942070849979664E+00
   0.9947080049350361E+00
   0.9951221588737527E+00
   0.9951235285787281E+00
   0.9951397838246967E+00
   0.9947791682444276E+00
   0.9944908566954140E+00
   0.9893125515730351E+00
   0.9891559723215394E+00
   0.9653688662835028E+00
   0.9959147256527119E+00
   0.9959231723800215E+00
   0.9955399048505416E+00
   0.9950358480732042E+00
   0.9944869669020043E+00
   0.9938607293047443E+00
   0.9931821775848151E+00
   0.9932656417181537E+00
   0.9930720664789940E+00
   0.9966510512645123E+00
   0.9958170392440295E+00
   0.9954571885508103E+00
   0.9952083966924110E+00
   0.9952648419012696E+00
   0.9953000772728036E+00
   0.9951118442461617E+00
   0.9948989559231178E+00
   0.9942219338025118E+00
   0.9940835920022220E+00
   0.9928070506196506E+00
   0.9944308008618082E+00
   0.9940949026802680E+00
   0.9959534446389827E+00
   0.9959448725702232E+00
   0.9956947486626687E+00
   0.9954732542856443E+00
   0.9953099436664775E+00
   0.9953588592457853E+00
   0.9953442818044731E+00
   0.9958587800196310E+00
   0.9960477927085800E+00
   0.9973695146720586E+00
   0.9982031060752131E+00
   0.9961300147717621E+00
   0.9961310512610696E+00
   0.9960666094072032E+00
   0.9959435468218515E+00
   0.9957150374229364E+00
   0.9956412156406075E+00
   0.9955836796553544E+00
   0.9960343516005965E+00
   0.9964448294552837E+00
   0.9977428067299475E+00
   0.9989619860187308E+00
   0.9964944417100409E+00
   0.9965125736015882E+00
   0.9963648326492224E+00
   0.9962699778498911E+00
   0.9961544703042583E+00
   0.9961329975527615E+00
   0.9961151265946088E+00
   0.9964390529554028E+00
   0.9968337253877347E+00
   0.9978034067728722E+00
   0.9987958103973107E+00
   0.9969931920038991E+00
   0.9969055022079729E+00
   0.9966734993552466E+00
   0.9965365738961502E+00
   0.9964277156084754E+00
   0.9964474108561074E+00
   0.9965012772969281E+00
   0.9967952616807866E+00
   0.9971624722940794E+00
   0.9978763494821348E+00
   0.9987143252450540E+00
   0.9976688712397433E+00
   0.9973988072268407E+00
   0.9970257170599968E+00
   0.9967676259801493E+00
   0.9965824993928445E+00
   0.9965540032068372E+00
   0.9966252090829901E+00
   0.9969205995628392E+00
   0.9973558129526758E+00
   0.9980834306323269E+00
   0.9989959528480978E+00
   0.9985677729673119E+00
   0.9978177588680285E+00
   0.9973175336952120E+00
   0.9969604027311466E+00
   0.9966907338897648E+00
   0.9965767424306665E+00
   0.9965739218117347E+00
   0.9968059258656703E+00
   0.9973157329745058E+00
   0.9981713105305112E+00
   0.9991716177065439E+00
   0.8339579533722690E+00
   0.9345240614142404E+00
   0.9547718073235062E+00
   0.9671658863292397E+00
   0.9705492584301512E+00
   0.9716635238624323E+00
   0.9730192754599195E+00
   0.9726759197852515E+00
   0.9567743914877384E+00
   0.8383068793707243E+00
   0.3968252331067796E+00
   0.9957269749230140E+00
   0.9938143742391922E+00
   0.9938936700421978E+00
   0.9932674317770476E+00
   0.9922278600512886E+00
   0.9906334141030458E+00
   0.9893179598640696E+00
   0.9851482669560568E+00
   0.9841559196160513E+00
   0.9739532774139605E+00
   0.9999130890378867E+00
   0.9962734305228822E+00
   0.9942085377851103E+00
   0.9947056384667986E+00
   0.9951161131015188E+00
   0.9951184293239658E+00
   0.9951367925243654E+00
   0.9947859560764151E+00
   0.9945037065465775E+00
   0.9893404783876137E+00
   0.9891915945401389E+00
   0.9654065241234667E+00
   0.9959175811059016E+00
   0.9959242554475669E+00
   0.9955387610465286E+00
   0.9950305963163435E+00
   0.9944793115389188E+00
   0.9938511014563879E+00
   0.9931770513400404E+00
   0.9932667486973642E+00
   0.9930864798572472E+00
   0.9966874465501165E+00
   0.9958696854614628E+00
   0.9954601008821666E+00
   0.9952094548775482E+00
   0.9952632389820645E+00
   0.9952939564255506E+00
   0.9951028454735822E+00
   0.9948867633741747E+00
   0.9942124804457233E+00
   0.9940795325287153E+00
   0.9928146449181685E+00
   0.9944582123833359E+00
   0.9941363012483442E+00
   0.9959559141723789E+00
   0.9959456298240421E+00
   0.9956933551597624E+00
   0.9954681585301454E+00
   0.9953018957383323E+00
   0.9953475194735888E+00
   0.9953338272024728E+00
   0.9958524192703242E+00
   0.9960518253439397E+00
   0.9973936392743578E+00
   0.9982430415093168E+00
   0.9961334873551120E+00
   0.9961323481759019E+00
   0.9960648376024118E+00
   0.9959371785919480E+00
   0.9957055325464097E+00
   0.9956292751699012E+00
   0.9955739229106508E+00
   0.9960301619605351E+00
   0.9964516715285978E+00
   0.9977696321879294E+00
   0.9990071995029380E+00
   0.9964977543828628E+00
   0.9965139799871965E+00
   0.9963636583042871E+00
   0.9962649934972767E+00
   0.9961465754427105E+00
   0.9961231084833728E+00
   0.9961064049231890E+00
   0.9964347504499169E+00
   0.9968389289636992E+00
   0.9978259493598898E+00
   0.9988363806656047E+00
   0.9969975879685469E+00
   0.9969077923206175E+00
   0.9966732287787911E+00
   0.9965321009321410E+00
   0.9964205005711779E+00
   0.9964390305929042E+00
   0.9964957534987221E+00
   0.9967959787315100E+00
   0.9971741383438175E+00
   0.9979073347241263E+00
   0.9987669818199816E+00
   0.9976730961253817E+00
   0.9974014464963827E+00
   0.9970266840836615E+00
   0.9967655088044064E+00
   0.9965786075034473E+00
   0.9965487524514677E+00
   0.9966211550714328E+00
   0.9969194402445839E+00
   0.9973619709246456E+00
   0.9981046999111781E+00
   0.9990378703817108E+00
   0.9985714673457208E+00
   0.9978212955276201E+00
   0.9973202203141481E+00
   0.9969584427959119E+00
   0.9966848878136524E+00
   0.9965675466417119E+00
   0.9965669884504992E+00
   0.9968061088127875E+00
   0.9973280582450010E+00
   0.9982069753402879E+00
   0.9992317988716201E+00
   0.8339274298457245E+00
   0.9345984560648688E+00
   0.9548629646206844E+00
   0.9672703251138255E+00
   0.9707298435348346E+00
   0.9718650120060375E+00
   0.9733029158976811E+00
   0.9729725922896657E+00
   0.9571105681304825E+00
   0.8385788503507221E+00
   0.3969423078728455E+00
   0.9957251575389703E+00
   0.9938150093109918E+00
   0.9938949525890459E+00
   0.9932697891813078E+00
   0.9922290706113168E+00
   0.9906352488392219E+00
   0.9893171875126557E+00
   0.9851548107137220E+00
   0.9841646251434970E+00
   0.9739752994854959E+00
   0.9999297401584104E+00
   0.9962688967181194E+00
   0.9942070850377328E+00
   0.9947080049361129E+00
   0.9951221588572186E+00
   0.9951235285774950E+00
   0.9951397838584439E+00
   0.9947791683263268E+00
   0.9944908568215237E+00
   0.9893125517211915E+00
   0.9891559724762495E+00
   0.9653688663473943E+00
   0.9959147256730922E+00
   0.9959231723327083E+00
   0.9955399047890453E+00
   0.9950358480282335E+00
   0.9944869668903260E+00
   0.9938607293107244E+00
   0.9931821775997870E+00
   0.9932656417589234E+00