# vtk DataFile Version 2.0
FUN3D:global_image_vtk
ASCII
DATASET UNSTRUCTURED_GRID
POINTS 1331 double
    0.0000000000000000E+00    0.2500000000000000E+01    0.0000000000000000E+00
    0.5000000000000000E+00    0.2500000000000000E+01    0.0000000000000000E+00
    0.1000000000000000E+01    0.2500000000000000E+01    0.0000000000000000E+00
    0.1500000000000000E+01    0.2500000000000000E+01    0.0000000000000000E+00
    0.2000000000000000E+01    0.2500000000000000E+01    0.0000000000000000E+00
    0.2500000000000000E+01    0.2500000000000000E+01    0.0000000000000000E+00
    0.3000000000000000E+01    0.2500000000000000E+01    0.0000000000000000E+00
    0.3500000000000000E+01    0.2500000000000000E+01    0.0000000000000000E+00
    0.4000000000000000E+01    0.2500000000000000E+01    0.0000000000000000E+00
    0.4500000000000000E+01    0.2500000000000000E+01    0.0000000000000000E+00
    0.5000000000000000E+01    0.2500000000000000E+01    0.0000000000000000E+00
    0.0000000000000000E+00    0.2500000000000000E+01    0.4999999999999982E+00
    0.4999999999999998E+00    0.2500000000000000E+01    0.4999999999999984E+00
    0.9999999999999998E+00    0.2500000000000000E+01    0.4999999999999987E+00
    0.1500000000000000E+01    0.2500000000000000E+01    0.4999999999999989E+00
    0.2000000000000000E+01    0.2500000000000000E+01    0.4999999999999991E+00
    0.2500000000000000E+01    0.2500000000000000E+01    0.4999999999999993E+00
    0.3000000000000000E+01    0.2500000000000000E+01    0.4999999999999996E+00
    0.3500000000000000E+01    0.2500000000000000E+01    0.4999999999999998E+00
    0.4000000000000000E+01    0.2500000000000000E+01    0.5000000000000000E+00
    0.4500000000000002E+01    0.2500000000000000E+01    0.5000000000000002E+00
    0.5000000000000000E+01    0.2500000000000000E+01    0.5000000000000004E+00
    0.0000000000000000E+00    0.2500000000000000E+01    0.1000000000000001E+01
    0.4999999999999997E+00    0.2500000000000000E+01    0.1000000000000001E+01
    0.1000000000000000E+01    0.2500000000000000E+01    0.1000000000000001E+01
    0.1500000000000000E+01    0.2500000000000000E+01    0.1000000000000001E+01
    0.2000000000000000E+01    0.2500000000000000E+01    0.1000000000000001E+01
    0.2500000000000000E+01    0.2500000000000000E+01    0.1000000000000001E+01
    0.3000000000000000E+01    0.2500000000000000E+01    0.1000000000000001E+01
    0.3500000000000000E+01    0.2500000000000000E+01    0.1000000000000001E+01
    0.4000000000000000E+01    0.2500000000000000E+01    0.1000000000000001E+01
    0.4499999999999999E+01    0.2500000000000000E+01    0.1000000000000001E+01
    0.5000000000000000E+01    0.2500000000000000E+01    0.1000000000000001E+01
    0.0000000000000000E+00    0.2500000000000000E+01    0.1499999999999999E+01
    0.4999999999999994E+00    0.2500000000000000E+01    0.1499999999999999E+01
    0.1000000000000000E+01    0.2500000000000000E+01    0.1499999999999999E+01
    0.1500000000000000E+01    0.2500000000000000E+01    0.1499999999999999E+01
    0.2000000000000001E+01    0.2500000000000000E+01    0.1499999999999999E+01
    0.2500000000000000E+01    0.2500000000000000E+01    0.1499999999999999E+01
    0.2999999999999999E+01    0.2500000000000000E+01    0.1499999999999999E+01
    0.3500000000000000E+01    0.2500000000000000E+01    0.1499999999999999E+01
    0.4000000000000001E+01    0.2500000000000000E+01    0.1499999999999999E+01
    0.4500000000000001E+01    0.2500000000000000E+01    0.1499999999999999E+01
    0.5000000000000000E+01    0.2500000000000000E+01    0.1499999999999999E+01
    0.0000000000000000E+00    0.2500000000000000E+01    0.2000000000000002E+01
    0.4999999999999992E+00    0.2500000000000000E+01    0.2000000000000001E+01
    0.1000000000000000E+01    0.2500000000000000E+01    0.2000000000000001E+01
    0.1500000000000000E+01    0.2500000000000000E+01    0.2000000000000001E+01
    0.2000000000000001E+01    0.2500000000000000E+01    0.2000000000000001E+01
    0.2500000000000000E+01    0.2500000000000000E+01    0.2000000000000001E+01
    0.2999999999999999E+01    0.2500000000000000E+01    0.2000000000000000E+01
    0.3500000000000000E+01    0.2500000000000000E+01    0.2000000000000000E+01
    0.4000000000000000E+01    0.2500000000000000E+01    0.2000000000000000E+01
    0.4500000000000000E+01    0.2500000000000000E+01    0.2000000000000000E+01
    0.5000000000000000E+01    0.2500000000000000E+01    0.2000000000000000E+01
    0.0000000000000000E+00    0.2500000000000000E+01    0.2500000000000000E+01
    0.4999999999999991E+00    0.2500000000000000E+01    0.2500000000000000E+01
    0.1000000000000000E+01    0.2500000000000000E+01    0.2500000000000000E+01
    0.1500000000000000E+01    0.2500000000000000E+01    0.2500000000000000E+01
    0.2000000000000001E+01    0.2500000000000000E+01    0.2500000000000000E+01
    0.2500000000000000E+01    0.2500000000000000E+01    0.2500000000000000E+01
    0.2999999999999999E+01    0.2500000000000000E+01    0.2500000000000000E+01
    0.3500000000000001E+01    0.2500000000000000E+01    0.2500000000000000E+01
    0.4000000000000000E+01    0.2500000000000000E+01    0.2500000000000000E+01
    0.4500000000000001E+01    0.2500000000000000E+01    0.2500000000000000E+01
    0.5000000000000000E+01    0.2500000000000000E+01    0.2500000000000000E+01
    0.0000000000000000E+00    0.2500000000000000E+01    0.2999999999999998E+01
    0.4999999999999989E+00    0.2500000000000000E+01    0.2999999999999998E+01
    0.1000000000000000E+01    0.2500000000000000E+01    0.2999999999999999E+01
    0.1499999999999999E+01    0.2500000000000000E+01    0.2999999999999999E+01
    0.2000000000000001E+01    0.2500000000000000E+01    0.2999999999999999E+01
    0.2500000000000000E+01    0.2500000000000000E+01    0.2999999999999999E+01
    0.2999999999999999E+01    0.2500000000000000E+01    0.2999999999999999E+01
    0.3500000000000001E+01    0.2500000000000000E+01    0.3000000000000000E+01
    0.4000000000000000E+01    0.2500000000000000E+01    0.3000000000000000E+01
    0.4500000000000001E+01    0.2500000000000000E+01    0.3000000000000000E+01
    0.5000000000000000E+01    0.2500000000000000E+01    0.3000000000000000E+01
    0.0000000000000000E+00    0.2500000000000000E+01    0.3500000000000001E+01
    0.4999999999999988E+00    0.2500000000000000E+01    0.3500000000000001E+01
    0.1000000000000001E+01    0.2500000000000000E+01    0.3500000000000001E+01
    0.1499999999999999E+01    0.2500000000000000E+01    0.3500000000000001E+01
    0.2000000000000001E+01    0.2500000000000000E+01    0.3500000000000001E+01
    0.2500000000000000E+01    0.2500000000000000E+01    0.3500000000000001E+01
    0.2999999999999999E+01    0.2500000000000000E+01    0.3500000000000001E+01
    0.3500000000000001E+01    0.2500000000000000E+01    0.3500000000000001E+01
    0.4000000000000001E+01    0.2500000000000000E+01    0.3500000000000001E+01
    0.4500000000000001E+01    0.2500000000000000E+01    0.3500000000000001E+01
    0.5000000000000000E+01    0.2500000000000000E+01    0.3500000000000001E+01
    0.0000000000000000E+00    0.2500000000000000E+01    0.3999999999999999E+01
    0.4999999999999986E+00    0.2500000000000000E+01    0.4000000000000000E+01
    0.1000000000000001E+01    0.2500000000000000E+01    0.3999999999999999E+01
    0.1499999999999999E+01    0.2500000000000000E+01    0.3999999999999999E+01
    0.2000000000000001E+01    0.2500000000000000E+01    0.3999999999999999E+01
    0.2500000000000000E+01    0.2500000000000000E+01    0.3999999999999999E+01
    0.2999999999999998E+01    0.2500000000000000E+01    0.3999999999999999E+01
    0.3500000000000001E+01    0.2500000000000000E+01    0.3999999999999999E+01
    0.3999999999999999E+01    0.2500000000000000E+01    0.3999999999999999E+01
    0.4500000000000003E+01    0.2500000000000000E+01    0.3999999999999999E+01
    0.5000000000000000E+01    0.2500000000000000E+01    0.3999999999999999E+01
    0.0000000000000000E+00    0.2500000000000000E+01    0.4500000000000002E+01
    0.4999999999999984E+00    0.2500000000000000E+01    0.4500000000000002E+01
    0.1000000000000001E+01    0.2500000000000000E+01    0.4500000000000001E+01
    0.1499999999999999E+01    0.2500000000000000E+01    0.4500000000000003E+01
    0.2000000000000002E+01    0.2500000000000000E+01    0.4500000000000001E+01
    0.2500000000000000E+01    0.2500000000000000E+01    0.4500000000000001E+01
    0.2999999999999998E+01    0.2500000000000000E+01    0.4500000000000001E+01
    0.3500000000000001E+01    0.2500000000000000E+01    0.4499999999999999E+01
    0.3999999999999999E+01    0.2500000000000000E+01    0.4499999999999999E+01
    0.4500000000000002E+01    0.2500000000000000E+01    0.4500000000000000E+01
    0.5000000000000000E+01    0.2500000000000000E+01    0.4500000000000000E+01
    0.0000000000000000E+00    0.2500000000000000E+01    0.5000000000000000E+01
    0.4999999999999982E+00    0.2500000000000000E+01    0.5000000000000000E+01
    0.1000000000000001E+01    0.2500000000000000E+01    0.5000000000000000E+01
    0.1499999999999999E+01    0.2500000000000000E+01    0.5000000000000000E+01
    0.2000000000000002E+01    0.2500000000000000E+01    0.5000000000000000E+01
    0.2500000000000000E+01    0.2500000000000000E+01    0.5000000000000000E+01
    0.2999999999999998E+01    0.2500000000000000E+01    0.5000000000000000E+01
    0.3500000000000001E+01    0.2500000000000000E+01    0.5000000000000000E+01
    0.3999999999999999E+01    0.2500000000000000E+01    0.5000000000000000E+01
    0.4500000000000002E+01    0.2500000000000000E+01    0.5000000000000000E+01
    0.5000000000000000E+01    0.2500000000000000E+01    0.5000000000000000E+01
    0.0000000000000000E+00    0.2000000000000000E+01    0.0000000000000000E+00
    0.5000000000000000E+00    0.2000000000000000E+01    0.0000000000000000E+00
    0.1000000000000000E+01    0.2000000000000000E+01    0.0000000000000000E+00
    0.1500000000000000E+01    0.2000000000000000E+01    0.0000000000000000E+00
[...]
POINT_DATA 1331
SCALARS rho double 1
LOOKUP_TABLE default
   0.8218445285165188E+00
   0.9396961610773876E+00
   0.9567639251047377E+00
   0.9672497895104984E+00
   0.9723997948388400E+00
   0.9742368654146919E+00
   0.9765353518926961E+00
   0.9789682908682209E+00
   0.9709138740960641E+00
   0.8675103050308850E+00
   0.3958207891714700E+00
   0.9951816009756554E+00
   0.9949689700332206E+00
   0.9947872574930697E+00
   0.9943791580879743E+00
   0.9939759521594103E+00
   0.9928939425468375E+00
   0.9923754652973805E+00
   0.9888940986777272E+00
   0.9891462260037638E+00
   0.9797970090630738E+00
   0.1005853634047539E+01
   0.9953668359784695E+00
   0.9952706393775075E+00
   0.9951262993283588E+00
   0.9949387426912170E+00
   0.9945830354400403E+00
   0.9941997073586349E+00
   0.9931590116768736E+00
   0.9923942679024232E+00
   0.9866624794063432E+00
   0.9855841457071062E+00
   0.9606008432748441E+00
   0.9954170885381535E+00
   0.9953795885433743E+00
   0.9952200690015630E+00
   0.9949951145005195E+00
   0.9946670318374676E+00
   0.9942976480472711E+00
   0.9937793744251014E+00
   0.9937888517502442E+00
   0.9934344359916806E+00
   0.9963218442658655E+00
   0.9949529608511425E+00
   0.9956364705395744E+00
   0.9956280971207649E+00
   0.9955047828110273E+00
   0.9953541426745096E+00
   0.9950931334124605E+00
   0.9948979432026593E+00
   0.9943640910633590E+00
   0.9944409829869586E+00
   0.9934619422917981E+00
   0.9955362888702397E+00
   0.9956487498411301E+00
   0.9958874819228537E+00
   0.9958823173934853E+00
   0.9957654539394007E+00
   0.9956432113534354E+00
   0.9954617838076433E+00
   0.9954118841944677E+00
   0.9952663138010911E+00
   0.9957085485001838E+00
   0.9958578870188008E+00
   0.9973281627645006E+00
   0.9981060182783632E+00
   0.9962086898821543E+00
   0.9962075190080102E+00
   0.9960877681872983E+00
   0.9959800116694002E+00
   0.9958252951090699E+00
   0.9958040811285289E+00
   0.9957136546787811E+00
   0.9960666180529132E+00
   0.9963195301165437E+00
   0.9974738056910303E+00
   0.9985247306612381E+00
   0.9965848822239571E+00
   0.9965691518973301E+00
   0.9964178528941183E+00
   0.9963007230170324E+00
   0.9961758604567891E+00
   0.9961959266382300E+00
   0.9962412414638872E+00
   0.9966196627038335E+00
   0.9970356245788958E+00
   0.9979079649602235E+00
   0.9988061373319436E+00
   0.9970542815228891E+00
   0.9969776180102032E+00
   0.9967560710760102E+00
   0.9965908807528002E+00
   0.9964439679619865E+00
   0.9964340550081430E+00
   0.9964890947352641E+00
   0.9968102643903523E+00
   0.9972571868464710E+00
   0.9980552204730014E+00
   0.9989694094357582E+00
   0.9977086499738895E+00
   0.9974466568006599E+00
   0.9970880293027437E+00
   0.9968424779646773E+00
   0.9966605425521770E+00
   0.9966181145232628E+00
   0.9966724591193860E+00
   0.9969477250648326E+00
   0.9973870447980484E+00
   0.9981405175330978E+00
   0.9990608545343983E+00
   0.9985942713210909E+00
   0.9978528410482255E+00
   0.9973585180676929E+00
   0.9970252230518292E+00
   0.9967889488571914E+00
   0.9966804521373637E+00
   0.9966729412534304E+00
   0.9968603156753932E+00
   0.9972418594953726E+00
   0.9979897624197162E+00
   0.9990091469408324E+00
   0.8218386699748877E+00
   0.9396573444115519E+00
   0.9568956557885436E+00
   0.9672843413715928E+00
   0.9722646450164054E+00
   0.9740516758151964E+00
   0.9761953703995512E+00
   0.9785459782117661E+00
   0.9707881885053797E+00
   0.8686636181457809E+00
   0.3985862195851948E+00
   0.9951887287347153E+00
   0.9949748197176348E+00
   0.9947957001304130E+00
   0.9943896229569107E+00
   0.9939893577099319E+00
   0.9929047363290487E+00
   0.9923630285898302E+00
   0.9887794055002445E+00
   0.9888041323837476E+00
   0.9796040324019658E+00
   0.1006016154499078E+01
   0.9953671511869976E+00
   0.9952716641252402E+00
   0.9951275615081933E+00
   0.9949396879471405E+00
   0.9945829415939466E+00
   0.9941950210726597E+00
   0.9931453568776688E+00
   0.9923654178811105E+00
   0.9866308644365478E+00
   0.9856011562620262E+00
   0.9607287952495491E+00
   0.9954181937692156E+00
   0.9953811114836775E+00
   0.9952223188718685E+00
   0.9949977107134306E+00
   0.9946694829722191E+00
   0.9942972472745057E+00
   0.9937698864699048E+00
   0.9937611327190402E+00
   0.9933775465018043E+00
   0.9962697360225560E+00
   0.9949650087851927E+00
   0.9956367047934874E+00
   0.9956286104598188E+00
   0.9955056240382056E+00
   0.9953551113792207E+00
   0.9950937442643576E+00
   0.9948973002081374E+00
   0.9943602005573962E+00
   0.9944329609041224E+00
   0.9934476614286751E+00
   0.9955191504912549E+00
   0.9956476640543626E+00
   0.9958876153017562E+00
   0.9958826559423939E+00
   0.9957660436047397E+00
   0.9956439526114720E+00
   0.9954622594301121E+00
   0.9954114097090372E+00
   0.9952634040774772E+00
   0.9957021080414846E+00
   0.9958483418603801E+00
   0.9973177606415041E+00
   0.9981033245811635E+00
   0.9962086740179475E+00
   0.9962076061832074E+00
   0.9960879953975604E+00
   0.9959803526546958E+00
   0.9958255251480094E+00
   0.9958039136689530E+00
   0.9957125077271469E+00
   0.9960639430818116E+00
   0.9963157124911998E+00
   0.9974694084138035E+00
   0.9985229647962082E+00
   0.9965848264278553E+00
   0.9965691723392051E+00
   0.9964179788960739E+00
   0.9963009541802780E+00
   0.9961760396448323E+00
   0.9961958494850524E+00
   0.9962405803618587E+00
   0.9966180975386807E+00
   0.9970334864621077E+00
   0.9979057055178988E+00
   0.9988051864045261E+00
   0.9970542059663602E+00
   0.9969775656103662E+00
   0.9967560681310206E+00
   0.9965909429627616E+00
   0.9964440376336726E+00
   0.9964340462303805E+00
   0.9964888184056064E+00
   0.9968095615300079E+00
   0.9972561727787723E+00
   0.9980541748223738E+00
   0.9989690156658442E+00
   0.9977085754727066E+00
   0.9974465897655971E+00
   0.9970879888354053E+00
   0.9968424883849653E+00
   0.9966605661590179E+00
   0.9966181163879645E+00
   0.9966723057144733E+00
   0.9969473383368865E+00
   0.9973864609238180E+00
   0.9981399368495664E+00
   0.9990606457274389E+00
   0.9985942260476126E+00
   0.9978527689003288E+00
   0.9973584360590368E+00
   0.9970251547348979E+00
   0.9967889059033188E+00
   0.9966804412030159E+00
   0.9966728724291891E+00
   0.9968601398945551E+00
   0.9972415119577410E+00
   0.9979894114399324E+00
   0.9990090388380656E+00
   0.8218404837808762E+00
   0.9397416092070107E+00
   0.9570267886151375E+00
   0.9674129102735405E+00
   0.9724410220327362E+00
   0.9742338664557986E+00
   0.9764528804486706E+00
   0.9788535353234137E+00
   0.9712324493455891E+00
   0.8690168885487947E+00
   0.3986211512515125E+00
   0.9951881977013317E+00
   0.9949729785326580E+00
   0.9947929304406350E+00
   0.9943860494056777E+00
   0.9939852592223767E+00
   0.9929013024747939E+00
   0.9923667488718653E+00
   0.9887980205765190E+00
   0.9888681382641733E+00
   0.9796885496196001E+00
   0.1006034167933542E+01
   0.9953670588312199E+00
   0.9952711605686487E+00
   0.9951267360193967E+00
   0.9949387659442530E+00
   0.9945824534498510E+00
   0.9941960414710150E+00
   0.9931505088073900E+00
   0.9923768042016239E+00
   0.9866502987600001E+00
   0.9856187880092007E+00
   0.9607242889309726E+00
   0.9954179928366751E+00
   0.9953804449647973E+00
   0.9952211715017059E+00
   0.9949962010409417E+00
   0.9946680651897377E+00
   0.9942967745007834E+00
   0.9937730637669012E+00
   0.9937709196790835E+00
   0.9933973651813086E+00
   0.9962954505931638E+00
   0.9949720722852294E+00
   0.9956366493184973E+00
   0.9956283567338889E+00
   0.9955051288955660E+00
   0.9953544491164330E+00
   0.9950932945457259E+00
   0.9948975623596586E+00
   0.9943623057156585E+00
   0.9944377988965802E+00
   0.9934548941381227E+00
   0.9955281491348863E+00
   0.9956500689388076E+00
   0.9958875930216964E+00
   0.9958824590344748E+00
   0.9957656340424738E+00
   0.9956433632966735E+00
   0.9954617798337693E+00
   0.9954114538917387E+00
   0.9952648015421151E+00
   0.9957058006747156E+00
   0.9958539826854219E+00
   0.9973243841721793E+00
   0.9981056781455943E+00
   0.9962087222169973E+00
   0.9962075684252802E+00
   0.9960878307746739E+00
   0.9959800642146973E+00
   0.9958252774586002E+00
   0.9958039264351536E+00
   0.9957131628919593E+00
   0.9960656833614497E+00
   0.9963182238352116E+00
   0.9974723348408321E+00
   0.9985241584640383E+00
   0.9965848947285780E+00
   0.9965691722318081E+00
   0.9964178745288808E+00
   0.9963007334164948E+00
   0.9961758227616989E+00
   0.9961957977319335E+00
   0.9962409524792097E+00
   0.9966191713444220E+00
   0.9970350468874585E+00
   0.9979074163899205E+00
   0.9988059135864986E+00
   0.9970542839062215E+00
   0.9969776244378957E+00
   0.9967560774606560E+00
   0.9965908818161979E+00
   0.9964439485804972E+00
   0.9964339942504801E+00
   0.9964889686787622E+00
   0.9968100468378165E+00
   0.9972569231740802E+00
   0.9980549783030669E+00
   0.9989693174064721E+00
   0.9977086495089604E+00
   0.9974466582323813E+00
   0.9970880299736402E+00
   0.9968424745686443E+00
   0.9966605281643882E+00
   0.9966180779007151E+00
   0.9966723914964386E+00
   0.9969476156740342E+00
   0.9973869137859693E+00
   0.9981404009192811E+00
   0.9990608103133429E+00
   0.9985942703570166E+00
   0.9978528412750056E+00
   0.9973585183663879E+00
   0.9970252207724171E+00
   0.9967889397345014E+00
   0.9966804286235328E+00
   0.9966728977264938E+00
   0.9968602436926540E+00
   0.9972417660180627E+00
   0.9979896721489533E+00
   0.9990091035959175E+00
   0.8218399235334400E+00
   0.9396726784966956E+00
   0.9569509496948011E+00
   0.9673229336520921E+00
   0.9722758249290192E+00
   0.9740476589220853E+00
   0.9761815757571570E+00
   0.9785616325185379E+00
   0.9709468379815720E+00
   0.8689166547875695E+00
   0.3986357933281194E+00
   0.9951894320866266E+00
   0.9949743772871653E+00
   0.9947946058170479E+00
   0.9943874716899045E+00
   0.9939858417692119E+00
   0.9928978960689280E+00
   0.9923543131558761E+00
   0.9887684053362902E+00
   0.9888125785381073E+00
   0.9796534371695163E+00
   0.1006061664255731E+01
   0.9953672511703906E+00
   0.9952714318501921E+00
   0.9951269728685039E+00
   0.9949386725379202E+00
   0.9945814883728906E+00
   0.9941931330604276E+00
   0.9931446682056198E+00
   0.9923684561143998E+00
   0.9866431934294091E+00
   0.9856216255904627E+00
   0.9607398222565129E+00
   0.9954183302206808E+00
   0.9953809696991365E+00
   0.9952218243039501E+00
   0.9949966967611332E+00
   0.9946678634823649E+00
   0.9942946372975895E+00
   0.9937669205409042E+00
   0.9937593800844277E+00
   0.9933802384148023E+00
   0.9962821709581154E+00
   0.9949753046791018E+00
   0.9956366945471802E+00
   0.9956284984619442E+00
   0.9955053415323734E+00
   0.9953545939707027E+00
   0.9950930319627416E+00
   0.9948964473768579E+00
   0.9943596265488096E+00
   0.9944335562071817E+00
   0.9934494772008233E+00
   0.9955234130424455E+00
   0.9956505583098741E+00
   0.9958876032678587E+00
   0.9958825776383481E+00
   0.9957658398131338E+00
   0.9956435660848618E+00
   0.9954616819971167E+00
   0.9954106687800373E+00
   0.9952626993129348E+00
   0.9957021424913901E+00
   0.9958493228067418E+00
   0.9973202298068201E+00
   0.9981052309491684E+00
   0.9962086498421284E+00
   0.9962075526343938E+00
   0.9960878793590485E+00
   0.9959801526100404E+00
   0.9958252454839229E+00
   0.9958036089559272E+00
   0.9957122420328685E+00
   0.9960640123875928E+00
   0.9963160715925236E+00
   0.9974701990140872E+00
   0.9985236054196663E+00
   0.9965848061716444E+00
   0.9965691350099671E+00
   0.9964179009511051E+00
   0.9963008233302159E+00
   0.9961758533765890E+00
   0.9961956503863780E+00
   0.9962404128308985E+00
   0.9966181337556468E+00
   0.9970337310268494E+00
   0.9979061358239345E+00
   0.9988054932168330E+00
   0.9970541902212421E+00
   0.9969775416692530E+00
   0.9967560224923032E+00
   0.9965908711066912E+00
   0.9964439369351036E+00
   0.9964339416079904E+00
   0.9964887283696412E+00
   0.9968095592663050E+00
   0.9972562628403800E+00
   0.9980543372663547E+00
   0.9989691367580554E+00
   0.9977085647675284E+00
   0.9974465737571786E+00
   0.9970879587039349E+00
   0.9968424417932232E+00
   0.9966605007539432E+00
   0.9966180471477808E+00
   0.9966722472951166E+00
   0.9969473298910063E+00
   0.9973865110550185E+00
   0.9981400220422760E+00
   0.9990607032882260E+00
   0.9985942203790710E+00
   0.9978527582032414E+00
   0.9973584152773307E+00
   0.9970251216671868E+00
   0.9967888569967456E+00
   0.9966803839420796E+00
   0.9966728156777975E+00
   0.9968601093765077E+00
   0.9972415253348462E+00
   0.9979894608770059E+00
   0.9990090852022933E+00
   0.8218404669202480E+00
   0.9397464410005375E+00
   0.9570385833098302E+00
   0.9674211945562976E+00
   0.9724426079968066E+00
   0.9742300809206358E+00
   0.9764469403830720E+00
   0.9788573406536518E+00
   0.9712695364799374E+00
   0.8690689995078474E+00
   0.3986449762174347E+00
   0.9951895605599808E+00
   0.9949742610950375E+00
   0.9947943919308029E+00
   0.9943870981735800E+00
   0.9939857371950935E+00
   0.9928981149587918E+00
   0.9923556807392295E+00
   0.9887714591479630E+00
   0.9888148149947583E+00
   0.9796525216385817E+00
   0.1006061367799451E+01
   0.9953673213135660E+00
   0.9952713507761328E+00
   0.9951267736226176E+00
   0.9949383851280256E+00
   0.9945813533548046E+00
   0.9941933867427479E+00
   0.9931457880591464E+00
   0.9923707357167511E+00
   0.9866460665495442E+00
   0.9856246150489685E+00
   0.9607419456490008E+00
   0.9954183804173384E+00
   0.9953808717115591E+00
   0.9952215939151727E+00
   0.9949963524038428E+00
   0.9946676527779152E+00
   0.9942947961469469E+00
   0.9937678417847524E+00
   0.9937614995400686E+00
   0.9933827082636481E+00
   0.9962845603243409E+00
   0.9949762742816982E+00
   0.9956367584642255E+00
   0.9956284764477518E+00
   0.9955052259765986E+00
   0.9953544016334586E+00
   0.9950929480000440E+00
   0.9948966625727143E+00
   0.9943604173396619E+00
   0.9944351286941728E+00
   0.9934513907293766E+00
   0.9955251168979223E+00
   0.9956509789363546E+00
   0.9958876684982128E+00
   0.9958825530430349E+00
   0.9957657073136771E+00
   0.9956433316284427E+00
   0.9954615051005086E+00
   0.9954107177658283E+00
   0.9952632233902123E+00
   0.9957033546438496E+00
   0.9958509323406025E+00
   0.9973218689397318E+00
   0.9981058702381377E+00
   0.9962087431428351E+00
   0.9962076004582336E+00
   0.9960878545214303E+00
   0.9959800433143863E+00
   0.9958251452971938E+00
   0.9958036092507602E+00
   0.9957125250232106E+00
   0.9960646949863506E+00
   0.9963169816427444E+00
   0.9974711054183357E+00
   0.9985239064592827E+00
   0.9965849017453978E+00
   0.9965691858037482E+00
   0.9964178790053732E+00
   0.9963007083957518E+00
   0.9961757269798692E+00
   0.9961955834110422E+00
   0.9962405571290143E+00
   0.9966185827776221E+00
   0.9970343794401120E+00
   0.9979068168329552E+00
   0.9988057683925921E+00
   0.9970542829510054E+00
   0.9969776277388269E+00
   0.9967560766131605E+00
   0.9965908670061142E+00
   0.9964439001753800E+00
   0.9964338887357178E+00
   0.9964887794904056E+00
   0.9968097558160022E+00
   0.9972565814480306E+00
   0.9980546623276761E+00
   0.9989692170731682E+00
   0.9977086468910257E+00
   0.9974466576130946E+00
   0.9970880264068406E+00
   0.9968424626609279E+00
   0.9966604978262497E+00
   0.9966180155731713E+00
   0.9966722853883853E+00
   0.9969474549357868E+00
   0.9973867265166108E+00
   0.9981402331666647E+00
   0.9990607526259397E+00
   0.9985942683692910E+00
   0.9978528400431249E+00
   0.9973585156564944E+00
   0.9970252128995846E+00
   0.9967889207522179E+00
   0.9966803888052697E+00
   0.9966728284564439E+00
   0.9968601319687279E+00
   0.9972416235218600E+00
   0.9979895364013981E+00
   0.9990090382072411E+00
   0.8218404283343622E+00
   0.9396737014326871E+00
   0.9569531076973828E+00
   0.9673244181778952E+00
   0.9722756612109046E+00
   0.9740461872254843E+00
   0.9761805031463192E+00
   0.9785638179643774E+00
   0.9709554838442308E+00
   0.8689268630413852E+00
   0.3986405510593688E+00
   0.9951896779277927E+00
   0.9949744665885735E+00
   0.9947946064432943E+00
   0.9943871848423640E+00
   0.9939853058541089E+00
   0.9928966582461350E+00
   0.9923521695193162E+00
   0.9887660767873830E+00
   0.9888065791599576E+00
   0.9796477822938814E+00
   0.1006064135000435E+01
   0.9953673000341519E+00
   0.9952713572953669E+00
   0.9951267694753775E+00
   0.9949382956752629E+00
   0.9945809585163691E+00
   0.9941924622920270E+00
   0.9931441989940526E+00
   0.9923688105087791E+00
   0.9866447123375315E+00
   0.9856248116274970E+00
   0.9607437749699037E+00
   0.9954183889885619E+00
   0.9953809670937368E+00
   0.9952217229576807E+00
   0.9949964168327544E+00
   0.9946673893812472E+00
   0.9942938834666120E+00
   0.9937658689010939E+00
   0.9937585175384575E+00
   0.9933793201051102E+00
   0.9962822237154216E+00
   0.9949766130785188E+00
   0.9956366871778484E+00
   0.9956284544366784E+00
   0.9955052392479073E+00
   0.9953544093650633E+00
   0.9950927766932466E+00
   0.9948961785195766E+00
   0.9943594336738069E+00
   0.9944337513739403E+00
   0.9934499938003006E+00
   0.9955241128826032E+00
   0.9956510625914508E+00
   0.9958875968965435E+00
   0.9958825470930067E+00
   0.9957657591882838E+00
   0.9956434142107219E+00
   0.9954614530604922E+00
   0.9954103842908235E+00
   0.9952624026838685E+00
   0.9957020549626345E+00
   0.9958494898211679E+00
   0.9973207436744150E+00
   0.9981057495939359E+00
   0.9962086366443215E+00
   0.9962075269088730E+00
   0.9960878263698044E+00
   0.9959800653535750E+00
   0.9958251266272122E+00
   0.9958034894481026E+00
   0.9957121476415407E+00
   0.9960640426562990E+00
   0.9963162086597936E+00
   0.9974704215507902E+00
   0.9985237558124719E+00
   0.9965847946960720E+00
   0.9965691160395264E+00
   0.9964178627099721E+00
   0.9963007610563559E+00
   0.9961757660475673E+00
   0.9961955588068409E+00
   0.9962403389067310E+00
   0.9966181449479825E+00
   0.9970338340370245E+00
   0.9979063081471514E+00
   0.9988056181831945E+00
   0.9970541811382719E+00
   0.9969775285930914E+00
   0.9967559985129962E+00
   0.9965908346885344E+00
   0.9964438877107437E+00
   0.9964338922595205E+00
   0.9964886893231207E+00
   0.9968095611199815E+00
   0.9972563076090658E+00
   0.9980544148844420E+00
   0.9989691953856635E+00
   0.9977085585198932E+00
   0.9974465647388044E+00
   0.9970879421941614E+00
   0.9968424167365197E+00
   0.9966604664471416E+00
   0.9966180114513905E+00
   0.9966722189567347E+00
   0.9969473286598552E+00
   0.9973865400293170E+00
   0.9981400676873519E+00
   0.9990607327239935E+00
   0.9985942170130443E+00
   0.9978527519927322E+00
   0.9973584036650865E+00
   0.9970251036586456E+00
   0.9967888309895724E+00
   0.9966803535954122E+00
   0.9966727852618860E+00
   0.9968600939674072E+00
   0.9972415357601792E+00
   0.9979894907052602E+00
   0.9990091142399563E+00
   0.8218404668888791E+00
   0.9397464407566514E+00
   0.9570385830328880E+00
   0.9674211943884133E+00
   0.9724426078052888E+00
   0.9742300808536289E+00
   0.9764469404752111E+00
   0.9788573412800510E+00
   0.9712695370085639E+00
   0.8690689987778769E+00
   0.3986449761298621E+00
   0.9951895605545019E+00
   0.9949742610898679E+00
   0.9947943919246468E+00
   0.9943870981654975E+00
   0.9939857371820762E+00
   0.9928981149346823E+00
   0.9923556807054118E+00
   0.9887714590629434E+00
   0.9888148149282155E+00
   0.9796525215117787E+00
   0.1006061367843452E+01
   0.9953673213069033E+00
   0.9952713507702053E+00
   0.9951267736170678E+00
   0.9949383851236017E+00
   0.9945813533526949E+00
   0.9941933867502093E+00
   0.9931457880796543E+00
   0.9923707357720327E+00
   0.9866460666364221E+00
   0.9856246151360325E+00
   0.9607419456710736E+00
   0.9954183804121300E+00
   0.9953808717049272E+00
   0.9952215939051933E+00
   0.9949963523884999E+00
   0.9946676527537988E+00
   0.9942947961173513E+00
   0.9937678417457364E+00
   0.9937614995296876E+00