title="tecplot geometry and solution file"
variables = x y z rho u v w p mach temperature
zone t="boundary 1 bc-1", solutiontime= 0.3000000E+02, strandid=1001, i=121, j=100, f=feblock
  0.000000000000E+00  0.000000000000E+00  0.000000000000E+00  0.000000000000E+00  0.000000000000E+00  0.000000000000E+00  0.000000000000E+00
  0.000000000000E+00  0.000000000000E+00  0.000000000000E+00  0.000000000000E+00  0.000000000000E+00  0.000000000000E+00  0.000000000000E+00
  0.000000000000E+00  0.000000000000E+00  0.000000000000E+00  0.000000000000E+00  0.000000000000E+00  0.000000000000E+00  0.000000000000E+00
  0.000000000000E+00  0.000000000000E+00  0.000000000000E+00  0.000000000000E+00  0.000000000000E+00  0.000000000000E+00  0.000000000000E+00
  0.000000000000E+00  0.000000000000E+00  0.000000000000E+00  0.000000000000E+00  0.000000000000E+00  0.000000000000E+00  0.000000000000E+00
  0.000000000000E+00  0.000000000000E+00  0.000000000000E+00  0.000000000000E+00  0.000000000000E+00  0.000000000000E+00  0.000000000000E+00
  0.000000000000E+00  0.000000000000E+00  0.000000000000E+00  0.000000000000E+00  0.000000000000E+00  0.000000000000E+00  0.000000000000E+00
  0.000000000000E+00  0.000000000000E+00  0.000000000000E+00  0.000000000000E+00  0.000000000000E+00  0.000000000000E+00  0.000000000000E+00
  0.000000000000E+00  0.000000000000E+00  0.000000000000E+00  0.000000000000E+00  0.000000000000E+00  0.000000000000E+00  0.000000000000E+00
  0.000000000000E+00  0.000000000000E+00  0.000000000000E+00  0.000000000000E+00  0.000000000000E+00  0.000000000000E+00  0.000000000000E+00
  0.000000000000E+00  0.000000000000E+00  0.000000000000E+00  0.000000000000E+00  0.000000000000E+00  0.000000000000E+00  0.000000000000E+00
  0.000000000000E+00  0.000000000000E+00  0.000000000000E+00  0.000000000000E+00  0.000000000000E+00  0.000000000000E+00  0.000000000000E+00
  0.000000000000E+00  0.000000000000E+00  0.000000000000E+00  0.000000000000E+00  0.000000000000E+00  0.000000000000E+00  0.000000000000E+00
  0.000000000000E+00  0.000000000000E+00  0.000000000000E+00  0.000000000000E+00  0.000000000000E+00  0.000000000000E+00  0.000000000000E+00
  0.000000000000E+00  0.000000000000E+00  0.000000000000E+00  0.000000000000E+00  0.000000000000E+00  0.000000000000E+00  0.000000000000E+00
  0.000000000000E+00  0.000000000000E+00  0.000000000000E+00  0.000000000000E+00  0.000000000000E+00  0.000000000000E+00  0.000000000000E+00
  0.000000000000E+00  0.000000000000E+00  0.000000000000E+00  0.000000000000E+00  0.000000000000E+00  0.000000000000E+00  0.000000000000E+00
  0.000000000000E+00  0.000000000000E+00
  0.250000000000E+01  0.250000000000E+01  0.200000000000E+01  0.250000000000E+01  0.200000000000E+01  0.150000000000E+01  0.250000000000E+01
  0.200000000000E+01  0.150000000000E+01  0.100000000000E+01  0.250000000000E+01  0.200000000000E+01  0.150000000000E+01  0.100000000000E+01
  0.500000000000E+00  0.250000000000E+01  0.200000000000E+01  0.150000000000E+01  0.100000000000E+01  0.500000000000E+00  0.000000000000E+00
  0.250000000000E+01  0.200000000000E+01  0.150000000000E+01  0.100000000000E+01  0.500000000000E+00  0.000000000000E+00 -0.500000000000E+00
  0.250000000000E+01  0.200000000000E+01  0.150000000000E+01  0.100000000000E+01  0.500000000000E+00  0.000000000000E+00 -0.500000000000E+00
 -0.100000000000E+01  0.250000000000E+01  0.200000000000E+01  0.150000000000E+01  0.100000000000E+01  0.500000000000E+00  0.000000000000E+00
 -0.500000000000E+00 -0.100000000000E+01 -0.150000000000E+01  0.250000000000E+01  0.200000000000E+01  0.150000000000E+01  0.100000000000E+01
  0.500000000000E+00  0.000000000000E+00 -0.500000000000E+00 -0.100000000000E+01 -0.150000000000E+01 -0.200000000000E+01  0.250000000000E+01
  0.200000000000E+01  0.150000000000E+01  0.100000000000E+01  0.500000000000E+00  0.000000000000E+00 -0.500000000000E+00 -0.100000000000E+01
 -0.150000000000E+01 -0.200000000000E+01 -0.250000000000E+01  0.200000000000E+01  0.150000000000E+01  0.100000000000E+01  0.500000000000E+00
  0.000000000000E+00 -0.500000000000E+00 -0.100000000000E+01 -0.150000000000E+01 -0.200000000000E+01 -0.250000000000E+01  0.150000000000E+01
  0.100000000000E+01  0.500000000000E+00  0.000000000000E+00 -0.500000000000E+00 -0.100000000000E+01 -0.150000000000E+01 -0.200000000000E+01
 -0.250000000000E+01  0.100000000000E+01  0.500000000000E+00  0.000000000000E+00 -0.500000000000E+00 -0.100000000000E+01 -0.150000000000E+01
 -0.200000000000E+01 -0.250000000000E+01  0.500000000000E+00  0.000000000000E+00 -0.500000000000E+00 -0.100000000000E+01 -0.150000000000E+01
 -0.200000000000E+01 -0.250000000000E+01  0.000000000000E+00 -0.500000000000E+00 -0.100000000000E+01 -0.150000000000E+01 -0.200000000000E+01
 -0.250000000000E+01 -0.500000000000E+00 -0.100000000000E+01 -0.150000000000E+01 -0.200000000000E+01 -0.250000000000E+01 -0.100000000000E+01
 -0.150000000000E+01 -0.200000000000E+01 -0.250000000000E+01 -0.150000000000E+01 -0.200000000000E+01 -0.250000000000E+01 -0.200000000000E+01
 -0.250000000000E+01 -0.250000000000E+01
  0.000000000000E+00  0.500000000000E+00  0.000000000000E+00  0.100000000000E+01  0.500000000000E+00  0.000000000000E+00  0.150000000000E+01
  0.100000000000E+01  0.500000000000E+00  0.000000000000E+00  0.200000000000E+01  0.150000000000E+01  0.100000000000E+01  0.500000000000E+00
  0.000000000000E+00  0.250000000000E+01  0.200000000000E+01  0.150000000000E+01  0.100000000000E+01  0.500000000000E+00  0.000000000000E+00
  0.300000000000E+01  0.250000000000E+01  0.200000000000E+01  0.150000000000E+01  0.100000000000E+01  0.500000000000E+00  0.000000000000E+00
  0.350000000000E+01  0.300000000000E+01  0.250000000000E+01  0.200000000000E+01  0.150000000000E+01  0.100000000000E+01  0.500000000000E+00
  0.000000000000E+00  0.400000000000E+01  0.350000000000E+01  0.300000000000E+01  0.250000000000E+01  0.200000000000E+01  0.150000000000E+01
  0.100000000000E+01  0.500000000000E+00  0.000000000000E+00  0.450000000000E+01  0.400000000000E+01  0.350000000000E+01  0.300000000000E+01
  0.250000000000E+01  0.200000000000E+01  0.150000000000E+01  0.100000000000E+01  0.500000000000E+00  0.000000000000E+00  0.500000000000E+01
  0.450000000000E+01  0.400000000000E+01  0.350000000000E+01  0.300000000000E+01  0.250000000000E+01  0.200000000000E+01  0.150000000000E+01
  0.100000000000E+01  0.500000000000E+00  0.000000000000E+00  0.500000000000E+01  0.450000000000E+01  0.400000000000E+01  0.350000000000E+01
  0.300000000000E+01  0.250000000000E+01  0.200000000000E+01  0.150000000000E+01  0.100000000000E+01  0.500000000000E+00  0.500000000000E+01
  0.450000000000E+01  0.400000000000E+01  0.350000000000E+01  0.300000000000E+01  0.250000000000E+01  0.200000000000E+01  0.150000000000E+01
  0.100000000000E+01  0.500000000000E+01  0.450000000000E+01  0.400000000000E+01  0.350000000000E+01  0.300000000000E+01  0.250000000000E+01
  0.200000000000E+01  0.150000000000E+01  0.500000000000E+01  0.450000000000E+01  0.400000000000E+01  0.350000000000E+01  0.300000000000E+01
  0.250000000000E+01  0.200000000000E+01  0.500000000000E+01  0.450000000000E+01  0.400000000000E+01  0.350000000000E+01  0.300000000000E+01
  0.250000000000E+01  0.500000000000E+01  0.450000000000E+01  0.400000000000E+01  0.350000000000E+01  0.300000000000E+01  0.500000000000E+01
  0.450000000000E+01  0.400000000000E+01  0.350000000000E+01  0.500000000000E+01  0.450000000000E+01  0.400000000000E+01  0.500000000000E+01
  0.450000000000E+01  0.500000000000E+01
  0.823517438013E+00  0.995359964585E+00  0.823237242518E+00  0.995458670237E+00  0.995360417818E+00  0.823309208761E+00  0.995566265154E+00
  0.995438025257E+00  0.995360734788E+00  0.823322083485E+00  0.995576527287E+00  0.995564510823E+00  0.995445178249E+00  0.995362096815E+00
  0.823299925229E+00  0.995944249529E+00  0.995575585576E+00  0.995564793121E+00  0.995444252227E+00  0.995361166171E+00  0.823318171164E+00
  0.996181361052E+00  0.995944571105E+00  0.995576232394E+00  0.995564792614E+00  0.995442553112E+00  0.995362146923E+00  0.823299925148E+00
  0.996592280930E+00  0.996181488704E+00  0.995944366178E+00  0.995576237341E+00  0.995564568515E+00  0.995444196829E+00  0.995361166118E+00
  0.823322083231E+00  0.997053423651E+00  0.996592218033E+00  0.996181325265E+00  0.995944498092E+00  0.995575831515E+00  0.995565075960E+00
  0.995442553138E+00  0.995362096719E+00  0.823309208596E+00  0.997708113295E+00  0.997053418835E+00  0.996592252863E+00  0.996181568266E+00
  0.995944344451E+00  0.995576318968E+00  0.995564568489E+00  0.995444252281E+00  0.995360734594E+00  0.823237247534E+00  0.998587938634E+00
  0.997708186696E+00  0.997053404133E+00  0.996592303066E+00  0.996181342514E+00  0.995944596694E+00  0.995575831525E+00  0.995564792579E+00
  0.995445178317E+00  0.995360416951E+00  0.823517448643E+00  0.998588181412E+00  0.997708095210E+00  0.997053480786E+00  0.996592232644E+00
  0.996181581546E+00  0.995944344446E+00  0.995576237341E+00  0.995564793101E+00  0.995438025827E+00  0.995359962739E+00  0.998587930024E+00
  0.997708209715E+00  0.997053352128E+00  0.996592276998E+00  0.996181342516E+00  0.995944498080E+00  0.995576232454E+00  0.995564510642E+00
  0.995458671590E+00  0.998588175093E+00  0.997708046666E+00  0.997053468325E+00  0.996592232645E+00  0.996181568266E+00  0.995944366169E+00
  0.995575585651E+00  0.995566265132E+00  0.998587885633E+00  0.997708211369E+00  0.997053352130E+00  0.996592303066E+00  0.996181325275E+00
  0.995944571081E+00  0.995576527511E+00  0.998588205353E+00  0.997708046666E+00  0.997053480786E+00  0.996592252865E+00  0.996181488705E+00
  0.995944249534E+00  0.998587885634E+00  0.997708209710E+00  0.997053404137E+00  0.996592218019E+00  0.996181361073E+00  0.998588175088E+00
  0.997708095209E+00  0.997053418839E+00  0.996592280933E+00  0.998587930022E+00  0.997708186700E+00  0.997053423655E+00  0.998588181412E+00
  0.997708113276E+00  0.998587938615E+00
  0.000000000000E+00  0.504681561933E+00  0.000000000000E+00  0.504437438023E+00  0.504665489205E+00  0.000000000000E+00  0.504465201182E+00
  0.504460742483E+00  0.504664259712E+00  0.000000000000E+00  0.504374269285E+00  0.504468456389E+00  0.504455118353E+00  0.504662499311E+00
  0.000000000000E+00  0.504048451178E+00  0.504375338899E+00  0.504467586376E+00  0.504456558941E+00  0.504663805801E+00  0.000000000000E+00
  0.503794542304E+00  0.504048691204E+00  0.504374432476E+00  0.504467133171E+00  0.504457907993E+00  0.504663014246E+00  0.000000000000E+00
  0.503361729442E+00  0.503794953285E+00  0.504048716605E+00  0.504374839501E+00  0.504467427699E+00  0.504456635525E+00  0.504663805861E+00
  0.000000000000E+00  0.502914017237E+00  0.503361610825E+00  0.503794649630E+00  0.504048595120E+00  0.504374872144E+00  0.504466915208E+00
  0.504457907992E+00  0.504662499467E+00  0.000000000000E+00  0.502262546980E+00  0.502913784506E+00  0.503361631509E+00  0.503794624276E+00
  0.504048690037E+00  0.504374527529E+00  0.504467427725E+00  0.504456558860E+00  0.504664259920E+00  0.000000000000E+00  0.501462995728E+00
  0.502262657954E+00  0.502913952679E+00  0.503361548956E+00  0.503794781480E+00  0.504048509712E+00  0.504374872134E+00  0.504467133221E+00
  0.504455118166E+00  0.504665490077E+00  0.000000000000E+00  0.501463181463E+00  0.502262540969E+00  0.502913883006E+00  0.503361795407E+00
  0.503794631561E+00  0.504048690043E+00  0.504374839489E+00  0.504467586474E+00  0.504460742135E+00  0.504681563968E+00  0.501463004005E+00
  0.502262757352E+00  0.502914036615E+00  0.503361552079E+00  0.503794781477E+00  0.504048595131E+00  0.504374432416E+00  0.504468456480E+00
  0.504437437183E+00  0.501463214846E+00  0.502262508252E+00  0.502913844021E+00  0.503361795414E+00  0.503794624265E+00  0.504048716625E+00
  0.504375338853E+00  0.504465201035E+00  0.501462897043E+00  0.502262694272E+00  0.502914036619E+00  0.503361548965E+00  0.503794649600E+00
  0.504048691257E+00  0.504374269023E+00  0.501463171684E+00  0.502262508249E+00  0.502913883015E+00  0.503361631497E+00  0.503794953275E+00
  0.504048451153E+00  0.501462897034E+00  0.502262757354E+00  0.502913952682E+00  0.503361610812E+00  0.503794542297E+00  0.501463214839E+00
  0.502262540987E+00  0.502913784499E+00  0.503361729451E+00  0.501463004014E+00  0.502262657957E+00  0.502914017250E+00  0.501463181453E+00
  0.502262546986E+00  0.501462995741E+00
  0.000000000000E+00  0.000000000000E+00  0.000000000000E+00  0.000000000000E+00 -0.569006042028E-05  0.000000000000E+00  0.000000000000E+00
 -0.945738102679E-05  0.184295420608E-05  0.000000000000E+00  0.000000000000E+00  0.358109275182E-06  0.130265911622E-05  0.999978489545E-06
  0.000000000000E+00  0.000000000000E+00 -0.265891946351E-07  0.240986821865E-06 -0.129895767466E-05  0.377768952649E-06  0.000000000000E+00
  0.000000000000E+00  0.719065398558E-07  0.520108048557E-08 -0.130179350009E-06 -0.642305584262E-06 -0.127262639713E-10  0.000000000000E+00
  0.000000000000E+00 -0.219418432789E-07 -0.130748727640E-06 -0.347307075216E-07 -0.165458135409E-07  0.215630381219E-10 -0.377746711058E-06
  0.000000000000E+00  0.000000000000E+00 -0.651601338649E-09 -0.564701102918E-07  0.673405607329E-07  0.146110594215E-06  0.172965153443E-11
  0.642287458667E-06 -0.999844906689E-06  0.000000000000E+00  0.000000000000E+00 -0.103060108174E-07 -0.104233592292E-07  0.179111972903E-07
  0.594831857984E-07  0.341999297877E-11  0.165356566296E-07  0.129891871611E-05 -0.184297010526E-05  0.000000000000E+00  0.000000000000E+00
 -0.964510797318E-08  0.163813506034E-07  0.847303759813E-08 -0.239184673798E-07 -0.454353668902E-11 -0.146112460904E-06  0.130211191299E-06
 -0.130257662009E-05  0.568980501088E-05  0.000000000000E+00 -0.853115569123E-08  0.163815592002E-07  0.102607580768E-07 -0.328114636003E-07
 -0.711195800529E-11 -0.594845055589E-07  0.347266449086E-07 -0.240988302051E-06  0.945763443659E-05  0.000000000000E+00  0.487338002337E-08
  0.241943855072E-08 -0.160181240717E-07 -0.429093155057E-11  0.239230099212E-07 -0.673427421320E-07 -0.519905951102E-08 -0.358142136946E-06
  0.000000000000E+00 -0.260536167830E-07 -0.962703762086E-08 -0.142912445627E-11  0.328269958583E-07 -0.179160239634E-07  0.130747604893E-06
  0.266349601177E-07  0.000000000000E+00 -0.143603576955E-07  0.753801012661E-11  0.160176428948E-07 -0.848480665192E-08  0.564758082901E-07
 -0.718962934698E-07  0.000000000000E+00  0.586639466559E-11  0.962112959446E-08 -0.102714973237E-07  0.104308739127E-07  0.219442660368E-07
  0.000000000000E+00  0.143477644649E-07 -0.240940165839E-08 -0.163860750965E-07  0.646839489252E-09  0.000000000000E+00  0.260683269223E-07
 -0.163802776786E-07  0.103055999064E-07  0.000000000000E+00 -0.488405678239E-08  0.965579365009E-08  0.000000000000E+00  0.852153402329E-08
  0.000000000000E+00  0.000000000000E+00
  0.000000000000E+00  0.143508570897E-02  0.000000000000E+00  0.132824092272E-03  0.132915651063E-02  0.000000000000E+00  0.140096265349E-03
  0.129236611469E-03  0.134612554269E-02  0.000000000000E+00  0.526295906773E-05  0.137085589369E-03  0.130778532717E-03  0.135458092357E-02
  0.000000000000E+00  0.837103152444E-05  0.614219332081E-05  0.137431439940E-03  0.130564981962E-03  0.134752595796E-02  0.000000000000E+00
  0.283632867979E-05  0.914202124915E-05  0.561839984844E-05  0.136148854934E-03  0.130502771434E-03  0.135347511061E-02  0.000000000000E+00
 -0.276449643373E-04  0.376031998787E-05  0.875101930017E-05  0.518318893242E-05  0.136902794198E-03  0.130736019461E-03  0.134752593426E-02
  0.000000000000E+00 -0.710903234082E-04 -0.270964960675E-04  0.302517257006E-05  0.859210045198E-05  0.600673794757E-05  0.136340992983E-03
  0.130502789954E-03  0.135458081995E-02  0.000000000000E+00 -0.281552388590E-03 -0.708961096218E-04 -0.278008972597E-04  0.332101727637E-05
  0.900974133496E-05  0.509531503636E-05  0.136902799490E-03  0.130564964461E-03  0.134612558275E-02  0.000000000000E+00 -0.846408802272E-03
 -0.281645672355E-03 -0.712348252797E-04 -0.270888065671E-04  0.341070606397E-05  0.835071203932E-05  0.600673119484E-05  0.136148865084E-03
  0.130778588673E-03  0.132915783943E-02  0.000000000000E+00 -0.846358875941E-03 -0.281610208111E-03 -0.706500774135E-04 -0.274594260205E-04
  0.311803089385E-05  0.900973393251E-05  0.518318947693E-05  0.137431469208E-03  0.129236385408E-03  0.143508842257E-02 -0.846410235758E-03
 -0.281458743084E-03 -0.710866171338E-04 -0.273065451251E-04  0.341070457612E-05  0.859210226862E-05  0.561838920127E-05  0.137085872738E-03
  0.132823754944E-03 -0.846324788749E-03 -0.281641778645E-03 -0.708741161799E-04 -0.274594231406E-04  0.332101978937E-05  0.875101084793E-05
  0.614221533435E-05  0.140096820043E-03 -0.846542264107E-03 -0.281610203731E-03 -0.710866214202E-04 -0.270887859362E-04  0.302512044502E-05
  0.914211958564E-05  0.526281121042E-05 -0.846330893359E-03 -0.281641788128E-03 -0.706500581341E-04 -0.278009155410E-04  0.376033516648E-05
  0.837104685965E-05 -0.846542270882E-03 -0.281458735430E-03 -0.712348093269E-04 -0.270965058252E-04  0.283633871564E-05 -0.846324796634E-03
 -0.281610186865E-03 -0.708961212828E-04 -0.276449837445E-04 -0.846410231654E-03 -0.281645673194E-03 -0.710903586432E-04 -0.846358872284E-03
 -0.281552399976E-03 -0.846408809846E-03
  0.711441229014E+00  0.709754906427E+00  0.711242948969E+00  0.709756285852E+00  0.709748178514E+00  0.711289457021E+00  0.709846405256E+00
  0.709736759280E+00  0.709750391970E+00  0.711301319786E+00  0.709873753153E+00  0.709844739578E+00  0.709743132132E+00  0.709751798199E+00
  0.711285263343E+00  0.710230284608E+00  0.709872686508E+00  0.709844999462E+00  0.709742238455E+00  0.709750495455E+00  0.711297689433E+00
  0.710469523779E+00  0.710230535790E+00  0.709873448675E+00  0.709845160128E+00  0.709740749987E+00  0.709751860552E+00  0.711285263271E+00
  0.710881637510E+00  0.710469585066E+00  0.710230395525E+00  0.709873321577E+00  0.709844849216E+00  0.709742286962E+00  0.709750495408E+00
  0.711301319559E+00  0.711340376692E+00  0.710881576768E+00  0.710469495840E+00  0.710230474682E+00  0.709873024919E+00  0.709845317434E+00
  0.709740750005E+00  0.709751798100E+00  0.711289456951E+00  0.711994137583E+00  0.711340369224E+00  0.710881619493E+00  0.710469659247E+00
  0.710230378267E+00  0.709873408158E+00  0.709844849194E+00  0.709742238506E+00  0.709750391772E+00  0.711242952974E+00  0.712875265496E+00
  0.711994181392E+00  0.711340360392E+00  0.710881646268E+00  0.710469500944E+00  0.710230560360E+00  0.709873024927E+00  0.709845160089E+00
  0.709743132217E+00  0.709748177808E+00  0.711441237256E+00  0.712875440135E+00  0.711994118627E+00  0.711340421180E+00  0.710881604728E+00
  0.710469671730E+00  0.710230378263E+00  0.709873321581E+00  0.709844999434E+00  0.709736759825E+00  0.709754904937E+00  0.712875254408E+00
  0.711994199656E+00  0.711340317505E+00  0.710881627011E+00  0.710469500948E+00  0.710230474668E+00  0.709873448736E+00  0.709844739402E+00
  0.709756287173E+00  0.712875438191E+00  0.711994075999E+00  0.711340409161E+00  0.710881604728E+00  0.710469659248E+00  0.710230395518E+00
  0.709872686583E+00  0.709846405242E+00  0.712875215722E+00  0.711994199142E+00  0.711340317506E+00  0.710881646268E+00  0.710469495848E+00
  0.710230535769E+00  0.709873753365E+00  0.712875460610E+00  0.711994075999E+00  0.711340421179E+00  0.710881619495E+00  0.710469585069E+00
  0.710230284612E+00  0.712875215723E+00  0.711994199651E+00  0.711340360396E+00  0.710881576755E+00  0.710469523798E+00  0.712875438186E+00
  0.711994118623E+00  0.711340369228E+00  0.710881637513E+00  0.712875254406E+00  0.711994181394E+00  0.711340376697E+00  0.712875440137E+00
  0.711994137565E+00  0.712875265475E+00
  0.000000000000E+00  0.505115922777E+00  0.000000000000E+00  0.504894106774E+00  0.505102055010E+00  0.000000000000E+00  0.504917129500E+00
  0.504919141305E+00  0.505100162259E+00  0.000000000000E+00  0.504818974167E+00  0.504920534331E+00  0.504913059623E+00  0.505098268197E+00
  0.000000000000E+00  0.504459363463E+00  0.504820185248E+00  0.504919642790E+00  0.504914584496E+00  0.505099784327E+00  0.000000000000E+00
  0.504180355074E+00  0.504459595936E+00  0.504819171004E+00  0.504919131560E+00  0.504916033291E+00  0.505098771130E+00  0.000000000000E+00
  0.503705029455E+00  0.504180776932E+00  0.504459619265E+00  0.504819624830E+00  0.504919480306E+00  0.504914629888E+00  0.505099784390E+00
  0.000000000000E+00  0.503211098688E+00  0.503704916352E+00  0.504180463341E+00  0.504459502974E+00  0.504819660104E+00  0.504918929359E+00
  0.504916033290E+00  0.505098268365E+00  0.000000000000E+00  0.502493430318E+00  0.503210867219E+00  0.503704930754E+00  0.504180441481E+00
  0.504459593307E+00  0.504819302492E+00  0.504919480333E+00  0.504914584410E+00  0.505100162488E+00  0.000000000000E+00  0.501605022665E+00
  0.502493544420E+00  0.503211034953E+00  0.503704851307E+00  0.504180597848E+00  0.504459412037E+00  0.504819660093E+00  0.504919131615E+00
  0.504913059422E+00  0.505102055917E+00  0.000000000000E+00  0.501605207902E+00  0.502493426471E+00  0.503210962999E+00  0.503705094867E+00
  0.504180447703E+00  0.504459593312E+00  0.504819624816E+00  0.504919642893E+00  0.504919140908E+00  0.505115924883E+00  0.501605032686E+00
  0.502493643110E+00  0.503211120964E+00  0.503704854678E+00  0.504180597844E+00  0.504459502988E+00  0.504819170937E+00  0.504920534439E+00
  0.504894105806E+00  0.501605240335E+00  0.502493396575E+00  0.503210925128E+00  0.503705094873E+00  0.504180441470E+00  0.504459619285E+00
  0.504820185195E+00  0.504917129353E+00  0.501604928379E+00  0.502493580685E+00  0.503211120967E+00  0.503704851316E+00  0.504180463310E+00
  0.504459595990E+00  0.504818973886E+00  0.501605196883E+00  0.502493396571E+00  0.503210963007E+00  0.503704930742E+00  0.504180776923E+00
  0.504459363438E+00  0.501604928370E+00  0.502493643113E+00  0.503211034955E+00  0.503704916340E+00  0.504180355066E+00  0.501605240328E+00
  0.502493426490E+00  0.503210867211E+00  0.503705029464E+00  0.501605032695E+00  0.502493544423E+00  0.503211098700E+00  0.501605207892E+00
  0.502493430325E+00  0.501605022682E+00
  0.120946767445E+01  0.998288965151E+00  0.120954213091E+01  0.998191918863E+00  0.998279047601E+00  0.120951548851E+01  0.998210769229E+00
  0.998185158474E+00  0.998281842984E+00  0.120951674645E+01  0.998238937113E+00  0.998210185885E+00  0.998186948609E+00  0.998282454856E+00
  0.120952199577E+01  0.998371544312E+00  0.998238381405E+00  0.998210268296E+00  0.998186620310E+00  0.998281555890E+00  0.120951632077E+01
  0.998470130219E+00  0.998371575040E+00  0.998238804631E+00  0.998210494738E+00  0.998186230713E+00  0.998282492301E+00  0.120952199577E+01
  0.998637368118E+00  0.998470088405E+00  0.998371583295E+00  0.998238620945E+00  0.998210282217E+00  0.998186744081E+00  0.998281555877E+00
  0.120951674644E+01  0.998819625655E+00  0.998637345813E+00  0.998470126822E+00  0.998371562331E+00  0.998238610689E+00  0.998210431848E+00
  0.998186230712E+00  0.998282454813E+00  0.120951548863E+01  0.999081574393E+00  0.998819619994E+00  0.998637370931E+00  0.998470112911E+00
  0.998371580815E+00  0.998238660850E+00  0.998210282212E+00  0.998186620328E+00  0.998281842900E+00  0.120954213035E+01  0.999436637558E+00
  0.999081562365E+00  0.998819622320E+00  0.998637358239E+00  0.998470116708E+00  0.998371583926E+00  0.998238610690E+00  0.998210494719E+00
  0.998186948662E+00  0.998279047478E+00  0.120946767285E+01  0.999436639415E+00  0.999081565904E+00  0.998819630885E+00  0.998637370450E+00
  0.998470117142E+00  0.998371580814E+00  0.998238620950E+00  0.998210268276E+00  0.998185158669E+00  0.998288964907E+00  0.999436630630E+00
  0.999081564943E+00  0.998819614198E+00  0.998637357309E+00  0.998470116711E+00  0.998371562323E+00  0.998238804657E+00  0.998210185819E+00
  0.998191919365E+00  0.999436643012E+00  0.999081554699E+00  0.998819626493E+00  0.998637370450E+00  0.998470112911E+00  0.998371583294E+00
  0.998238381435E+00  0.998210769233E+00  0.999436620822E+00  0.999081562565E+00  0.998819614198E+00  0.998637358238E+00  0.998470126824E+00
  0.998371575034E+00  0.998238937187E+00  0.999436644158E+00  0.999081554699E+00  0.998819630885E+00  0.998637370932E+00  0.998470088407E+00
  0.998371544313E+00  0.999436620822E+00  0.999081564941E+00  0.998819622321E+00  0.998637345810E+00  0.998470130223E+00  0.999436643011E+00
  0.999081565901E+00  0.998819619994E+00  0.998637368119E+00  0.999436630630E+00  0.999081562365E+00  0.998819625658E+00  0.999436639417E+00
  0.999081574387E+00  0.999436637547E+00
        67        57        46        56
        57        47        37        46
        47        38        29        37
        38        30        22        29
        30        23        16        22
        23        17        11        16
        17        12         7        11
        12         8         4         7
         8         5         2         4
         5         3         1         2
        77        68        57        67
        68        58        47        57
        58        48        38        47
        48        39        30        38
        39        31        23        30
        31        24        17        23
        24        18        12        17
        18        13         8        12
        13         9         5         8
         9         6         3         5
        86        78        68        77
        78        69        58        68
        69        59        48        58
        59        49        39        48
        49        40        31        39
        40        32        24        31
        32        25        18        24
        25        19        13        18
        19        14         9        13
        14        10         6         9
        94        87        78        86
        87        79        69        78
        79        70        59        69
        70        60        49        59
        60        50        40        49
        50        41        32        40
        41        33        25        32
        33        26        19        25
        26        20        14        19
        20        15        10        14
       101        95        87        94
        95        88        79        87
        88        80        70        79
        80        71        60        70
        71        61        50        60
        61        51        41        50
        51        42        33        41
        42        34        26        33
        34        27        20        26
        27        21        15        20
       107       102        95       101
       102        96        88        95
        96        89        80        88
        89        81        71        80
        81        72        61        71
        72        62        51        61
        62        52        42        51
        52        43        34        42
        43        35        27        34
        35        28        21        27
       112       108       102       107
       108       103        96       102
       103        97        89        96
        97        90        81        89
        90        82        72        81
        82        73        62        72
        73        63        52        62
        63        53        43        52
        53        44        35        43
        44        36        28        35
       116       113       108       112
       113       109       103       108
       109       104        97       103
       104        98        90        97
        98        91        82        90
        91        83        73        82
        83        74        63        73
        74        64        53        63
        64        54        44        53
        54        45        36        44
       119       117       113       116
       117       114       109       113
       114       110       104       109
       110       105        98       104
       105        99        91        98
        99        92        83        91
        92        84        74        83
        84        75        64        74
        75        65        54        64
        65        55        45        54
       121       120       117       119
       120       118       114       117
       118       115       110       114
       115       111       105       110
       111       106        99       105
       106       100        92        99
       100        93        84        92
        93        85        75        84
        85        76        65        75
        76        66        55        65
zone t="boundary 2 bc-2", solutiontime= 0.3000000E+02, strandid=1002, i=121, j=100, f=feblock
  0.000000000000E+00  0.500000000000E+00  0.000000000000E+00  0.100000000000E+01  0.500000000000E+00  0.000000000000E+00  0.150000000000E+01
  0.100000000000E+01  0.500000000000E+00  0.000000000000E+00  0.200000000000E+01  0.150000000000E+01  0.100000000000E+01  0.500000000000E+00
  0.000000000000E+00  0.250000000000E+01  0.200000000000E+01  0.150000000000E+01  0.100000000000E+01  0.500000000000E+00  0.000000000000E+00
  0.300000000000E+01  0.250000000000E+01  0.200000000000E+01  0.150000000000E+01  0.100000000000E+01  0.500000000000E+00  0.000000000000E+00
  0.350000000000E+01  0.300000000000E+01  0.250000000000E+01  0.200000000000E+01  0.150000000000E+01  0.100000000000E+01  0.500000000000E+00
  0.000000000000E+00  0.400000000000E+01  0.350000000000E+01  0.300000000000E+01  0.250000000000E+01  0.200000000000E+01  0.150000000000E+01
  0.100000000000E+01  0.500000000000E+00  0.000000000000E+00  0.450000000000E+01  0.400000000000E+01  0.350000000000E+01  0.300000000000E+01
  0.250000000000E+01  0.200000000000E+01  0.150000000000E+01  0.100000000000E+01  0.500000000000E+00  0.000000000000E+00  0.500000000000E+01