# vtk DataFile Version 2.0
FUN3D:global_image_vtk
ASCII
DATASET UNSTRUCTURED_GRID
POINTS 1331 double
    0.0000000000000000E+00    0.2500000000000000E+01    0.0000000000000000E+00
    0.5000000000000000E+00    0.2500000000000000E+01    0.0000000000000000E+00
    0.1000000000000000E+01    0.2500000000000000E+01    0.0000000000000000E+00
    0.1500000000000000E+01    0.2500000000000000E+01    0.0000000000000000E+00
    0.2000000000000000E+01    0.2500000000000000E+01    0.0000000000000000E+00
    0.2500000000000000E+01    0.2500000000000000E+01    0.0000000000000000E+00
    0.3000000000000000E+01    0.2500000000000000E+01    0.0000000000000000E+00
    0.3500000000000000E+01    0.2500000000000000E+01    0.0000000000000000E+00
    0.4000000000000000E+01    0.2500000000000000E+01    0.0000000000000000E+00
    0.4500000000000000E+01    0.2500000000000000E+01    0.0000000000000000E+00
    0.5000000000000000E+01    0.2500000000000000E+01    0.0000000000000000E+00
    0.0000000000000000E+00    0.2500000000000000E+01    0.4999999999999982E+00
    0.4999999999999998E+00    0.2500000000000000E+01    0.4999999999999984E+00
    0.9999999999999998E+00    0.2500000000000000E+01    0.4999999999999987E+00
    0.1500000000000000E+01    0.2500000000000000E+01    0.4999999999999989E+00
    0.2000000000000000E+01    0.2500000000000000E+01    0.4999999999999991E+00
    0.2500000000000000E+01    0.2500000000000000E+01    0.4999999999999993E+00
    0.3000000000000000E+01    0.2500000000000000E+01    0.4999999999999996E+00
    0.3500000000000000E+01    0.2500000000000000E+01    0.4999999999999998E+00
    0.4000000000000000E+01    0.2500000000000000E+01    0.5000000000000000E+00
    0.4500000000000002E+01    0.2500000000000000E+01    0.5000000000000002E+00
    0.5000000000000000E+01    0.2500000000000000E+01    0.5000000000000004E+00
    0.0000000000000000E+00    0.2500000000000000E+01    0.1000000000000001E+01
    0.4999999999999997E+00    0.2500000000000000E+01    0.1000000000000001E+01
    0.1000000000000000E+01    0.2500000000000000E+01    0.1000000000000001E+01
    0.1500000000000000E+01    0.2500000000000000E+01    0.1000000000000001E+01
    0.2000000000000000E+01    0.2500000000000000E+01    0.1000000000000001E+01
    0.2500000000000000E+01    0.2500000000000000E+01    0.1000000000000001E+01
    0.3000000000000000E+01    0.2500000000000000E+01    0.1000000000000001E+01
    0.3500000000000000E+01    0.2500000000000000E+01    0.1000000000000001E+01
    0.4000000000000000E+01    0.2500000000000000E+01    0.1000000000000001E+01
    0.4499999999999999E+01    0.2500000000000000E+01    0.1000000000000001E+01
    0.5000000000000000E+01    0.2500000000000000E+01    0.1000000000000001E+01
    0.0000000000000000E+00    0.2500000000000000E+01    0.1499999999999999E+01
    0.4999999999999994E+00    0.2500000000000000E+01    0.1499999999999999E+01
    0.1000000000000000E+01    0.2500000000000000E+01    0.1499999999999999E+01
    0.1500000000000000E+01    0.2500000000000000E+01    0.1499999999999999E+01
    0.2000000000000001E+01    0.2500000000000000E+01    0.1499999999999999E+01
    0.2500000000000000E+01    0.2500000000000000E+01    0.1499999999999999E+01
    0.2999999999999999E+01    0.2500000000000000E+01    0.1499999999999999E+01
    0.3500000000000000E+01    0.2500000000000000E+01    0.1499999999999999E+01
    0.4000000000000001E+01    0.2500000000000000E+01    0.1499999999999999E+01
    0.4500000000000001E+01    0.2500000000000000E+01    0.1499999999999999E+01
    0.5000000000000000E+01    0.2500000000000000E+01    0.1499999999999999E+01
    0.0000000000000000E+00    0.2500000000000000E+01    0.2000000000000002E+01
    0.4999999999999992E+00    0.2500000000000000E+01    0.2000000000000001E+01
    0.1000000000000000E+01    0.2500000000000000E+01    0.2000000000000001E+01
    0.1500000000000000E+01    0.2500000000000000E+01    0.2000000000000001E+01
    0.2000000000000001E+01    0.2500000000000000E+01    0.2000000000000001E+01
    0.2500000000000000E+01    0.2500000000000000E+01    0.2000000000000001E+01
    0.2999999999999999E+01    0.2500000000000000E+01    0.2000000000000000E+01
    0.3500000000000000E+01    0.2500000000000000E+01    0.2000000000000000E+01
    0.4000000000000000E+01    0.2500000000000000E+01    0.2000000000000000E+01
    0.4500000000000000E+01    0.2500000000000000E+01    0.2000000000000000E+01
    0.5000000000000000E+01    0.2500000000000000E+01    0.2000000000000000E+01
    0.0000000000000000E+00    0.2500000000000000E+01    0.2500000000000000E+01
    0.4999999999999991E+00    0.2500000000000000E+01    0.2500000000000000E+01
    0.1000000000000000E+01    0.2500000000000000E+01    0.2500000000000000E+01
    0.1500000000000000E+01    0.2500000000000000E+01    0.2500000000000000E+01
    0.2000000000000001E+01    0.2500000000000000E+01    0.2500000000000000E+01
    0.2500000000000000E+01    0.2500000000000000E+01    0.2500000000000000E+01
    0.2999999999999999E+01    0.2500000000000000E+01    0.2500000000000000E+01
    0.3500000000000001E+01    0.2500000000000000E+01    0.2500000000000000E+01
    0.4000000000000000E+01    0.2500000000000000E+01    0.2500000000000000E+01
    0.4500000000000001E+01    0.2500000000000000E+01    0.2500000000000000E+01
    0.5000000000000000E+01    0.2500000000000000E+01    0.2500000000000000E+01
    0.0000000000000000E+00    0.2500000000000000E+01    0.2999999999999998E+01
    0.4999999999999989E+00    0.2500000000000000E+01    0.2999999999999998E+01
    0.1000000000000000E+01    0.2500000000000000E+01    0.2999999999999999E+01
    0.1499999999999999E+01    0.2500000000000000E+01    0.2999999999999999E+01
    0.2000000000000001E+01    0.2500000000000000E+01    0.2999999999999999E+01
    0.2500000000000000E+01    0.2500000000000000E+01    0.2999999999999999E+01
    0.2999999999999999E+01    0.2500000000000000E+01    0.2999999999999999E+01
    0.3500000000000001E+01    0.2500000000000000E+01    0.3000000000000000E+01
    0.4000000000000000E+01    0.2500000000000000E+01    0.3000000000000000E+01
    0.4500000000000001E+01    0.2500000000000000E+01    0.3000000000000000E+01
    0.5000000000000000E+01    0.2500000000000000E+01    0.3000000000000000E+01
    0.0000000000000000E+00    0.2500000000000000E+01    0.3500000000000001E+01
    0.4999999999999988E+00    0.2500000000000000E+01    0.3500000000000001E+01
    0.1000000000000001E+01    0.2500000000000000E+01    0.3500000000000001E+01
    0.1499999999999999E+01    0.2500000000000000E+01    0.3500000000000001E+01
    0.2000000000000001E+01    0.2500000000000000E+01    0.3500000000000001E+01
    0.2500000000000000E+01    0.2500000000000000E+01    0.3500000000000001E+01
    0.2999999999999999E+01    0.2500000000000000E+01    0.3500000000000001E+01
    0.3500000000000001E+01    0.2500000000000000E+01    0.3500000000000001E+01
    0.4000000000000001E+01    0.2500000000000000E+01    0.3500000000000001E+01
    0.4500000000000001E+01    0.2500000000000000E+01    0.3500000000000001E+01
    0.5000000000000000E+01    0.2500000000000000E+01    0.3500000000000001E+01
    0.0000000000000000E+00    0.2500000000000000E+01    0.3999999999999999E+01
    0.4999999999999986E+00    0.2500000000000000E+01    0.4000000000000000E+01
    0.1000000000000001E+01    0.2500000000000000E+01    0.3999999999999999E+01
    0.1499999999999999E+01    0.2500000000000000E+01    0.3999999999999999E+01
    0.2000000000000001E+01    0.2500000000000000E+01    0.3999999999999999E+01
    0.2500000000000000E+01    0.2500000000000000E+01    0.3999999999999999E+01
    0.2999999999999998E+01    0.2500000000000000E+01    0.3999999999999999E+01
    0.3500000000000001E+01    0.2500000000000000E+01    0.3999999999999999E+01
    0.3999999999999999E+01    0.2500000000000000E+01    0.3999999999999999E+01
    0.4500000000000003E+01    0.2500000000000000E+01    0.3999999999999999E+01
    0.5000000000000000E+01    0.2500000000000000E+01    0.3999999999999999E+01
    0.0000000000000000E+00    0.2500000000000000E+01    0.4500000000000002E+01
    0.4999999999999984E+00    0.2500000000000000E+01    0.4500000000000002E+01
    0.1000000000000001E+01    0.2500000000000000E+01    0.4500000000000001E+01
    0.1499999999999999E+01    0.2500000000000000E+01    0.4500000000000003E+01
    0.2000000000000002E+01    0.2500000000000000E+01    0.4500000000000001E+01
    0.2500000000000000E+01    0.2500000000000000E+01    0.4500000000000001E+01
    0.2999999999999998E+01    0.2500000000000000E+01    0.4500000000000001E+01
    0.3500000000000001E+01    0.2500000000000000E+01    0.4499999999999999E+01
    0.3999999999999999E+01    0.2500000000000000E+01    0.4499999999999999E+01
    0.4500000000000002E+01    0.2500000000000000E+01    0.4500000000000000E+01
    0.5000000000000000E+01    0.2500000000000000E+01    0.4500000000000000E+01
    0.0000000000000000E+00    0.2500000000000000E+01    0.5000000000000000E+01
    0.4999999999999982E+00    0.2500000000000000E+01    0.5000000000000000E+01
    0.1000000000000001E+01    0.2500000000000000E+01    0.5000000000000000E+01
    0.1499999999999999E+01    0.2500000000000000E+01    0.5000000000000000E+01
    0.2000000000000002E+01    0.2500000000000000E+01    0.5000000000000000E+01
    0.2500000000000000E+01    0.2500000000000000E+01    0.5000000000000000E+01
    0.2999999999999998E+01    0.2500000000000000E+01    0.5000000000000000E+01
    0.3500000000000001E+01    0.2500000000000000E+01    0.5000000000000000E+01
    0.3999999999999999E+01    0.2500000000000000E+01    0.5000000000000000E+01
    0.4500000000000002E+01    0.2500000000000000E+01    0.5000000000000000E+01
    0.5000000000000000E+01    0.2500000000000000E+01    0.5000000000000000E+01
    0.0000000000000000E+00    0.2000000000000000E+01    0.0000000000000000E+00
    0.5000000000000000E+00    0.2000000000000000E+01    0.0000000000000000E+00
    0.1000000000000000E+01    0.2000000000000000E+01    0.0000000000000000E+00
    0.1500000000000000E+01    0.2000000000000000E+01    0.0000000000000000E+00
[...]
POINT_DATA 1331
SCALARS rho double 1
LOOKUP_TABLE default
   0.1822762528906407E+01
   0.8026030686435319E+00
   0.8627008653015508E+00
   0.1000959221274647E+01
   0.1006720854468389E+01
   0.9914296238272451E+00
   0.9931118811235906E+00
   0.9995008850560898E+00
   0.9929731146833078E+00
   0.9054543450719151E+00
   0.5956593431458116E+00
   0.1117290631541345E+01
   0.9418172653453366E+00
   0.9964321048657423E+00
   0.1001299221843960E+01
   0.1003961429442660E+01
   0.1001223105986870E+01
   0.1001142708878271E+01
   0.9985209916163376E+00
   0.9960948443386639E+00
   0.9881641020437782E+00
   0.9977363855499278E+00
   0.1052198018271702E+01
   0.9794793462958783E+00
   0.9764871250245327E+00
   0.9872480505740469E+00
   0.9931418294797383E+00
   0.9919503973117846E+00
   0.9921129853332086E+00
   0.9930147946473283E+00
   0.9901668692666119E+00
   0.9930108272662312E+00
   0.9770223695029526E+00
   0.1026238549541454E+01
   0.1000533749827139E+01
   0.9967210838645606E+00
   0.9938549074520469E+00
   0.9946327353286011E+00
   0.9941494011189981E+00
   0.9942881238910479E+00
   0.9947634633969322E+00
   0.9954433249688268E+00
   0.1000066248310367E+01
   0.1002019117123143E+01
   0.1009869772097786E+01
   0.1002183210887619E+01
   0.9979427109572963E+00
   0.9968532031972716E+00
   0.9971741906987417E+00
   0.9969078544446074E+00
   0.9969725474788490E+00
   0.9976319270144351E+00
   0.9977382796973542E+00
   0.1000276963098284E+01
   0.1001439170154808E+01
   0.1004082138838555E+01
   0.1002178371562446E+01
   0.9998976950106235E+00
   0.9983541358598421E+00
   0.9978983264881567E+00
   0.9976591276652872E+00
   0.9977150848759269E+00
   0.9983077592756199E+00
   0.9988717393172141E+00
   0.1000448091122823E+01
   0.1001711386452399E+01
   0.1001519598351557E+01
   0.1001080692053057E+01
   0.9997881869798210E+00
   0.9989899672885789E+00
   0.9985771239648288E+00
   0.9983814727080685E+00
   0.9983722846467433E+00
   0.9987504310930215E+00
   0.9991146369168024E+00
   0.9999726764072909E+00
   0.1000805491740150E+01
   0.1000684319952459E+01
   0.1000637818564000E+01
   0.9999244238764743E+00
   0.9993468913888419E+00
   0.9989604190964512E+00
   0.9987936681482669E+00
   0.9987846836844488E+00
   0.9990516809721021E+00
   0.9993822564447939E+00
   0.9998994435955604E+00
   0.1000435603271566E+01
   0.1000261225602021E+01
   0.1000271524462988E+01
   0.9998802421005361E+00
   0.9995369017023504E+00
   0.9992432239003856E+00
   0.9990921223040393E+00
   0.9990535599662937E+00
   0.9992054112918867E+00
   0.9994409203946898E+00
   0.9997896281118597E+00
   0.1000184996544068E+01
   0.1000107436172375E+01
   0.1000131979395719E+01
   0.9999060611014134E+00
   0.9996617484199865E+00
   0.9994218087056495E+00
   0.9992751281950800E+00
   0.9992178029020051E+00
   0.9993005735707642E+00
   0.9994766825326625E+00
   0.9997402192321463E+00
   0.1000058239452835E+01
   0.1000043753629250E+01
   0.1000094198592441E+01
   0.9999627986558748E+00
   0.9997641062843532E+00
   0.9995377192003528E+00
   0.9993652859132583E+00
   0.9992670867184807E+00
   0.9992888898459773E+00
   0.9994185137484011E+00
   0.9996545216825170E+00
   0.9999706043892764E+00
   0.1820758100710180E+01
   0.8020723538073024E+00
   0.8628266198098483E+00
   0.1000981785479668E+01
   0.1006747335106956E+01
   0.9914407116266016E+00
   0.9931101915700353E+00
   0.9994709853798927E+00
   0.9929351884261896E+00
   0.9054316379584908E+00
   0.5955741589382395E+00
   0.1114389710317283E+01
   0.9411036321409315E+00
   0.9974162642016966E+00
   0.1001390755967532E+01
   0.1004152447583661E+01
   0.1001346670643523E+01
   0.1001309778772277E+01
   0.9985789428692918E+00
   0.9960224843611336E+00
   0.9879359580921132E+00
   0.9980217697681623E+00
   0.1051858346182224E+01
   0.9794207238654421E+00
   0.9767235796116938E+00
   0.9872380067087887E+00
   0.9931587115720594E+00
   0.9919551152607001E+00
   0.9921157152057032E+00
   0.9930025264788254E+00
   0.9901522196726767E+00
   0.9930923074822400E+00
   0.9772979765470666E+00
   0.1026027145892638E+01
   0.1000420228962811E+01
   0.9968287806839430E+00
   0.9939038654631001E+00
   0.9946891737923803E+00
   0.9941925228239351E+00
   0.9943321176978983E+00
   0.9947908942518374E+00
   0.9954513486962536E+00
   0.1000035576433583E+01
   0.1002006497269512E+01
   0.1009801203981593E+01
   0.1002084855700445E+01
   0.9979249545415502E+00
   0.9968451193327740E+00
   0.9971805047476960E+00
   0.9969153694287081E+00
   0.9969819996741931E+00
   0.9976381680107149E+00
   0.9977422068483057E+00
   0.1000269014447144E+01
   0.1001437900227087E+01
   0.1004061528911719E+01
   0.1002133875286411E+01
   0.9998734659150480E+00
   0.9983369841549443E+00
   0.9978904939082149E+00
   0.9976551459771047E+00
   0.9977141554123004E+00
   0.9983055832973945E+00
   0.9988680190759632E+00
   0.1000437670704871E+01
   0.1001701695422520E+01
   0.1001511371585042E+01
   0.1001059876122171E+01
   0.9997697779120361E+00
   0.9989746439403635E+00
   0.9985664413275602E+00
   0.9983737864194026E+00
   0.9983671741793829E+00
   0.9987460154227159E+00
   0.9991108785138307E+00
   0.9999674427239709E+00
   0.1000799635211344E+01
   0.1000680140475304E+01
   0.1000628217447404E+01
   0.9999132200001470E+00
   0.9993357652846520E+00
   0.9989508639057486E+00
   0.9987856123813987E+00
   0.9987781537457312E+00
   0.9990458735695588E+00
   0.9993771654966078E+00
   0.9998949172215166E+00
   0.1000432041919869E+01
   0.1000258719813050E+01
   0.1000266517099814E+01
   0.9998734189440428E+00
   0.9995292080835028E+00
   0.9992355845097871E+00
   0.9990848828670186E+00
   0.9990470004960099E+00
   0.9991994312562784E+00
   0.9994356465503237E+00
   0.9997855331275105E+00
   0.1000182493716111E+01
   0.1000106006666242E+01
   0.1000129197019090E+01
   0.9999017812775446E+00
   0.9996563231524899E+00
   0.9994157591077580E+00
   0.9992688298243384E+00
   0.9992115897064321E+00
   0.9992946338803841E+00
   0.9994712918013758E+00
   0.9997361664131016E+00
   0.1000056150789381E+01
   0.1000043060166914E+01
   0.1000092380196825E+01
   0.9999596392623793E+00
   0.9997597171274983E+00
   0.9995324382473945E+00
   0.9993594705036342E+00
   0.9992610816305599E+00
   0.9992829685798565E+00
   0.9994129597565571E+00
   0.9996502172920716E+00
   0.9999683613235689E+00
   0.1820405335365820E+01
   0.8021939179391714E+00
   0.8629121147465290E+00
   0.1000913961551335E+01
   0.1006697986580021E+01
   0.9914115501348608E+00
   0.9930915004031092E+00
   0.9994607799929912E+00
   0.9929425930029269E+00
   0.9054383552619422E+00
   0.5955352816385873E+00
   0.1114381986719125E+01
   0.9414705689303403E+00
   0.9974549981173790E+00
   0.1001335107657666E+01
   0.1004138257978040E+01
   0.1001335461986616E+01
   0.1001308301870157E+01
   0.9985952150944172E+00
   0.9960703652705100E+00
   0.9880433801781602E+00
   0.9981210865548090E+00
   0.1051925922098434E+01
   0.9795445479246913E+00
   0.9767356452953384E+00
   0.9872150136985038E+00
   0.9931514099339750E+00
   0.9919487132184375E+00
   0.9921159441243852E+00
   0.9930097019219829E+00
   0.9901697357355470E+00
   0.9931201422035637E+00
   0.9773092841521674E+00
   0.1026044492604026E+01
   0.1000500558033555E+01
   0.9968488774349796E+00
   0.9938905045327954E+00
   0.9946749467605314E+00
   0.9941764745417556E+00
   0.9943193332446275E+00
   0.9947842933459913E+00
   0.9954538584666741E+00
   0.1000055482799932E+01
   0.1002032229403202E+01
   0.1009812744325842E+01
   0.1002129469146498E+01
   0.9979521466766765E+00
   0.9968537132268132E+00
   0.9971828603567559E+00
   0.9969130259937348E+00
   0.9969791370699067E+00
   0.9976369421573191E+00
   0.9977434460570602E+00
   0.1000275925524053E+01
   0.1001445672314707E+01
   0.1004068027654267E+01
   0.1002156635781433E+01
   0.9998922801603991E+00
   0.9983466882390098E+00
   0.9978954137766348E+00
   0.9976563510759455E+00
   0.9977140437443851E+00
   0.9983060145396998E+00
   0.9988699143061734E+00
   0.1000442694305383E+01
   0.1001707830634878E+01
   0.1001515884204001E+01
   0.1001072071760782E+01
   0.9997832640599784E+00
   0.9989847125870124E+00
   0.9985734756756336E+00
   0.9983780095518162E+00
   0.9983697807185616E+00
   0.9987480579074884E+00
   0.9991128524469919E+00
   0.9999700472468973E+00
   0.1000802613636048E+01
   0.1000683077317948E+01
   0.1000634675106804E+01
   0.9999216112193019E+00
   0.9993435618540450E+00
   0.9989575066646559E+00
   0.9987907601515262E+00
   0.9987821525385934E+00
   0.9990492040530695E+00
   0.9993801082228677E+00
   0.9998974887347767E+00
   0.1000433971141017E+01
   0.1000260638425575E+01
   0.1000270225587973E+01
   0.9998787717261352E+00
   0.9995350147091866E+00
   0.9992412697008648E+00
   0.9990900117242860E+00
   0.9990515083482907E+00
   0.9992033660170987E+00
   0.9994390377722751E+00
   0.9997881069859321E+00
   0.1000183971594711E+01
   0.1000107145245833E+01
   0.1000131382522900E+01
   0.9999052436623648E+00
   0.9996606077237028E+00
   0.9994204780781483E+00
   0.9992735890899420E+00
   0.9992161686004153E+00
   0.9992988769644464E+00
   0.9994750464168287E+00
   0.9997389249570373E+00
   0.1000057498114970E+01
   0.1000043622202561E+01
   0.1000093841876119E+01
   0.9999622388780269E+00
   0.9997632755265284E+00
   0.9995366619801448E+00
   0.9993640027784284E+00
   0.9992656456446576E+00
   0.9992873452103774E+00
   0.9994169619688186E+00
   0.9996532509870704E+00
   0.9999698820394826E+00
   0.1820473747396655E+01
   0.8023247996936271E+00
   0.8630611551820382E+00
   0.1000924083192863E+01
   0.1006683634930108E+01
   0.9914043781654913E+00
   0.9930876627113072E+00
   0.9994531741289442E+00
   0.9929398503719385E+00
   0.9054607910691786E+00
   0.5955880191784044E+00
   0.1114166818306192E+01
   0.9413776592024301E+00
   0.9976042254241824E+00
   0.1001349002442119E+01
   0.1004154175003007E+01
   0.1001326704224202E+01
   0.1001297802205461E+01
   0.9985614136347806E+00
   0.9960141306679934E+00
   0.9879623171286889E+00
   0.9980785514573864E+00
   0.1051860380967306E+01
   0.9795417472124787E+00
   0.9767979808208049E+00
   0.9872294157122694E+00
   0.9931655241254517E+00
   0.9919532599891245E+00
   0.9921203373564798E+00
   0.9930080104743075E+00
   0.9901674182473893E+00
   0.9931191906138926E+00
   0.9773187643703735E+00
   0.1025996992447719E+01
   0.1000466785343169E+01
   0.9968772528586749E+00
   0.9939039854973318E+00
   0.9946906904304040E+00
   0.9941833926520266E+00
   0.9943239922872037E+00
   0.9947809383138818E+00
   0.9954436408227524E+00
   0.1000034714407816E+01
   0.1002014501574934E+01
   0.1009792768631378E+01
   0.1002103573387681E+01
   0.9979522396063839E+00
   0.9968540227646074E+00
   0.9971879626359575E+00
   0.9969160333482321E+00
   0.9969817393530995E+00
   0.9976365208088319E+00
   0.9977410713061161E+00
   0.1000269426558934E+01
   0.1001439256418711E+01
   0.1004059310616152E+01
   0.1002141398257385E+01
   0.9998883418054719E+00
   0.9983443751380583E+00
   0.9978966033694227E+00
   0.9976571772107976E+00
   0.9977149334174996E+00
   0.9983049947386193E+00
   0.9988672753112899E+00
   0.1000437491788630E+01
   0.1001703040107361E+01
   0.1001511574666841E+01
   0.1001063016071495E+01
   0.9997776703971964E+00
   0.9989806707528062E+00
   0.9985719874058042E+00
   0.9983772235408579E+00
   0.9983695794206296E+00
   0.9987473480631488E+00
   0.9991117006172326E+00
   0.9999678342172341E+00
   0.1000800144280811E+01
   0.1000680713626502E+01
   0.1000629694991311E+01
   0.9999171648164149E+00
   0.9993395490499197E+00
   0.9989547887680422E+00
   0.9987887270321465E+00
   0.9987807489006021E+00
   0.9990478229426296E+00
   0.9993787267642776E+00
   0.9998959509932679E+00
   0.1000432691935791E+01
   0.1000259169096296E+01
   0.1000267307210333E+01
   0.9998754788090305E+00
   0.9995315941594914E+00
   0.9992383021902559E+00
   0.9990874251644978E+00
   0.9990493819574102E+00
   0.9992014937108915E+00
   0.9994374235434189E+00
   0.9997867761783129E+00
   0.1000183133517413E+01
   0.1000106273170961E+01
   0.1000129644472515E+01
   0.9999028931576279E+00
   0.9996578215504788E+00
   0.9994176455359273E+00
   0.9992708439382423E+00
   0.9992136673014997E+00
   0.9992966239822014E+00
   0.9994731249194245E+00
   0.9997375288208780E+00
   0.1000056830174579E+01
   0.1000043191673257E+01
   0.1000092658562496E+01
   0.9999603712270053E+00
   0.9997608470557448E+00
   0.9995339617488832E+00
   0.9993612328162226E+00
   0.9992629951223994E+00
   0.9992849001867616E+00
   0.9994148158708049E+00
   0.9996516787655970E+00
   0.9999691434302527E+00
   0.1820504404928938E+01
   0.8023522575056121E+00
   0.8630929609100623E+00
   0.1000923729445998E+01
   0.1006679693591022E+01
   0.9914035824407927E+00
   0.9930892319115838E+00
   0.9994547961042016E+00
   0.9929438739232792E+00
   0.9054728130278222E+00
   0.5956092405802947E+00
   0.1114143050036156E+01
   0.9413591649843165E+00
   0.9976098464594241E+00
   0.1001341680699159E+01
   0.1004156431473156E+01
   0.1001324727007040E+01
   0.1001298444558022E+01
   0.9985622792982999E+00
   0.9960156690104273E+00
   0.9879579479819156E+00
   0.9980770422220065E+00
   0.1051853144372536E+01
   0.9795456486347546E+00
   0.9768038045393360E+00
   0.9872248073543121E+00
   0.9931643489952482E+00
   0.9919510351894764E+00
   0.9921207324658126E+00
   0.9930094839729319E+00
   0.9901706598484542E+00
   0.9931224458451683E+00
   0.9773238338728655E+00
   0.1025992701349064E+01
   0.1000470256317013E+01
   0.9968832741292516E+00
   0.9939028036772934E+00
   0.9946913798569437E+00
   0.9941823175668973E+00
   0.9943243145602693E+00
   0.9947819984142237E+00
   0.9954461500318034E+00
   0.1000036488404315E+01
   0.1002015380405928E+01
   0.1009792897459530E+01
   0.1002107210096857E+01
   0.9979552408428912E+00
   0.9968523986169512E+00
   0.9971869352071384E+00
   0.9969145024851882E+00
   0.9969813758449864E+00
   0.9976369508226837E+00
   0.9977426156476554E+00
   0.1000271011045761E+01
   0.1001440503268255E+01
   0.1004060315018269E+01
   0.1002144826222558E+01
   0.9998916663086274E+00
   0.9983443635575684E+00
   0.9978958602332122E+00
   0.9976555476780370E+00
   0.9977137752452553E+00
   0.9983044167243746E+00
   0.9988676290091559E+00
   0.1000438294862705E+01
   0.1001703886253072E+01
   0.1001512770183342E+01
   0.1001065695612954E+01
   0.9997806072290669E+00
   0.9989819277000820E+00
   0.9985724677123774E+00
   0.9983768858831429E+00
   0.9983691759940501E+00
   0.9987470723732995E+00
   0.9991118126653898E+00
   0.9999682274906296E+00
   0.1000800641682820E+01
   0.1000681728511387E+01
   0.1000631658149160E+01
   0.9999195174654937E+00
   0.9993411059645105E+00
   0.9989557549010349E+00
   0.9987890579067680E+00
   0.9987808544791532E+00
   0.9990478857665432E+00
   0.9993789356398645E+00
   0.9998962865179680E+00
   0.1000433046996684E+01
   0.1000259942086549E+01
   0.1000268711958190E+01
   0.9998773347988466E+00
   0.9995332480768392E+00
   0.9992396483007651E+00
   0.9990883330088519E+00
   0.9990499941486418E+00
   0.9992019073811919E+00
   0.9994377637190741E+00
   0.9997870722745317E+00
   0.1000183363185434E+01
   0.1000106788667665E+01
   0.1000130609044564E+01
   0.9999042990648576E+00
   0.9996593344005155E+00
   0.9994190984655147E+00
   0.9992720678163115E+00
   0.9992146497987536E+00
   0.9992973732879025E+00
   0.9994736835836747E+00
   0.9997378929672331E+00
   0.1000056991896306E+01
   0.1000043461161529E+01
   0.1000093353321478E+01
   0.9999615295404330E+00
   0.9997622637554442E+00
   0.9995354458433553E+00
   0.9993625959479598E+00
   0.9992641562552684E+00
   0.9992858301647907E+00
   0.9994155240088002E+00
   0.9996521258840240E+00
   0.9999693042940486E+00
   0.1820504961827655E+01
   0.8023536828973210E+00
   0.8631036627031754E+00
   0.1000926866265925E+01
   0.1006679599450436E+01
   0.9914020551915035E+00
   0.9930874183801663E+00
   0.9994525135106208E+00
   0.9929420811001436E+00
   0.9054727916435381E+00
   0.5956117350511906E+00
   0.1114135010140160E+01
   0.9413477521971855E+00
   0.9976246608965513E+00
   0.1001344174003354E+01
   0.1004158520854657E+01
   0.1001322591023857E+01
   0.1001294744629032E+01
   0.9985550836921356E+00
   0.9960064852497791E+00
   0.9879462721038412E+00
   0.9980699521957277E+00
   0.1051846588875032E+01
   0.9795426276363990E+00
   0.9768113457499525E+00
   0.9872267636609126E+00
   0.9931654451428283E+00
   0.9919499034182566E+00
   0.9921191414204915E+00
   0.9930067108238384E+00
   0.9901677666795655E+00
   0.9931194751266911E+00
   0.9773223187035803E+00
   0.1025987646339917E+01
   0.1000464959310738E+01
   0.9968884338752663E+00
   0.9939059725468462E+00
   0.9946942177773117E+00
   0.9941827278263452E+00
   0.9943234181208997E+00
   0.9947790330795175E+00
   0.9954419364375369E+00
   0.1000031456303101E+01
   0.1002012369324273E+01
   0.1009789879305302E+01
   0.1002103323685158E+01
   0.9979568380145857E+00
   0.9968539853099210E+00
   0.9971888184079281E+00
   0.9969152259224496E+00
   0.9969813643936514E+00
   0.9976358236891031E+00
   0.9977409026050164E+00
   0.1000268853904386E+01
   0.1001438955981643E+01
   0.1004058446621030E+01
   0.1002141774457099E+01
   0.9998918694267325E+00
   0.9983452519176497E+00
   0.9978972605312528E+00
   0.9976563023455791E+00
   0.9977139148098702E+00
   0.9983035942273302E+00
   0.9988661625549669E+00
   0.1000436470789231E+01
   0.1001702674625746E+01
   0.1001511518403501E+01
   0.1001063416337024E+01
   0.9997797939455827E+00
   0.9989819045719112E+00
   0.9985731323359422E+00
   0.9983774949223484E+00
   0.9983695528759442E+00
   0.9987469297844045E+00
   0.9991112580828667E+00
   0.9999673481432771E+00
   0.1000799859532081E+01
   0.1000680867051918E+01
   0.1000630069863706E+01
   0.9999184784274676E+00
   0.9993405682035813E+00
   0.9989557706415317E+00
   0.9987892522494566E+00
   0.9987810572433959E+00
   0.9990478604872366E+00
   0.9993786871259407E+00
   0.9998958446191949E+00
   0.1000432632034091E+01
   0.1000259320772298E+01
   0.1000267582088739E+01
   0.9998762891454763E+00
   0.9995324371004006E+00
   0.9992392052444259E+00
   0.9990881328006872E+00
   0.9990499483509209E+00
   0.9992018635401659E+00
   0.9994376675641283E+00
   0.9997868848481509E+00
   0.1000183145676273E+01
   0.1000106378391554E+01
   0.1000129829732690E+01
   0.9999033842981977E+00
   0.9996584413519428E+00
   0.9994183917306289E+00
   0.9992715689406617E+00
   0.9992143493456370E+00
   0.9992971977678607E+00
   0.9994735865839347E+00
   0.9997378150004513E+00
   0.1000056917315319E+01
   0.1000043246574146E+01
   0.1000092779745785E+01
   0.9999607153038067E+00
   0.9997613586277625E+00
   0.9995346241274339E+00
   0.9993619460316818E+00
   0.9992637080640179E+00
   0.9992855479507718E+00
   0.9994153744496718E+00
   0.9996520690252756E+00
   0.9999693052807607E+00
   0.1820504402324596E+01
   0.8023522554540578E+00
   0.8630929605137171E+00
   0.1000923730135165E+01
   0.1006679694007964E+01
   0.9914035826992942E+00
   0.9930892322843996E+00
   0.9994547965564783E+00
   0.9929438743464739E+00
   0.9054728131107862E+00
   0.5956092405115612E+00
   0.1114143050428777E+01
   0.9413591649192465E+00
   0.9976098463041362E+00
   0.1001341680464592E+01
   0.1004156431302560E+01
   0.1001324726817584E+01
   0.1001298444462821E+01
   0.9985622792639522E+00
   0.9960156689866917E+00
   0.9879579481512284E+00
   0.9980770424940915E+00
   0.1051853145083030E+01
   0.9795456488030410E+00
   0.9768038043793048E+00
   0.9872248069793561E+00
   0.9931643488434390E+00
   0.9919510350713516E+00
   0.9921207324308201E+00
   0.9930094839547666E+00
   0.9901706599217671E+00
   0.9931224459604712E+00
   0.9773238340703477E+00
   0.1025992701654912E+01
   0.1000470256823027E+01
   0.9968832743769737E+00
   0.9939028036622942E+00
   0.9946913797910306E+00
   0.9941823174584415E+00
   0.9943243144676113E+00
   0.9947819983200994E+00