# vtk DataFile Version 2.0
FUN3D:global_image_vtk
ASCII
DATASET UNSTRUCTURED_GRID
POINTS 1331 double
    0.0000000000000000E+00    0.2500000000000000E+01    0.0000000000000000E+00
    0.5000000000000000E+00    0.2500000000000000E+01    0.0000000000000000E+00
    0.1000000000000000E+01    0.2500000000000000E+01    0.0000000000000000E+00
    0.1500000000000000E+01    0.2500000000000000E+01    0.0000000000000000E+00
    0.2000000000000000E+01    0.2500000000000000E+01    0.0000000000000000E+00
    0.2500000000000000E+01    0.2500000000000000E+01    0.0000000000000000E+00
    0.3000000000000000E+01    0.2500000000000000E+01    0.0000000000000000E+00
    0.3500000000000000E+01    0.2500000000000000E+01    0.0000000000000000E+00
    0.4000000000000000E+01    0.2500000000000000E+01    0.0000000000000000E+00
    0.4500000000000000E+01    0.2500000000000000E+01    0.0000000000000000E+00
    0.5000000000000000E+01    0.2500000000000000E+01    0.0000000000000000E+00
    0.0000000000000000E+00    0.2500000000000000E+01    0.4999999999999982E+00
    0.4999999999999998E+00    0.2500000000000000E+01    0.4999999999999984E+00
    0.9999999999999998E+00    0.2500000000000000E+01    0.4999999999999987E+00
    0.1500000000000000E+01    0.2500000000000000E+01    0.4999999999999989E+00
    0.2000000000000000E+01    0.2500000000000000E+01    0.4999999999999991E+00
    0.2500000000000000E+01    0.2500000000000000E+01    0.4999999999999993E+00
    0.3000000000000000E+01    0.2500000000000000E+01    0.4999999999999996E+00
    0.3500000000000000E+01    0.2500000000000000E+01    0.4999999999999998E+00
    0.4000000000000000E+01    0.2500000000000000E+01    0.5000000000000000E+00
    0.4500000000000002E+01    0.2500000000000000E+01    0.5000000000000002E+00
    0.5000000000000000E+01    0.2500000000000000E+01    0.5000000000000004E+00
    0.0000000000000000E+00    0.2500000000000000E+01    0.1000000000000001E+01
    0.4999999999999997E+00    0.2500000000000000E+01    0.1000000000000001E+01
    0.1000000000000000E+01    0.2500000000000000E+01    0.1000000000000001E+01
    0.1500000000000000E+01    0.2500000000000000E+01    0.1000000000000001E+01
    0.2000000000000000E+01    0.2500000000000000E+01    0.1000000000000001E+01
    0.2500000000000000E+01    0.2500000000000000E+01    0.1000000000000001E+01
    0.3000000000000000E+01    0.2500000000000000E+01    0.1000000000000001E+01
    0.3500000000000000E+01    0.2500000000000000E+01    0.1000000000000001E+01
    0.4000000000000000E+01    0.2500000000000000E+01    0.1000000000000001E+01
    0.4499999999999999E+01    0.2500000000000000E+01    0.1000000000000001E+01
    0.5000000000000000E+01    0.2500000000000000E+01    0.1000000000000001E+01
    0.0000000000000000E+00    0.2500000000000000E+01    0.1499999999999999E+01
    0.4999999999999994E+00    0.2500000000000000E+01    0.1499999999999999E+01
    0.1000000000000000E+01    0.2500000000000000E+01    0.1499999999999999E+01
    0.1500000000000000E+01    0.2500000000000000E+01    0.1499999999999999E+01
    0.2000000000000001E+01    0.2500000000000000E+01    0.1499999999999999E+01
    0.2500000000000000E+01    0.2500000000000000E+01    0.1499999999999999E+01
    0.2999999999999999E+01    0.2500000000000000E+01    0.1499999999999999E+01
    0.3500000000000000E+01    0.2500000000000000E+01    0.1499999999999999E+01
    0.4000000000000001E+01    0.2500000000000000E+01    0.1499999999999999E+01
    0.4500000000000001E+01    0.2500000000000000E+01    0.1499999999999999E+01
    0.5000000000000000E+01    0.2500000000000000E+01    0.1499999999999999E+01
    0.0000000000000000E+00    0.2500000000000000E+01    0.2000000000000002E+01
    0.4999999999999992E+00    0.2500000000000000E+01    0.2000000000000001E+01
    0.1000000000000000E+01    0.2500000000000000E+01    0.2000000000000001E+01
    0.1500000000000000E+01    0.2500000000000000E+01    0.2000000000000001E+01
    0.2000000000000001E+01    0.2500000000000000E+01    0.2000000000000001E+01
    0.2500000000000000E+01    0.2500000000000000E+01    0.2000000000000001E+01
    0.2999999999999999E+01    0.2500000000000000E+01    0.2000000000000000E+01
    0.3500000000000000E+01    0.2500000000000000E+01    0.2000000000000000E+01
    0.4000000000000000E+01    0.2500000000000000E+01    0.2000000000000000E+01
    0.4500000000000000E+01    0.2500000000000000E+01    0.2000000000000000E+01
    0.5000000000000000E+01    0.2500000000000000E+01    0.2000000000000000E+01
    0.0000000000000000E+00    0.2500000000000000E+01    0.2500000000000000E+01
    0.4999999999999991E+00    0.2500000000000000E+01    0.2500000000000000E+01
    0.1000000000000000E+01    0.2500000000000000E+01    0.2500000000000000E+01
    0.1500000000000000E+01    0.2500000000000000E+01    0.2500000000000000E+01
    0.2000000000000001E+01    0.2500000000000000E+01    0.2500000000000000E+01
    0.2500000000000000E+01    0.2500000000000000E+01    0.2500000000000000E+01
    0.2999999999999999E+01    0.2500000000000000E+01    0.2500000000000000E+01
    0.3500000000000001E+01    0.2500000000000000E+01    0.2500000000000000E+01
    0.4000000000000000E+01    0.2500000000000000E+01    0.2500000000000000E+01
    0.4500000000000001E+01    0.2500000000000000E+01    0.2500000000000000E+01
    0.5000000000000000E+01    0.2500000000000000E+01    0.2500000000000000E+01
    0.0000000000000000E+00    0.2500000000000000E+01    0.2999999999999998E+01
    0.4999999999999989E+00    0.2500000000000000E+01    0.2999999999999998E+01
    0.1000000000000000E+01    0.2500000000000000E+01    0.2999999999999999E+01
    0.1499999999999999E+01    0.2500000000000000E+01    0.2999999999999999E+01
    0.2000000000000001E+01    0.2500000000000000E+01    0.2999999999999999E+01
    0.2500000000000000E+01    0.2500000000000000E+01    0.2999999999999999E+01
    0.2999999999999999E+01    0.2500000000000000E+01    0.2999999999999999E+01
    0.3500000000000001E+01    0.2500000000000000E+01    0.3000000000000000E+01
    0.4000000000000000E+01    0.2500000000000000E+01    0.3000000000000000E+01
    0.4500000000000001E+01    0.2500000000000000E+01    0.3000000000000000E+01
    0.5000000000000000E+01    0.2500000000000000E+01    0.3000000000000000E+01
    0.0000000000000000E+00    0.2500000000000000E+01    0.3500000000000001E+01
    0.4999999999999988E+00    0.2500000000000000E+01    0.3500000000000001E+01
    0.1000000000000001E+01    0.2500000000000000E+01    0.3500000000000001E+01
    0.1499999999999999E+01    0.2500000000000000E+01    0.3500000000000001E+01
    0.2000000000000001E+01    0.2500000000000000E+01    0.3500000000000001E+01
    0.2500000000000000E+01    0.2500000000000000E+01    0.3500000000000001E+01
    0.2999999999999999E+01    0.2500000000000000E+01    0.3500000000000001E+01
    0.3500000000000001E+01    0.2500000000000000E+01    0.3500000000000001E+01
    0.4000000000000001E+01    0.2500000000000000E+01    0.3500000000000001E+01
    0.4500000000000001E+01    0.2500000000000000E+01    0.3500000000000001E+01
    0.5000000000000000E+01    0.2500000000000000E+01    0.3500000000000001E+01
    0.0000000000000000E+00    0.2500000000000000E+01    0.3999999999999999E+01
    0.4999999999999986E+00    0.2500000000000000E+01    0.4000000000000000E+01
    0.1000000000000001E+01    0.2500000000000000E+01    0.3999999999999999E+01
    0.1499999999999999E+01    0.2500000000000000E+01    0.3999999999999999E+01
    0.2000000000000001E+01    0.2500000000000000E+01    0.3999999999999999E+01
    0.2500000000000000E+01    0.2500000000000000E+01    0.3999999999999999E+01
    0.2999999999999998E+01    0.2500000000000000E+01    0.3999999999999999E+01
    0.3500000000000001E+01    0.2500000000000000E+01    0.3999999999999999E+01
    0.3999999999999999E+01    0.2500000000000000E+01    0.3999999999999999E+01
    0.4500000000000003E+01    0.2500000000000000E+01    0.3999999999999999E+01
    0.5000000000000000E+01    0.2500000000000000E+01    0.3999999999999999E+01
    0.0000000000000000E+00    0.2500000000000000E+01    0.4500000000000002E+01
    0.4999999999999984E+00    0.2500000000000000E+01    0.4500000000000002E+01
    0.1000000000000001E+01    0.2500000000000000E+01    0.4500000000000001E+01
    0.1499999999999999E+01    0.2500000000000000E+01    0.4500000000000003E+01
    0.2000000000000002E+01    0.2500000000000000E+01    0.4500000000000001E+01
    0.2500000000000000E+01    0.2500000000000000E+01    0.4500000000000001E+01
    0.2999999999999998E+01    0.2500000000000000E+01    0.4500000000000001E+01
    0.3500000000000001E+01    0.2500000000000000E+01    0.4499999999999999E+01
    0.3999999999999999E+01    0.2500000000000000E+01    0.4499999999999999E+01
    0.4500000000000002E+01    0.2500000000000000E+01    0.4500000000000000E+01
    0.5000000000000000E+01    0.2500000000000000E+01    0.4500000000000000E+01
    0.0000000000000000E+00    0.2500000000000000E+01    0.5000000000000000E+01
    0.4999999999999982E+00    0.2500000000000000E+01    0.5000000000000000E+01
    0.1000000000000001E+01    0.2500000000000000E+01    0.5000000000000000E+01
    0.1499999999999999E+01    0.2500000000000000E+01    0.5000000000000000E+01
    0.2000000000000002E+01    0.2500000000000000E+01    0.5000000000000000E+01
    0.2500000000000000E+01    0.2500000000000000E+01    0.5000000000000000E+01
    0.2999999999999998E+01    0.2500000000000000E+01    0.5000000000000000E+01
    0.3500000000000001E+01    0.2500000000000000E+01    0.5000000000000000E+01
    0.3999999999999999E+01    0.2500000000000000E+01    0.5000000000000000E+01
    0.4500000000000002E+01    0.2500000000000000E+01    0.5000000000000000E+01
    0.5000000000000000E+01    0.2500000000000000E+01    0.5000000000000000E+01
    0.0000000000000000E+00    0.2000000000000000E+01    0.0000000000000000E+00
    0.5000000000000000E+00    0.2000000000000000E+01    0.0000000000000000E+00
    0.1000000000000000E+01    0.2000000000000000E+01    0.0000000000000000E+00
    0.1500000000000000E+01    0.2000000000000000E+01    0.0000000000000000E+00
[...]
POINT_DATA 1331
SCALARS rho double 1
LOOKUP_TABLE default
   0.1833477081329158E+01
   0.7867883688778634E+00
   0.8535911176372906E+00
   0.1015422526510564E+01
   0.1027237128682268E+01
   0.1003238322588867E+01
   0.9985409629463199E+00
   0.1004151197054156E+01
   0.9963510834292486E+00
   0.9035377770532682E+00
   0.5778557791664711E+00
   0.1117595083568997E+01
   0.9358527718298498E+00
   0.9960595445808524E+00
   0.1000206917566774E+01
   0.1000747406671780E+01
   0.9983751201079996E+00
   0.9993580288102134E+00
   0.9994840230607031E+00
   0.9992610875470144E+00
   0.9949580236052844E+00
   0.1009538064731926E+01
   0.1054509459539002E+01
   0.9798831331590816E+00
   0.9748186294842645E+00
   0.9882635531677295E+00
   0.9974025434299452E+00
   0.9964547395281657E+00
   0.9958879143940833E+00
   0.9958416170792481E+00
   0.9921995720536426E+00
   0.9926626562805196E+00
   0.9722398740938019E+00
   0.1024177590354490E+01
   0.9967929717296783E+00
   0.9950932777200088E+00
   0.9936553642890738E+00
   0.9935002640291296E+00
   0.9925762636803863E+00
   0.9926691690959621E+00
   0.9934596826336000E+00
   0.9940246134002376E+00
   0.9978234821548688E+00
   0.9993777040951519E+00
   0.1010374354138788E+01
   0.1003636012931426E+01
   0.9990356335588964E+00
   0.9973407989028608E+00
   0.9980363374350236E+00
   0.9980747779172120E+00
   0.9980473356668282E+00
   0.9983720409773158E+00
   0.9981388008590575E+00
   0.1000290142554026E+01
   0.1001186237555597E+01
   0.1003527616799204E+01
   0.1001154387650157E+01
   0.9991231579028199E+00
   0.9984387156296024E+00
   0.9985398261731879E+00
   0.9985912994734688E+00
   0.9988180113912160E+00
   0.9995738167109995E+00
   0.1000053734141154E+01
   0.1001685580341470E+01
   0.1002737013323182E+01
   0.1001571392923612E+01
   0.1001206117681888E+01
   0.1000017543287159E+01
   0.9991888447272114E+00
   0.9988067935726004E+00
   0.9987064754321816E+00
   0.9988383292845923E+00
   0.9994369393191164E+00
   0.9998941945891681E+00
   0.1000815932706756E+01
   0.1001276178474340E+01
   0.1000568532463683E+01
   0.1000530207829917E+01
   0.9998606048809735E+00
   0.9993152774493017E+00
   0.9989438561322848E+00
   0.9987727067403350E+00
   0.9987357243754209E+00
   0.9990551561016361E+00
   0.9993485927212643E+00
   0.9998142351782947E+00
   0.1000071315605139E+01
   0.1000267167205797E+01
   0.1000324914380654E+01
   0.1000017327617536E+01
   0.9997214585379752E+00
   0.9994367844945715E+00
   0.9992513270111841E+00
   0.9991112748599440E+00
   0.9992088821617168E+00
   0.9993227576029563E+00
   0.9994367291713377E+00
   0.9996646366896322E+00
   0.1000123513643186E+01
   0.1000136647582736E+01
   0.9999679317368928E+00
   0.9997753426497319E+00
   0.9995539537134850E+00
   0.9994268424412490E+00
   0.9993555692811618E+00
   0.9994499214994168E+00
   0.9995416945447548E+00
   0.9996531783767374E+00
   0.9998898553254931E+00
   0.1000091523200318E+01
   0.1000103750716687E+01
   0.9999964900044527E+00
   0.9998909811267955E+00
   0.9998016967798122E+00
   0.9997808246827125E+00
   0.9997121652680546E+00
   0.9996718391319126E+00
   0.9996989468689083E+00
   0.9995505221754152E+00
   0.9997350241010720E+00
   0.1831105014618316E+01
   0.7863379264287674E+00
   0.8537637468067028E+00
   0.1015359149213644E+01
   0.1027191058412079E+01
   0.1003248790710704E+01
   0.9985807523901031E+00
   0.1004182225117181E+01
   0.9964024723454636E+00
   0.9035619615650035E+00
   0.5777993057706774E+00
   0.1114736346054546E+01
   0.9350404430043135E+00
   0.9970680644826804E+00
   0.1000283252732928E+01
   0.1000859871633795E+01
   0.9984446205051724E+00
   0.9994204719966088E+00
   0.9994408334455025E+00
   0.9990234775715924E+00
   0.9947701221831974E+00
   0.1009984808541498E+01
   0.1054242101725335E+01
   0.9797930073556459E+00
   0.9750765290538176E+00
   0.9882812313253996E+00
   0.9974642238784667E+00
   0.9965249669076007E+00
   0.9959625776921912E+00
   0.9958987691504128E+00
   0.9922282572521157E+00
   0.9927103381002822E+00
   0.9723691804799606E+00
   0.1023956231315383E+01
   0.9966422152694739E+00
   0.9951590127633619E+00
   0.9936658000265800E+00
   0.9935206985118735E+00
   0.9926102123317634E+00
   0.9927146316509551E+00
   0.9935034106160748E+00
   0.9940370132630131E+00
   0.9978255873370172E+00
   0.9994349642742920E+00
   0.1010297313437779E+01
   0.1003525199643810E+01
   0.9990114313580157E+00
   0.9973419114861022E+00
   0.9980640541720723E+00
   0.9981227988073447E+00
   0.9981033598528899E+00
   0.9984276498579781E+00
   0.9981745839574986E+00
   0.1000303526992897E+01
   0.1001211401227653E+01
   0.1003488017103577E+01
   0.1001082981897512E+01
   0.9990798747350358E+00
   0.9984227883333620E+00
   0.9985520705860356E+00
   0.9986275802540485E+00
   0.9988649031025369E+00
   0.9996234683998019E+00
   0.1000090898179321E+01
   0.1001702831458071E+01
   0.1002756647652901E+01
   0.1001543678026915E+01
   0.1001157861814778E+01
   0.9999748102809177E+00
   0.9991643348037575E+00
   0.9988079032343374E+00
   0.9987319266097761E+00
   0.9988765765052372E+00
   0.9994787613488506E+00
   0.9999268806011062E+00
   0.1000825057980436E+01
   0.1001277727947220E+01
   0.1000544222311902E+01
   0.1000495390925140E+01
   0.9998272051466174E+00
   0.9992917449800097E+00
   0.9989380115478859E+00
   0.9987838634290067E+00
   0.9987571913005729E+00
   0.9990807967903923E+00
   0.9993688813024920E+00
   0.9998176845682895E+00
   0.1000071615404827E+01
   0.1000244538689070E+01
   0.1000295077360535E+01
   0.9999866638128058E+00
   0.9996914476434045E+00
   0.9994210396199293E+00
   0.9992460085406570E+00
   0.9991188235416195E+00
   0.9992227045707684E+00
   0.9993359003224673E+00
   0.9994327972915543E+00
   0.9996481257821466E+00
   0.1000103703481466E+01
   0.1000112522388336E+01
   0.9999408497958091E+00
   0.9997304112408965E+00
   0.9995246139040393E+00
   0.9993899170596620E+00
   0.9993417747907588E+00
   0.9994472721645585E+00
   0.9995419397999401E+00
   0.9996494006038228E+00
   0.9998778582853780E+00
   0.1000074639115945E+01
   0.1000081459193338E+01
   0.9999720451713140E+00
   0.9998749357663872E+00
   0.9997944607630946E+00
   0.9997851620707896E+00
   0.9997254466407199E+00
   0.9996835599407337E+00
   0.9997055460441637E+00
   0.9995375157409859E+00
   0.9996862918960883E+00
   0.1830548047319909E+01
   0.7864638364156269E+00
   0.8539561410496902E+00
   0.1015361170573205E+01
   0.1027187135367087E+01
   0.1003234867214837E+01
   0.9985444682815274E+00
   0.1004129073124255E+01
   0.9963748248174391E+00
   0.9035658569709493E+00
   0.5777871752043614E+00
   0.1114663927973732E+01
   0.9354342775743564E+00
   0.9971822050704352E+00
   0.1000235622743456E+01
   0.1000880496820825E+01
   0.9984452034573601E+00
   0.9994215373086155E+00
   0.9994408379644470E+00
   0.9990686120863391E+00
   0.9948591663521724E+00
   0.1010063243929224E+01
   0.1054290150702422E+01
   0.9799415614759491E+00
   0.9751174919836320E+00
   0.9882563360245099E+00
   0.9974508465833882E+00
   0.9964883057713237E+00
   0.9959284412600032E+00
   0.9958723807628915E+00
   0.9922342781977184E+00
   0.9927507026952340E+00
   0.9724164785941075E+00
   0.1023986893576868E+01
   0.9967421872671645E+00
   0.9952157924968836E+00
   0.9936661870058938E+00
   0.9935108602045815E+00
   0.9925750738990210E+00
   0.9926703998359634E+00
   0.9934563471701938E+00
   0.9940106046518206E+00
   0.9978283219056574E+00
   0.9994443085066342E+00
   0.1010329579075076E+01
   0.1003590832425243E+01
   0.9990589614168768E+00
   0.9973533405658798E+00
   0.9980545564108290E+00
   0.9980847877604728E+00
   0.9980540634199321E+00
   0.9983762746680687E+00
   0.9981407976430661E+00
   0.1000295215860300E+01
   0.1001206158724970E+01
   0.1003513407063050E+01
   0.1001128343789236E+01
   0.9991177582673009E+00
   0.9984345514033579E+00
   0.9985426707189486E+00
   0.9985946189761192E+00
   0.9988216749950065E+00
   0.9995769136897388E+00
   0.1000055439933694E+01
   0.1001686146777038E+01
   0.1002739545648980E+01
   0.1001568978039134E+01
   0.1001198004659223E+01
   0.1000011866956356E+01
   0.9991829069242694E+00
   0.9988044947219719E+00
   0.9987059122779803E+00
   0.9988390666656513E+00
   0.9994381941416786E+00
   0.9998954661525720E+00
   0.1000816221319452E+01
   0.1001275275680245E+01
   0.1000567507247617E+01
   0.1000527661921823E+01
   0.9998577565192243E+00
   0.9993114625841606E+00
   0.9989410375633442E+00
   0.9987708269939565E+00
   0.9987348297787833E+00
   0.9990548852642394E+00
   0.9993486360361510E+00
   0.9998138951684981E+00
   0.1000069961800845E+01
   0.1000266615789196E+01
   0.1000324214306188E+01
   0.1000016319352589E+01
   0.9997196559307895E+00
   0.9994349264739828E+00
   0.9992497420830769E+00
   0.9991101411705120E+00
   0.9992081260058724E+00
   0.9993222141585436E+00
   0.9994360959223515E+00
   0.9996635801936020E+00
   0.1000123252470733E+01
   0.1000136428037505E+01
   0.9999676308298379E+00
   0.9997745316524254E+00
   0.9995527786157641E+00
   0.9994256200130642E+00
   0.9993545139854969E+00
   0.9994491321615032E+00
   0.9995410856086877E+00
   0.9996527295223793E+00
   0.9998893424362896E+00
   0.1000091320001239E+01
   0.1000103452321294E+01
   0.9999962998347426E+00
   0.9998906582988155E+00
   0.9998011151105082E+00
   0.9997800950189737E+00
   0.9997114219659704E+00
   0.9996711190692317E+00
   0.9996982942758305E+00
   0.9995498196091511E+00
   0.9997345275690968E+00
   0.1830624920906236E+01
   0.7865726158467627E+00
   0.8540474156374380E+00
   0.1015325831921376E+01
   0.1027146969029686E+01
   0.1003236676288545E+01
   0.9985813051911189E+00
   0.1004184766030694E+01
   0.9964401820926033E+00
   0.9036228878197682E+00
   0.5778144283650467E+00
   0.1114409597285177E+01
   0.9353088143985813E+00
   0.9972800645931093E+00
   0.1000225041652405E+01
   0.1000868620180505E+01
   0.9984386127911434E+00
   0.9994275358901412E+00
   0.9994461214315481E+00
   0.9990535060322154E+00
   0.9948501936676745E+00
   0.1010093156137984E+01
   0.1054214655168682E+01
   0.9799142346118982E+00
   0.9751507431350447E+00
   0.9882544453587584E+00
   0.9974623126633750E+00
   0.9965140083449733E+00
   0.9959642354091174E+00
   0.9959081793240614E+00
   0.9922557060209406E+00
   0.9927612280881186E+00
   0.9724353208012351E+00
   0.1023918313389850E+01
   0.9966865685169440E+00
   0.9952172751891512E+00
   0.9936675730688918E+00
   0.9935285551338389E+00
   0.9926089126197668E+00
   0.9927153953067763E+00
   0.9935043330593042E+00
   0.9940444574879191E+00
   0.9978477673587707E+00
   0.9994700290577260E+00
   0.1010287606162914E+01
   0.1003541083591399E+01
   0.9990368926564100E+00
   0.9973468794911031E+00
   0.9980717413835923E+00
   0.9981251804631919E+00
   0.9981063640342479E+00
   0.9984310262836638E+00
   0.9981805978345593E+00
   0.1000313449327883E+01
   0.1001219838856957E+01
   0.1003483734659170E+01
   0.1001088410154309E+01
   0.9990930493173221E+00
   0.9984259618601382E+00
   0.9985545082599616E+00
   0.9986272911411243E+00
   0.9988652758288673E+00
   0.9996242934422053E+00
   0.1000092461271521E+01
   0.1001705046694175E+01
   0.1002755463536431E+01
   0.1001542683606589E+01
   0.1001161061961984E+01
   0.9999824580356222E+00
   0.9991678475578740E+00
   0.9988098344991101E+00
   0.9987315360125396E+00
   0.9988758267849280E+00
   0.9994780692527118E+00
   0.9999264341872508E+00
   0.1000824588033251E+01
   0.1001274865336585E+01
   0.1000543908092721E+01
   0.1000496604737984E+01
   0.9998313062139279E+00
   0.9992947789542207E+00
   0.9989400000459723E+00
   0.9987841505793695E+00
   0.9987566781973494E+00
   0.9990799063810394E+00
   0.9993677779761394E+00
   0.9998164140881973E+00
   0.1000069388262369E+01
   0.1000244578691154E+01
   0.1000295528470520E+01
   0.9999887909303361E+00
   0.9996937112435957E+00
   0.9994229134664983E+00
   0.9992469141452831E+00
   0.9991189229817683E+00
   0.9992222586984462E+00
   0.9993349696207467E+00
   0.9994316134166980E+00
   0.9996468100053857E+00
   0.1000103852875211E+01
   0.1000112705587367E+01
   0.9999419601238912E+00
   0.9997318937038399E+00
   0.9995259548557106E+00
   0.9993906793073682E+00
   0.9993419555910413E+00
   0.9994470698991290E+00
   0.9995413827144350E+00
   0.9996488372570053E+00
   0.9998775084000513E+00
   0.1000074815677666E+01
   0.1000081284962683E+01
   0.9999723166089358E+00
   0.9998758715459397E+00
   0.9997958502152287E+00
   0.9997866622163798E+00
   0.9997266754942826E+00
   0.9996843548495526E+00
   0.9997057982305867E+00
   0.9995371814385933E+00
   0.9996863213140559E+00
   0.1830693099476207E+01
   0.7866667790799394E+00
   0.8541624835461861E+00
   0.1015379278523084E+01
   0.1027162667975779E+01
   0.1003219936290772E+01
   0.9985412733925264E+00
   0.1004130420496105E+01
   0.9963878777994652E+00
   0.9036005402635747E+00
   0.5778251974236603E+00
   0.1114417249891083E+01
   0.9353220806162861E+00
   0.9973343928288386E+00
   0.1000241892388477E+01
   0.1000884337619891E+01
   0.9984353973250220E+00
   0.9994152498465184E+00
   0.9994271019333886E+00
   0.9990371953388617E+00
   0.9948487925796444E+00
   0.1010111102458110E+01
   0.1054236882593075E+01
   0.9799501119125590E+00
   0.9751938343441505E+00
   0.9882665454467177E+00
   0.9974594964992151E+00
   0.9964873149429117E+00
   0.9959302421745109E+00
   0.9958737561882031E+00
   0.9922383023245793E+00
   0.9927682840565837E+00
   0.9724481689106315E+00
   0.1023936446476996E+01
   0.9967127136814531E+00
   0.9952499727714089E+00
   0.9936746940210669E+00
   0.9935183996773924E+00
   0.9925744280996468E+00
   0.9926697390761589E+00
   0.9934544768288821E+00
   0.9940064866171900E+00
   0.9978289467917564E+00
   0.9994515449039363E+00
   0.1010312040571175E+01
   0.1003572547276933E+01
   0.9990677746554532E+00
   0.9973561859135798E+00
   0.9980605985818936E+00
   0.9980871436000222E+00
   0.9980562789413614E+00
   0.9983779922763180E+00
   0.9981415378387254E+00
   0.1000296114080490E+01
   0.1001204896361795E+01
   0.1003506420136522E+01
   0.1001116031877458E+01
   0.9991180798837178E+00
   0.9984338571690080E+00
   0.9985443824207835E+00
   0.9985948338013101E+00
   0.9988218980173679E+00
   0.9995768742391160E+00
   0.1000054515678217E+01
   0.1001684338777600E+01
   0.1002735285065433E+01
   0.1001566690690929E+01
   0.1001192338026323E+01
   0.1000010731178338E+01
   0.9991818435505362E+00
   0.9988050822099502E+00
   0.9987059826750114E+00
   0.9988389334992838E+00
   0.9994377069170910E+00
   0.9998942697702887E+00
   0.1000814166340517E+01
   0.1001271852089177E+01
   0.1000566628592248E+01
   0.1000524860282776E+01
   0.9998564545750256E+00
   0.9993104880619376E+00
   0.9989412003640117E+00
   0.9987710162998386E+00
   0.9987348957118062E+00
   0.9990546319547421E+00
   0.9993477689976785E+00
   0.9998124024888909E+00
   0.1000068027413421E+01
   0.1000266304197551E+01
   0.1000322909614271E+01
   0.1000015316642985E+01
   0.9997188760445910E+00
   0.9994348900794011E+00
   0.9992500283710734E+00
   0.9991104552896029E+00
   0.9992082400873004E+00
   0.9993218561679602E+00
   0.9994352864506626E+00
   0.9996628360387200E+00
   0.1000123134516578E+01
   0.1000135842811447E+01
   0.9999670098494172E+00
   0.9997740241389583E+00
   0.9995526707479376E+00
   0.9994257830661600E+00
   0.9993547383343748E+00
   0.9994493113270183E+00
   0.9995410678170470E+00
   0.9996525745428573E+00
   0.9998894117775252E+00
   0.1000091410912993E+01
   0.1000103126237552E+01
   0.9999955260021224E+00
   0.9998896555266106E+00
   0.9998003781960679E+00
   0.9997799249977346E+00
   0.9997118134771126E+00
   0.9996718301741270E+00
   0.9996990759045771E+00
   0.9995503050178725E+00
   0.9997352865721906E+00
   0.1830694468357395E+01
   0.7866381778528122E+00
   0.8541220763885768E+00
   0.1015340028468217E+01
   0.1027140951471819E+01
   0.1003230916395313E+01
   0.9985800749837644E+00
   0.1004186183446286E+01
   0.9964463432952444E+00
   0.9036386868233767E+00
   0.5778330066859176E+00
   0.1114385673517515E+01
   0.9352760762186583E+00
   0.9973110158500995E+00
   0.1000224937180049E+01
   0.1000875999744193E+01
   0.9984395868419703E+00
   0.9994277896139527E+00
   0.9994447358914023E+00
   0.9990492921208841E+00
   0.9948505582235220E+00
   0.1010106783701629E+01
   0.1054204155197012E+01
   0.9799178721743904E+00
   0.9751734918798191E+00
   0.9882570739587093E+00
   0.9974675357036955E+00
   0.9965151260882913E+00
   0.9959665070139152E+00
   0.9959111714297053E+00
   0.9922606869361974E+00
   0.9927694452753553E+00
   0.9724435089629532E+00
   0.1023907999903212E+01
   0.9966827483037346E+00
   0.9952309877372306E+00
   0.9936700127190918E+00
   0.9935322101725841E+00
   0.9926092461701456E+00
   0.9927158273118679E+00
   0.9935048244657306E+00
   0.9940450465563653E+00
   0.9978493639726133E+00
   0.9994701302173118E+00
   0.1010284356435433E+01
   0.1003540129169872E+01
   0.9990429603739570E+00
   0.9973480168998790E+00
   0.9980744587855209E+00
   0.9981262786310934E+00
   0.9981074899686652E+00
   0.9984322309105697E+00
   0.9981819240069925E+00
   0.1000314626990953E+01
   0.1001217926855078E+01
   0.1003482261362744E+01
   0.1001087270384931E+01
   0.9990955286565604E+00
   0.9984260397141388E+00
   0.9985552950342508E+00
   0.9986272638309732E+00
   0.9988652827520237E+00
   0.9996242978504771E+00
   0.1000092309252765E+01
   0.1001704490128142E+01
   0.1002752950978472E+01
   0.1001542192551436E+01
   0.1001160977023808E+01
   0.9999838348080086E+00
   0.9991679806779422E+00
   0.9988102341819078E+00
   0.9987315420629084E+00
   0.9988757467012396E+00
   0.9994778823570639E+00
   0.9999259930175768E+00
   0.1000823771520019E+01
   0.1001273122415464E+01
   0.1000543706055592E+01
   0.1000496654638560E+01
   0.9998319756992438E+00
   0.9992948765886093E+00
   0.9989402115756114E+00
   0.9987842333508161E+00
   0.9987567346494390E+00
   0.9990798969716618E+00
   0.9993675304175710E+00
   0.9998159237317453E+00
   0.1000068559358308E+01
   0.1000244507672139E+01
   0.1000295637647590E+01
   0.9999891224965431E+00
   0.9996937492885457E+00
   0.9994229659314854E+00
   0.9992469886964762E+00
   0.9991190466316463E+00
   0.9992224002676181E+00
   0.9993349917588651E+00
   0.9994314674914794E+00
   0.9996466078557639E+00
   0.1000103820191022E+01
   0.1000112802842691E+01
   0.9999421509497547E+00
   0.9997319485053141E+00
   0.9995259771854451E+00
   0.9993907385464652E+00
   0.9993420412426337E+00
   0.9994472274041326E+00
   0.9995415216983975E+00
   0.9996489541407937E+00
   0.9998776714729554E+00
   0.1000074822798155E+01
   0.1000081416769054E+01
   0.9999724189433462E+00
   0.9998757066013515E+00
   0.9997954736355634E+00
   0.9997863267394764E+00
   0.9997265937142462E+00
   0.9996845831272226E+00
   0.9997062897454110E+00
   0.9995377020948520E+00
   0.9996868436128079E+00
   0.1830693095842706E+01
   0.7866667758365279E+00
   0.8541624829319103E+00
   0.1015379280324620E+01
   0.1027162669577447E+01
   0.1003219937047351E+01
   0.9985412737005790E+00
   0.1004130420628590E+01
   0.9963878776692178E+00
   0.9036005400905704E+00
   0.5778251974785269E+00
   0.1114417250332906E+01
   0.9353220807327753E+00
   0.9973343925488967E+00
   0.1000241891994077E+01
   0.1000884337331494E+01
   0.9984353971141705E+00
   0.9994152497787980E+00
   0.9994271019251249E+00
   0.9990371954120334E+00
   0.9948487926219199E+00
   0.1010111102639027E+01
   0.1054236883406447E+01
   0.9799501120544086E+00
   0.9751938341352522E+00
   0.9882665450676130E+00
   0.9974594963518755E+00
   0.9964873148617130E+00
   0.9959302421360139E+00
   0.9958737561772792E+00
   0.9922383023452103E+00
   0.9927682841063368E+00
   0.9724481690717257E+00
   0.1023936446813089E+01
   0.9967127143310092E+00
   0.9952499731878509E+00
   0.9936746940335055E+00
   0.9935183995421257E+00
   0.9925744279166169E+00
   0.9926697389025867E+00
   0.9934544767065014E+00