# vtk DataFile Version 2.0
FUN3D:global_image_vtk
ASCII
DATASET UNSTRUCTURED_GRID
POINTS 1331 double
    0.0000000000000000E+00    0.2500000000000000E+01    0.0000000000000000E+00
    0.5000000000000000E+00    0.2500000000000000E+01    0.0000000000000000E+00
    0.1000000000000000E+01    0.2500000000000000E+01    0.0000000000000000E+00
    0.1500000000000000E+01    0.2500000000000000E+01    0.0000000000000000E+00
    0.2000000000000000E+01    0.2500000000000000E+01    0.0000000000000000E+00
    0.2500000000000000E+01    0.2500000000000000E+01    0.0000000000000000E+00
    0.3000000000000000E+01    0.2500000000000000E+01    0.0000000000000000E+00
    0.3500000000000000E+01    0.2500000000000000E+01    0.0000000000000000E+00
    0.4000000000000000E+01    0.2500000000000000E+01    0.0000000000000000E+00
    0.4500000000000000E+01    0.2500000000000000E+01    0.0000000000000000E+00
    0.5000000000000000E+01    0.2500000000000000E+01    0.0000000000000000E+00
    0.0000000000000000E+00    0.2500000000000000E+01    0.4999999999999982E+00
    0.4999999999999998E+00    0.2500000000000000E+01    0.4999999999999984E+00
    0.9999999999999998E+00    0.2500000000000000E+01    0.4999999999999987E+00
    0.1500000000000000E+01    0.2500000000000000E+01    0.4999999999999989E+00
    0.2000000000000000E+01    0.2500000000000000E+01    0.4999999999999991E+00
    0.2500000000000000E+01    0.2500000000000000E+01    0.4999999999999993E+00
    0.3000000000000000E+01    0.2500000000000000E+01    0.4999999999999996E+00
    0.3500000000000000E+01    0.2500000000000000E+01    0.4999999999999998E+00
    0.4000000000000000E+01    0.2500000000000000E+01    0.5000000000000000E+00
    0.4500000000000002E+01    0.2500000000000000E+01    0.5000000000000002E+00
    0.5000000000000000E+01    0.2500000000000000E+01    0.5000000000000004E+00
    0.0000000000000000E+00    0.2500000000000000E+01    0.1000000000000001E+01
    0.4999999999999997E+00    0.2500000000000000E+01    0.1000000000000001E+01
    0.1000000000000000E+01    0.2500000000000000E+01    0.1000000000000001E+01
    0.1500000000000000E+01    0.2500000000000000E+01    0.1000000000000001E+01
    0.2000000000000000E+01    0.2500000000000000E+01    0.1000000000000001E+01
    0.2500000000000000E+01    0.2500000000000000E+01    0.1000000000000001E+01
    0.3000000000000000E+01    0.2500000000000000E+01    0.1000000000000001E+01
    0.3500000000000000E+01    0.2500000000000000E+01    0.1000000000000001E+01
    0.4000000000000000E+01    0.2500000000000000E+01    0.1000000000000001E+01
    0.4499999999999999E+01    0.2500000000000000E+01    0.1000000000000001E+01
    0.5000000000000000E+01    0.2500000000000000E+01    0.1000000000000001E+01
    0.0000000000000000E+00    0.2500000000000000E+01    0.1499999999999999E+01
    0.4999999999999994E+00    0.2500000000000000E+01    0.1499999999999999E+01
    0.1000000000000000E+01    0.2500000000000000E+01    0.1499999999999999E+01
    0.1500000000000000E+01    0.2500000000000000E+01    0.1499999999999999E+01
    0.2000000000000001E+01    0.2500000000000000E+01    0.1499999999999999E+01
    0.2500000000000000E+01    0.2500000000000000E+01    0.1499999999999999E+01
    0.2999999999999999E+01    0.2500000000000000E+01    0.1499999999999999E+01
    0.3500000000000000E+01    0.2500000000000000E+01    0.1499999999999999E+01
    0.4000000000000001E+01    0.2500000000000000E+01    0.1499999999999999E+01
    0.4500000000000001E+01    0.2500000000000000E+01    0.1499999999999999E+01
    0.5000000000000000E+01    0.2500000000000000E+01    0.1499999999999999E+01
    0.0000000000000000E+00    0.2500000000000000E+01    0.2000000000000002E+01
    0.4999999999999992E+00    0.2500000000000000E+01    0.2000000000000001E+01
    0.1000000000000000E+01    0.2500000000000000E+01    0.2000000000000001E+01
    0.1500000000000000E+01    0.2500000000000000E+01    0.2000000000000001E+01
    0.2000000000000001E+01    0.2500000000000000E+01    0.2000000000000001E+01
    0.2500000000000000E+01    0.2500000000000000E+01    0.2000000000000001E+01
    0.2999999999999999E+01    0.2500000000000000E+01    0.2000000000000000E+01
    0.3500000000000000E+01    0.2500000000000000E+01    0.2000000000000000E+01
    0.4000000000000000E+01    0.2500000000000000E+01    0.2000000000000000E+01
    0.4500000000000000E+01    0.2500000000000000E+01    0.2000000000000000E+01
    0.5000000000000000E+01    0.2500000000000000E+01    0.2000000000000000E+01
    0.0000000000000000E+00    0.2500000000000000E+01    0.2500000000000000E+01
    0.4999999999999991E+00    0.2500000000000000E+01    0.2500000000000000E+01
    0.1000000000000000E+01    0.2500000000000000E+01    0.2500000000000000E+01
    0.1500000000000000E+01    0.2500000000000000E+01    0.2500000000000000E+01
    0.2000000000000001E+01    0.2500000000000000E+01    0.2500000000000000E+01
    0.2500000000000000E+01    0.2500000000000000E+01    0.2500000000000000E+01
    0.2999999999999999E+01    0.2500000000000000E+01    0.2500000000000000E+01
    0.3500000000000001E+01    0.2500000000000000E+01    0.2500000000000000E+01
    0.4000000000000000E+01    0.2500000000000000E+01    0.2500000000000000E+01
    0.4500000000000001E+01    0.2500000000000000E+01    0.2500000000000000E+01
    0.5000000000000000E+01    0.2500000000000000E+01    0.2500000000000000E+01
    0.0000000000000000E+00    0.2500000000000000E+01    0.2999999999999998E+01
    0.4999999999999989E+00    0.2500000000000000E+01    0.2999999999999998E+01
    0.1000000000000000E+01    0.2500000000000000E+01    0.2999999999999999E+01
    0.1499999999999999E+01    0.2500000000000000E+01    0.2999999999999999E+01
    0.2000000000000001E+01    0.2500000000000000E+01    0.2999999999999999E+01
    0.2500000000000000E+01    0.2500000000000000E+01    0.2999999999999999E+01
    0.2999999999999999E+01    0.2500000000000000E+01    0.2999999999999999E+01
    0.3500000000000001E+01    0.2500000000000000E+01    0.3000000000000000E+01
    0.4000000000000000E+01    0.2500000000000000E+01    0.3000000000000000E+01
    0.4500000000000001E+01    0.2500000000000000E+01    0.3000000000000000E+01
    0.5000000000000000E+01    0.2500000000000000E+01    0.3000000000000000E+01
    0.0000000000000000E+00    0.2500000000000000E+01    0.3500000000000001E+01
    0.4999999999999988E+00    0.2500000000000000E+01    0.3500000000000001E+01
    0.1000000000000001E+01    0.2500000000000000E+01    0.3500000000000001E+01
    0.1499999999999999E+01    0.2500000000000000E+01    0.3500000000000001E+01
    0.2000000000000001E+01    0.2500000000000000E+01    0.3500000000000001E+01
    0.2500000000000000E+01    0.2500000000000000E+01    0.3500000000000001E+01
    0.2999999999999999E+01    0.2500000000000000E+01    0.3500000000000001E+01
    0.3500000000000001E+01    0.2500000000000000E+01    0.3500000000000001E+01
    0.4000000000000001E+01    0.2500000000000000E+01    0.3500000000000001E+01
    0.4500000000000001E+01    0.2500000000000000E+01    0.3500000000000001E+01
    0.5000000000000000E+01    0.2500000000000000E+01    0.3500000000000001E+01
    0.0000000000000000E+00    0.2500000000000000E+01    0.3999999999999999E+01
    0.4999999999999986E+00    0.2500000000000000E+01    0.4000000000000000E+01
    0.1000000000000001E+01    0.2500000000000000E+01    0.3999999999999999E+01
    0.1499999999999999E+01    0.2500000000000000E+01    0.3999999999999999E+01
    0.2000000000000001E+01    0.2500000000000000E+01    0.3999999999999999E+01
    0.2500000000000000E+01    0.2500000000000000E+01    0.3999999999999999E+01
    0.2999999999999998E+01    0.2500000000000000E+01    0.3999999999999999E+01
    0.3500000000000001E+01    0.2500000000000000E+01    0.3999999999999999E+01
    0.3999999999999999E+01    0.2500000000000000E+01    0.3999999999999999E+01
    0.4500000000000003E+01    0.2500000000000000E+01    0.3999999999999999E+01
    0.5000000000000000E+01    0.2500000000000000E+01    0.3999999999999999E+01
    0.0000000000000000E+00    0.2500000000000000E+01    0.4500000000000002E+01
    0.4999999999999984E+00    0.2500000000000000E+01    0.4500000000000002E+01
    0.1000000000000001E+01    0.2500000000000000E+01    0.4500000000000001E+01
    0.1499999999999999E+01    0.2500000000000000E+01    0.4500000000000003E+01
    0.2000000000000002E+01    0.2500000000000000E+01    0.4500000000000001E+01
    0.2500000000000000E+01    0.2500000000000000E+01    0.4500000000000001E+01
    0.2999999999999998E+01    0.2500000000000000E+01    0.4500000000000001E+01
    0.3500000000000001E+01    0.2500000000000000E+01    0.4499999999999999E+01
    0.3999999999999999E+01    0.2500000000000000E+01    0.4499999999999999E+01
    0.4500000000000002E+01    0.2500000000000000E+01    0.4500000000000000E+01
    0.5000000000000000E+01    0.2500000000000000E+01    0.4500000000000000E+01
    0.0000000000000000E+00    0.2500000000000000E+01    0.5000000000000000E+01
    0.4999999999999982E+00    0.2500000000000000E+01    0.5000000000000000E+01
    0.1000000000000001E+01    0.2500000000000000E+01    0.5000000000000000E+01
    0.1499999999999999E+01    0.2500000000000000E+01    0.5000000000000000E+01
    0.2000000000000002E+01    0.2500000000000000E+01    0.5000000000000000E+01
    0.2500000000000000E+01    0.2500000000000000E+01    0.5000000000000000E+01
    0.2999999999999998E+01    0.2500000000000000E+01    0.5000000000000000E+01
    0.3500000000000001E+01    0.2500000000000000E+01    0.5000000000000000E+01
    0.3999999999999999E+01    0.2500000000000000E+01    0.5000000000000000E+01
    0.4500000000000002E+01    0.2500000000000000E+01    0.5000000000000000E+01
    0.5000000000000000E+01    0.2500000000000000E+01    0.5000000000000000E+01
    0.0000000000000000E+00    0.2000000000000000E+01    0.0000000000000000E+00
    0.5000000000000000E+00    0.2000000000000000E+01    0.0000000000000000E+00
    0.1000000000000000E+01    0.2000000000000000E+01    0.0000000000000000E+00
    0.1500000000000000E+01    0.2000000000000000E+01    0.0000000000000000E+00
[...]
POINT_DATA 1331
SCALARS rho double 1
LOOKUP_TABLE default
   0.1822757941451758E+01
   0.8026002914561088E+00
   0.8627293661813198E+00
   0.1001036943448685E+01
   0.1006832493184275E+01
   0.9915668596633447E+00
   0.9932696921253815E+00
   0.9996459153522885E+00
   0.9930549902784446E+00
   0.9053882679227634E+00
   0.5953838485252451E+00
   0.1117265910606237E+01
   0.9417847735306324E+00
   0.9963967168999194E+00
   0.1001260942853727E+01
   0.1003917660427096E+01
   0.1001185153755767E+01
   0.1001111547216610E+01
   0.9985116228109119E+00
   0.9961015524602848E+00
   0.9882137019561208E+00
   0.9978381483796447E+00
   0.1052191555602251E+01
   0.9794818303043277E+00
   0.9765021188168005E+00
   0.9872772923354264E+00
   0.9931842686328822E+00
   0.9920002833022805E+00
   0.9921692565193025E+00
   0.9930547197044770E+00
   0.9901882964116939E+00
   0.9929540652809488E+00
   0.9768713026595283E+00
   0.1026223020373854E+01
   0.1000513299644408E+01
   0.9966950375845388E+00
   0.9938237636509955E+00
   0.9945987133013096E+00
   0.9941172056806655E+00
   0.9942582175516869E+00
   0.9947481552244317E+00
   0.9954468568900895E+00
   0.1000139657834067E+01
   0.1002178992142196E+01
   0.1009869938361837E+01
   0.1002189648909883E+01
   0.9979581512453793E+00
   0.9968780102961654E+00
   0.9972070303103684E+00
   0.9969486230682797E+00
   0.9970183464252454E+00
   0.9976705859084330E+00
   0.9977548902261204E+00
   0.1000210490864799E+01
   0.1001272801674551E+01
   0.1004071231924417E+01
   0.1002163740803019E+01
   0.9998793565343688E+00
   0.9983323298987908E+00
   0.9978732474145705E+00
   0.9976304067590762E+00
   0.9976865591136900E+00
   0.9982866137911995E+00
   0.9988755492591852E+00
   0.1000517855559695E+01
   0.1001849209878707E+01
   0.1001522362277363E+01
   0.1001086542147335E+01
   0.9997989226358274E+00
   0.9990065566092167E+00
   0.9986000990712799E+00
   0.9984101975775272E+00
   0.9984005391015049E+00
   0.9987690039875972E+00
   0.9991034978986424E+00
   0.9999241680101342E+00
   0.1000715422132516E+01
   0.1000677517507670E+01
   0.1000628661955033E+01
   0.9999126881131860E+00
   0.9993330055209988E+00
   0.9989451770267026E+00
   0.9987795796783070E+00
   0.9987761493284766E+00
   0.9990546611288934E+00
   0.9994022598495005E+00
   0.9999205446226686E+00
   0.1000450632289137E+01
   0.1000263061366195E+01
   0.1000275649771674E+01
   0.9998871133301600E+00
   0.9995460217340009E+00
   0.9992529851832221E+00
   0.9990993522205992E+00
   0.9990542138151438E+00
   0.9991988822496529E+00
   0.9994317696710417E+00
   0.9997903764044733E+00
   0.1000206116684017E+01
   0.1000103249732456E+01
   0.1000126991932161E+01
   0.9999012791350873E+00
   0.9996577287569065E+00
   0.9994199546193890E+00
   0.9992770627928382E+00
   0.9992230073163942E+00
   0.9993072882108583E+00
   0.9994804383319131E+00
   0.9997389766543091E+00
   0.1000048408268855E+01
   0.1000046570216713E+01
   0.1000096990427723E+01
   0.9999636716858876E+00
   0.9997628170019207E+00
   0.9995345645908763E+00
   0.9993628055205320E+00
   0.9992692174250229E+00
   0.9992962985038496E+00
   0.9994257511795921E+00
   0.9996530419613141E+00
   0.9999524064764372E+00
   0.1820753412713087E+01
   0.8020703651833500E+00
   0.8628559104218425E+00
   0.1001058580652610E+01
   0.1006857115204976E+01
   0.9915752151529788E+00
   0.9932648159426506E+00
   0.9996127687242299E+00
   0.9930164122369057E+00
   0.9053680323465974E+00
   0.5953048432529665E+00
   0.1114365612701937E+01
   0.9410723484926165E+00
   0.9973822697905443E+00
   0.1001352913838815E+01
   0.1004108464956559E+01
   0.1001308270732736E+01
   0.1001277668514553E+01
   0.9985677859684586E+00
   0.9960264722957404E+00
   0.9879832105049217E+00
   0.9981215288756827E+00
   0.1051852408077902E+01
   0.9794231647276075E+00
   0.9767382474311382E+00
   0.9872675152204322E+00
   0.9932022630939079E+00
   0.9920059235509491E+00
   0.9921722726785359E+00
   0.9930411020816952E+00
   0.9901726482354321E+00
   0.9930338006915767E+00
   0.9771415186385602E+00
   0.1026011740231882E+01
   0.1000399964882879E+01
   0.9968027400363046E+00
   0.9938720390802542E+00
   0.9946535924529096E+00
   0.9941585153976394E+00
   0.9943004317890975E+00
   0.9947738020307914E+00
   0.9954522319681911E+00
   0.1000114222182659E+01
   0.1002181286224548E+01
   0.1009801545506149E+01
   0.1002091272919583E+01
   0.9979403346646180E+00
   0.9968701782493663E+00
   0.9972136586392925E+00
   0.9969560059076943E+00
   0.9970272802759974E+00
   0.9976771488157988E+00
   0.9977607546165559E+00
   0.1000203985491291E+01
   0.1001267815255722E+01
   0.1004050849444684E+01
   0.1002119279479188E+01
   0.9998547344718036E+00
   0.9983142514717628E+00
   0.9978642240444491E+00
   0.9976253419349100E+00
   0.9976844556176282E+00
   0.9982830248215588E+00
   0.9988701649814959E+00
   0.1000503541750628E+01
   0.1001836462576838E+01
   0.1001514067027973E+01
   0.1001065821413131E+01
   0.9997806322889419E+00
   0.9989910463125999E+00
   0.9985886749118984E+00
   0.9984014345725173E+00
   0.9983943617922214E+00
   0.9987639546209983E+00
   0.9991000359707675E+00
   0.9999202979850649E+00
   0.1000715119467249E+01
   0.1000673218219140E+01
   0.1000618935975013E+01
   0.9999012691896231E+00
   0.9993215216880216E+00
   0.9989350858600770E+00
   0.9987709780124170E+00
   0.9987692821930443E+00
   0.9990490213645106E+00
   0.9993981204946140E+00
   0.9999175158488933E+00
   0.1000449522039628E+01
   0.1000260540231336E+01
   0.1000270533507492E+01
   0.9998800672381155E+00
   0.9995379337616334E+00
   0.9992447633317659E+00
   0.9990914404860315E+00
   0.9990470419555439E+00
   0.9991926708543312E+00
   0.9994269511907163E+00
   0.9997884820245853E+00
   0.1000207090094295E+01
   0.1000101824641140E+01
   0.1000124114555737E+01
   0.9998968770948742E+00
   0.9996521027042280E+00
   0.9994135095786743E+00
   0.9992701111314611E+00
   0.9992160275375233E+00
   0.9993010127281636E+00
   0.9994755989026753E+00
   0.9997385819347839E+00
   0.1000052498407126E+01
   0.1000045959744891E+01
   0.1000095107341755E+01
   0.9999603381348282E+00
   0.9997581239575423E+00
   0.9995288568372654E+00
   0.9993564283446404E+00
   0.9992625065249270E+00
   0.9992898444871455E+00
   0.9994198371103084E+00
   0.9996499825830590E+00
   0.9999524179471907E+00
   0.1820400713964742E+01
   0.8021917335616524E+00
   0.8629410452468587E+00
   0.1000990995849128E+01
   0.1006808749764432E+01
   0.9915477848542893E+00
   0.9932480448448467E+00
   0.9996036867518924E+00
   0.9930227868758739E+00
   0.9053736340197903E+00
   0.5952694753068104E+00
   0.1114357761714096E+01
   0.9414385633648558E+00
   0.9974204919520812E+00
   0.1001297476952296E+01
   0.1004094586662201E+01
   0.1001297290272942E+01
   0.1001276742181594E+01
   0.9985855032520602E+00
   0.9960757847220489E+00
   0.9880893215010412E+00
   0.9982156524569468E+00
   0.1051919767170370E+01
   0.9795470594479643E+00
   0.9767504904692529E+00
   0.9872443040295447E+00
   0.9931944606550537E+00
   0.9919994144969172E+00
   0.9921732682220755E+00
   0.9930500812804689E+00
   0.9901913726185139E+00
   0.9930626490438464E+00
   0.9771560249801932E+00
   0.1026028966270605E+01
   0.1000480212883795E+01
   0.9968230387299370E+00
   0.9938594575097365E+00
   0.9946407579697013E+00
   0.9941439464425286E+00
   0.9942891339083040E+00
   0.9947691453102804E+00
   0.9954568884134248E+00
   0.1000131658575037E+01
   0.1002196929968291E+01
   0.1009813011182791E+01
   0.1002135939213380E+01
   0.9979675964242206E+00
   0.9968786779119478E+00
   0.9972160947629128E+00
   0.9969543045339481E+00
   0.9970252989366787E+00
   0.9976759606583773E+00
   0.9977601663743948E+00
   0.1000207203662502E+01
   0.1001274124503175E+01
   0.1004057121351883E+01
   0.1002142072082458E+01
   0.9998740147717539E+00
   0.9983248408836937E+00
   0.9978701814909020E+00
   0.9976275138865341E+00
   0.9976854635771598E+00
   0.9982848575645683E+00
   0.9988738245995551E+00
   0.1000512366953134E+01
   0.1001846299204077E+01
   0.1001518609724475E+01
   0.1001077923948492E+01
   0.9997940855376427E+00
   0.9990014782036614E+00
   0.9985966272311528E+00
   0.9984068496841982E+00
   0.9983980768309222E+00
   0.9987666295385140E+00
   0.9991018245194050E+00
   0.9999219088386787E+00
   0.1000713322233355E+01
   0.1000676268017384E+01
   0.1000625497616548E+01
   0.9999098544353060E+00
   0.9993296953728328E+00
   0.9989423425553541E+00
   0.9987767965729791E+00
   0.9987737440575580E+00
   0.9990522435029600E+00
   0.9994002013935188E+00
   0.9999188001598440E+00
   0.1000449107999618E+01
   0.1000262487609766E+01
   0.1000274354091144E+01
   0.9998856413092181E+00
   0.9995441404776784E+00
   0.9992510586467502E+00
   0.9990973038836770E+00
   0.9990522613405440E+00
   0.9991969143110359E+00
   0.9994299388488318E+00
   0.9997889691405811E+00
   0.1000205095777483E+01
   0.1000102971392604E+01
   0.1000126394660491E+01
   0.9999004631304989E+00
   0.9996566056221374E+00
   0.9994186533311693E+00
   0.9992755507120591E+00
   0.9992214125991423E+00
   0.9993056404414468E+00
   0.9994788613008255E+00
   0.9997377709641700E+00
   0.1000047585130581E+01
   0.1000046453784265E+01
   0.1000096639438067E+01
   0.9999631031536022E+00
   0.9997619739061968E+00
   0.9995335172779216E+00
   0.9993615635902433E+00
   0.9992678565031493E+00
   0.9992948482619920E+00
   0.9994242400025668E+00
   0.9996517530741427E+00
   0.9999514777169058E+00
   0.1820469130364921E+01
   0.8023225590338846E+00
   0.8630900110199371E+00
   0.1001000943640761E+01
   0.1006793945527149E+01
   0.9915396597995716E+00
   0.9932434033150461E+00
   0.9995964996054026E+00
   0.9930229668782472E+00
   0.9053977614102016E+00
   0.5953158960003517E+00
   0.1114142847379745E+01
   0.9413457592232370E+00
   0.9975691256365464E+00
   0.1001310371840116E+01
   0.1004109812686225E+01
   0.1001287842054345E+01
   0.1001264462207746E+01
   0.9985486203785880E+00
   0.9960170274586067E+00
   0.9880120535260587E+00
   0.9981836507239451E+00
   0.1051854322716625E+01
   0.9795442107559922E+00
   0.9768127112484665E+00
   0.9872585246068306E+00
   0.9932081528396575E+00
   0.9920030106673894E+00
   0.9921764159590631E+00
   0.9930471512468433E+00
   0.9901890796498548E+00
   0.9930634648498147E+00
   0.9771676921586623E+00
   0.1025981516721623E+01
   0.1000446302088950E+01
   0.9968510058329078E+00
   0.9938721879699240E+00
   0.9946553256858092E+00
   0.9941494136420758E+00
   0.9942918236573057E+00
   0.9947632631809398E+00
   0.9954448507580277E+00
   0.1000111663666474E+01
   0.1002184539502608E+01
   0.1009793066688873E+01
   0.1002109969388017E+01
   0.9979675116463865E+00
   0.9968787319289475E+00
   0.9972205743175442E+00
   0.9969561942440877E+00
   0.9970266871175194E+00
   0.9976748521968836E+00
   0.9977588846585648E+00
   0.1000204694978718E+01
   0.1001273206958033E+01
   0.1004048537138826E+01
   0.1002126706466758E+01
   0.9998695837895246E+00
   0.9983217581784172E+00
   0.9978704873321677E+00
   0.9976273997126404E+00
   0.9976852882366332E+00
   0.9982826965882778E+00
   0.9988702039632029E+00
   0.1000505601972224E+01
   0.1001839484913353E+01
   0.1001514347477491E+01
   0.1001068909096683E+01
   0.9997883439248590E+00
   0.9989968374366356E+00
   0.9985940544850047E+00
   0.9984047618979104E+00
   0.9983966193606351E+00
   0.9987650115480422E+00
   0.9991003050195306E+00
   0.9999200802988303E+00
   0.1000714187085630E+01
   0.1000673823511887E+01
   0.1000620440541621E+01
   0.9999052089404923E+00
   0.9993252264121357E+00
   0.9989388854654111E+00
   0.9987739763147067E+00
   0.9987717992151983E+00
   0.9990509242740487E+00
   0.9993994376382302E+00
   0.9999179093201136E+00
   0.1000449383897616E+01
   0.1000260969184356E+01
   0.1000271319924491E+01
   0.9998821165227081E+00
   0.9995402808818379E+00
   0.9992474075013932E+00
   0.9990938911879160E+00
   0.9990493206056063E+00
   0.9991946620988128E+00
   0.9994285956614276E+00
   0.9997894319761461E+00
   0.1000207690028238E+01
   0.1000102066976490E+01
   0.1000124562183571E+01
   0.9998979792087044E+00
   0.9996535584917324E+00
   0.9994153333400775E+00
   0.9992720809714390E+00
   0.9992180706126088E+00
   0.9993029798808051E+00
   0.9994773760363604E+00
   0.9997398243978323E+00
   0.1000053278270312E+01
   0.1000046067877240E+01
   0.1000095376301440E+01
   0.9999610738589947E+00
   0.9997592555547540E+00
   0.9995303394212617E+00
   0.9993581013669466E+00
   0.9992642898038765E+00
   0.9992916673624263E+00
   0.9994217102513580E+00
   0.9996515713027530E+00
   0.9999534735706281E+00
   0.1820499658496881E+01
   0.8023502811625248E+00
   0.8631222225655939E+00
   0.1001000699665493E+01
   0.1006790153008126E+01
   0.9915395813419996E+00
   0.9932462652974781E+00
   0.9995990894257625E+00
   0.9930262793762896E+00
   0.9054085843328856E+00
   0.5953375396104350E+00
   0.1114119010105850E+01
   0.9413277371742430E+00
   0.9975758893036994E+00
   0.1001304237447023E+01
   0.1004113027122088E+01
   0.1001287230096638E+01
   0.1001267532051472E+01
   0.9985526464992008E+00
   0.9960199245440787E+00
   0.9880035737735680E+00
   0.9981723305079560E+00
   0.1051847019476304E+01
   0.9795481618915091E+00
   0.9768188119637455E+00
   0.9872545458200075E+00
   0.9932078758569906E+00
   0.9920018915338170E+00
   0.9921779546019722E+00
   0.9930497100656609E+00
   0.9901925347906990E+00
   0.9930640452087659E+00
   0.9771668845943784E+00
   0.1025977359130887E+01
   0.1000450014369426E+01
   0.9968574789902179E+00
   0.9938717702631381E+00
   0.9946572922078937E+00
   0.9941500387145157E+00
   0.9942941764189596E+00
   0.9947661673280016E+00
   0.9954473950600251E+00
   0.1000111949354608E+01
   0.1002181929960581E+01
   0.1009793230971796E+01
   0.1002113746926655E+01
   0.9979707990924289E+00
   0.9968775934958468E+00
   0.9972205445542132E+00
   0.9969562340825233E+00
   0.9970282030532198E+00
   0.9976769319131351E+00
   0.9977602118081341E+00
   0.1000202795675966E+01
   0.1001267248822312E+01
   0.1004049521238823E+01
   0.1002130335244807E+01
   0.9998733804806091E+00
   0.9983223876605485E+00
   0.9978705352942810E+00
   0.9976267247264002E+00
   0.9976851650995473E+00
   0.9982831088704867E+00
   0.9988708451418075E+00
   0.1000506257555810E+01
   0.1001840457915171E+01
   0.1001515462793788E+01
   0.1001071636382720E+01
   0.9997915957222913E+00
   0.9989988169446768E+00
   0.9985956525285636E+00
   0.9984058015978980E+00
   0.9983976683026442E+00
   0.9987660109543437E+00
   0.9991011336282237E+00
   0.9999197690180534E+00
   0.1000711358816943E+01
   0.1000674849603801E+01
   0.1000622468681851E+01
   0.9999078150372308E+00
   0.9993273549774134E+00
   0.9989406796227603E+00
   0.9987751201641236E+00
   0.9987724399263230E+00
   0.9990509979363965E+00
   0.9993994247724008E+00
   0.9999182607593552E+00
   0.1000449039160730E+01
   0.1000261786237385E+01
   0.1000272829859263E+01
   0.9998842188089908E+00
   0.9995424417725187E+00
   0.9992495384741714E+00
   0.9990957204651958E+00
   0.9990508062518314E+00
   0.9991954641091217E+00
   0.9994287572705045E+00
   0.9997882713736984E+00
   0.1000204828992675E+01
   0.1000102629121290E+01
   0.1000125612698266E+01
   0.9998995430999695E+00
   0.9996553923677727E+00
   0.9994173303592077E+00
   0.9992740589056318E+00
   0.9992199293611994E+00
   0.9993042129483671E+00
   0.9994776980426940E+00
   0.9997370524765041E+00
   0.1000047249949537E+01
   0.1000046327812164E+01
   0.1000096145424510E+01
   0.9999623749997074E+00
   0.9997609753634578E+00
   0.9995323692730198E+00
   0.9993602417508005E+00
   0.9992664177071146E+00
   0.9992933273280422E+00
   0.9994228665640746E+00
   0.9996508783675179E+00
   0.9999511175311719E+00
   0.1820500336894522E+01
   0.8023515145921214E+00
   0.8631326120456057E+00
   0.1001004092794060E+01
   0.1006790172230246E+01
   0.9915369617437640E+00
   0.9932418465878354E+00
   0.9995935106916860E+00
   0.9930222111973183E+00
   0.9054089743848395E+00
   0.5953455700144283E+00
   0.1114110986413397E+01
   0.9413155508073046E+00
   0.9975893947442146E+00
   0.1001305409122572E+01
   0.1004113660969981E+01
   0.1001283130451195E+01
   0.1001261723798992E+01
   0.9985440496373916E+00
   0.9960121711872773E+00
   0.9879962233300437E+00
   0.9981715067376027E+00
   0.1051840551746339E+01
   0.9795450157916935E+00
   0.9768259041735521E+00
   0.9872557403370100E+00
   0.9932081197097553E+00
   0.9919997117530841E+00
   0.9921748676554858E+00
   0.9930449745544742E+00
   0.9901883277672000E+00
   0.9930642672063629E+00
   0.9771743399305596E+00
   0.1025972130558597E+01
   0.1000444453463749E+01
   0.9968621105939590E+00
   0.9938739249157326E+00
   0.9946585386292717E+00
   0.9941487143826655E+00
   0.9942919939691230E+00
   0.9947629189877846E+00
   0.9954447029457828E+00
   0.1000108903749948E+01
   0.1002180418867001E+01
   0.1009790165825381E+01
   0.1002109730760340E+01
   0.9979721150029435E+00
   0.9968785897727297E+00
   0.9972210653712136E+00
   0.9969546755878467E+00
   0.9970254155489193E+00
   0.9976735380615892E+00
   0.9977586399898162E+00
   0.1000204016128821E+01
   0.1001272916873398E+01
   0.1004047622029515E+01
   0.1002127056723257E+01
   0.9998731674312280E+00
   0.9983227703165293E+00
   0.9978712648617314E+00
   0.9976265403872424E+00
   0.9976840813021657E+00
   0.9982810655668017E+00
   0.9988690690095302E+00
   0.1000504799285433E+01
   0.1001840697455068E+01
   0.1001514232967682E+01
   0.1001069234310726E+01
   0.9997903973695640E+00
   0.9989980712266139E+00
   0.9985952304768175E+00
   0.9984050202879332E+00
   0.9983964622725674E+00
   0.9987644064461351E+00
   0.9991000578208962E+00
   0.9999206048613072E+00
   0.1000715281558636E+01
   0.1000674004599634E+01
   0.1000620786172802E+01
   0.9999064507613640E+00
   0.9993261950197763E+00
   0.9989398886203281E+00
   0.9987745615461769E+00
   0.9987721102593003E+00
   0.9990507608568197E+00
   0.9993991178736796E+00
   0.9999179687031126E+00
   0.1000449071588802E+01
   0.1000261159948315E+01
   0.1000271602049121E+01
   0.9998828819100856E+00
   0.9995410230947186E+00
   0.9992482294000378E+00
   0.9990946019640102E+00
   0.9990499719902365E+00
   0.9991950484987692E+00
   0.9994285211940473E+00
   0.9997889389056083E+00
   0.1000206681754093E+01
   0.1000102190789177E+01
   0.1000124770903819E+01
   0.9998984586794185E+00
   0.9996541319738729E+00
   0.9994160393156288E+00
   0.9992727934403045E+00
   0.9992187638465945E+00
   0.9993035298875389E+00
   0.9994775741799968E+00
   0.9997395316888648E+00
   0.1000052870030273E+01
   0.1000046113414935E+01
   0.1000095537411984E+01
   0.9999614671653823E+00
   0.9997597427558937E+00
   0.9995308506037501E+00
   0.9993585966924554E+00
   0.9992648588638979E+00
   0.9992924355994326E+00
   0.9994225398385174E+00
   0.9996519148531672E+00
   0.9999537001520709E+00
   0.1820499655889328E+01
   0.8023502791183141E+00
   0.8631222222122367E+00
   0.1001000700394666E+01
   0.1006790153370387E+01
   0.9915395814126202E+00
   0.9932462653808019E+00
   0.9995990895807831E+00
   0.9930262796158135E+00
   0.9054085844332448E+00
   0.5953375395517196E+00
   0.1114119010503149E+01
   0.9413277371140467E+00
   0.9975758891564013E+00
   0.1001304237254798E+01
   0.1004113027048352E+01
   0.1001287230018276E+01
   0.1001267532023349E+01
   0.9985526464462114E+00
   0.9960199244293981E+00
   0.9880035738093776E+00
   0.9981723305572732E+00
   0.1051847020189319E+01
   0.9795481620730281E+00
   0.9768188118152715E+00
   0.9872545454318562E+00
   0.9932078756658519E+00
   0.9920018913859756E+00
   0.9921779545802264E+00
   0.9930497101030685E+00
   0.9901925349406200E+00
   0.9930640453200864E+00
   0.9771668847852754E+00
   0.1025977359434783E+01
   0.1000450014873419E+01
   0.9968574792480124E+00
   0.9938717702848441E+00
   0.9946572921919679E+00
   0.9941500386328088E+00
   0.9942941763081553E+00
   0.9947661671711676E+00