# vtk DataFile Version 2.0
FUN3D:global_image_vtk
ASCII
DATASET UNSTRUCTURED_GRID
POINTS 213 double
   -0.5474224527974529E-02    0.2504942126395249E+01    0.8082163479709879E-04
    0.1245420076927911E+01    0.2504942126395249E+01    0.1048423406333764E-03
    0.2497696590160995E+01    0.2504942126395249E+01    0.1104835811035907E-03
    0.3750592000219026E+01    0.2504942126395249E+01    0.1364569463548628E-03
    0.5003221893556912E+01    0.2504942126395249E+01    0.9695062306590325E-04
    0.5004677757729920E+01    0.1281291915009508E+01    0.1646229089325717E-03
    0.5004773233264879E+01    0.2775197973707504E-01    0.1907233958898121E-03
    0.5003582221826302E+01   -0.1225852858115238E+01    0.1617086140448258E-03
    0.5001953053134341E+01   -0.2496588894989582E+01    0.1087092391278553E-03
    0.3750349122005743E+01   -0.2496588894989582E+01    0.1468754894505546E-03
    0.2498611963539370E+01   -0.2496588894989582E+01    0.1014099588108473E-03
    0.1247176261509184E+01   -0.2496588894989582E+01    0.1118958292209704E-03
   -0.3383469652657665E-02   -0.2496588894989582E+01    0.8163625948968987E-04
   -0.4256789880244759E-02   -0.1225734173000734E+01    0.3518763781415397E-04
   -0.5251125685943441E-02    0.2619601496228422E-01    0.1043778534218641E-03
   -0.5675101163759885E-02    0.1278222243537384E+01    0.8322048501216398E-04
    0.9003214217916410E+00    0.1608980307793919E+01    0.8747981908401076E-04
    0.3983173228635223E+01   -0.1561211262265163E+01    0.1766748191494309E-03
    0.4035602579387200E+01    0.1486761266132127E+01    0.1716706614120915E-03
    0.1036614706197514E+01   -0.1455625787804053E+01    0.1057334496957495E-03
    0.1094353949885533E+01   -0.2964610398686504E+00    0.1265432266614887E-03
    0.7298409877475077E+00    0.6874691505187871E+00    0.1054287163688438E-03
    0.1617019123562922E+01    0.8553219978724499E+00    0.1534204508725083E-03
    0.2143200653243059E+01   -0.1627127869719470E+01    0.1616130186569424E-03
    0.4088840979724988E+01   -0.4351036111772547E+00    0.2724112872097724E-03
    0.2977917509313417E+01   -0.8334984944044713E+00    0.2255152481764066E-03
    0.3044093743998018E+01   -0.1814360085627647E+01    0.1621866746874127E-03
    0.3427867629114648E+01    0.3813911924771510E+00    0.2945982215774319E-03
    0.4313225907775387E+01    0.5489145452878156E+00    0.2316713278243553E-03
    0.1823033713305206E+01    0.1771265914472351E+01    0.1845256048548520E-03
    0.2806311649527161E+01    0.1358630605773757E+01    0.1947351430204177E-03
    0.1891861854168060E+01   -0.8481303814089863E+00    0.1680436315511795E-03
    0.2268769674863574E+01    0.7723810290791104E-01    0.2076744350430911E-03
    0.5000000000000000E+01    0.2504942126395249E+01    0.1250000000000000E+01
    0.5000000000000000E+01    0.2504942126395249E+01    0.2500000000000000E+01
    0.5000000000000000E+01    0.2504942126395249E+01    0.3750000000000000E+01
    0.5000000000000000E+01    0.2504942126395249E+01    0.5000000000000000E+01
    0.3750000000000000E+01    0.2504942126395249E+01    0.5000000000000000E+01
    0.2500000000000000E+01    0.2504942126395249E+01    0.5000000000000000E+01
    0.1250000000000000E+01    0.2504942126395249E+01    0.5000000000000000E+01
    0.0000000000000000E+00    0.2504942126395249E+01    0.5000000000000000E+01
    0.0000000000000000E+00    0.2504942126395249E+01    0.3750000000000000E+01
    0.0000000000000000E+00    0.2504942126395249E+01    0.2500000000000000E+01
    0.0000000000000000E+00    0.2504942126395249E+01    0.1250000000000000E+01
    0.9588960369888062E+00    0.2504942126395249E+01    0.9696533634708027E+00
    0.3981953152435457E+01    0.2504942126395249E+01    0.4070563994312797E+01
    0.4036122760749433E+01    0.2504942126395249E+01    0.1017568211218936E+01
    0.9637572721113069E+00    0.2504942126395249E+01    0.3973598325903541E+01
    0.1546540225216466E+01    0.2504942126395249E+01    0.2931570546603170E+01
    0.6973799590153460E+00    0.2504942126395249E+01    0.3070320151810757E+01
    0.8903742902441723E+00    0.2504942126395249E+01    0.2056562651378697E+01
    0.2183042038777830E+01    0.2504942126395249E+01    0.3960694659634122E+01
    0.3855845055166629E+01    0.2504942126395249E+01    0.2933250909190151E+01
    0.3152611483937386E+01    0.2504942126395249E+01    0.3637668660428785E+01
    0.3103307439056093E+01    0.2504942126395249E+01    0.4332607953804898E+01
    0.3266711423522338E+01    0.2504942126395249E+01    0.1889657173291479E+01
    0.4232537818756438E+01    0.2504942126395249E+01    0.1918627332151839E+01
    0.1905523024840067E+01    0.2504942126395249E+01    0.7226299060056602E+00
    0.2879768362524973E+01    0.2504942126395249E+01    0.9080952800841882E+00
    0.2012711742452715E+01    0.2504942126395249E+01    0.1767083037650774E+01
    0.2669681670297051E+01    0.2504942126395249E+01    0.2853394772361394E+01
    0.5000000000000000E+01    0.1250000000000000E+01    0.5000000000000000E+01
    0.5000000000000000E+01    0.0000000000000000E+00    0.5000000000000000E+01
    0.5000000000000000E+01   -0.1250000000000000E+01    0.5000000000000000E+01
    0.5000000000000000E+01   -0.2496588894989582E+01    0.5000000000000000E+01
    0.5000000000000000E+01   -0.2496588894989582E+01    0.3750000000000000E+01
    0.5000000000000000E+01   -0.2496588894989582E+01    0.2500000000000000E+01
    0.5000000000000000E+01   -0.2496588894989582E+01    0.1250000000000000E+01
    0.5000000000000000E+01    0.1578994732800803E+01    0.9058375365086910E+00
    0.5000000000000000E+01   -0.1583989954232354E+01    0.3982050490726493E+01
    0.5000000000000000E+01    0.1453322699199022E+01    0.4033849428301197E+01
    0.5000000000000000E+01   -0.1479596339503735E+01    0.1040505887381675E+01
    0.5000000000000000E+01   -0.3227322616384110E+00    0.1099454400140349E+01
    0.5000000000000000E+01    0.6593508822075582E+00    0.7354504170366591E+00
    0.5000000000000000E+01    0.8256214013940779E+00    0.1622302608453282E+01
    0.5000000000000000E+01   -0.1650070333782557E+01    0.2145871574390382E+01
    0.5000000000000000E+01   -0.4612828702537229E+00    0.4086422318222992E+01
    0.5000000000000000E+01   -0.8579242121530853E+00    0.2979540174134984E+01
    0.5000000000000000E+01   -0.1836846154397680E+01    0.3045064261640043E+01
    0.5000000000000000E+01    0.3508002863614053E+00    0.3428197553792836E+01
    0.5000000000000000E+01    0.5185680230613409E+00    0.4309693860063405E+01
    0.5000000000000000E+01    0.1738996113203182E+01    0.1827272193562204E+01
    0.5000000000000000E+01    0.1325493893339706E+01    0.2808563282768077E+01
    0.5000000000000000E+01   -0.8731419609589618E+00    0.1895995683864404E+01
    0.5000000000000000E+01    0.4906150219227333E-01    0.2273179336307740E+01
    0.0000000000000000E+00    0.1250000000000000E+01    0.5000000000000000E+01
    0.0000000000000000E+00    0.0000000000000000E+00    0.5000000000000000E+01
    0.0000000000000000E+00   -0.1250000000000000E+01    0.5000000000000000E+01
    0.0000000000000000E+00   -0.2496588894989582E+01    0.5000000000000000E+01
    0.1250000000000000E+01   -0.2496588894989582E+01    0.5000000000000000E+01
    0.2500000000000000E+01   -0.2496588894989582E+01    0.5000000000000000E+01
    0.3750000000000000E+01   -0.2496588894989582E+01    0.5000000000000000E+01
    0.4042003247744892E+01    0.1558308132739014E+01    0.5000000000000000E+01
    0.9304122287900499E+00   -0.1548001304379777E+01    0.5000000000000000E+01
    0.1037243024609388E+01    0.1462892710085612E+01    0.5000000000000000E+01
    0.3946240828834967E+01   -0.1445243809615570E+01    0.5000000000000000E+01
    0.4092527262848217E+01   -0.3455338993778935E+00    0.5000000000000000E+01
    0.4293103109154542E+01    0.6277660831404320E+00    0.5000000000000000E+01
    0.3241512314643519E+01    0.7429886854239611E+00    0.5000000000000000E+01
    0.2844289952419609E+01   -0.1588117879734118E+01    0.5000000000000000E+01
    0.7159905765450471E+00   -0.6002320124191652E+00    0.5000000000000000E+01
    0.1754341919796891E+01   -0.7398147869923652E+00    0.5000000000000000E+01
    0.1870296826774691E+01   -0.1788622905643739E+01    0.5000000000000000E+01
    0.9220614901912976E+00    0.3083720183248586E+00    0.5000000000000000E+01
    0.3101523624086016E+01    0.1777901774806180E+01    0.5000000000000000E+01
    0.2192512063922564E+01    0.1576861561598471E+01    0.5000000000000000E+01
    0.2024793420196460E+01    0.4773861992750707E+00    0.5000000000000000E+01
    0.2990627757741975E+01   -0.4878110785814084E+00    0.5000000000000000E+01
    0.0000000000000000E+00   -0.2496588894989582E+01    0.1250000000000000E+01
    0.0000000000000000E+00   -0.2496588894989582E+01    0.2500000000000000E+01
    0.0000000000000000E+00   -0.2496588894989582E+01    0.3750000000000000E+01
    0.0000000000000000E+00    0.1558308132739014E+01    0.4042003247744892E+01
    0.0000000000000000E+00   -0.1548001304379777E+01    0.9304122287900499E+00
    0.0000000000000000E+00    0.1462892710085612E+01    0.1037243024609388E+01
    0.0000000000000000E+00   -0.1445243809615570E+01    0.3946240828834967E+01
    0.0000000000000000E+00   -0.3455338993778935E+00    0.4092527262848217E+01
    0.0000000000000000E+00    0.6277660831404320E+00    0.4293103109154542E+01
    0.0000000000000000E+00    0.7429886854239611E+00    0.3241512314643519E+01
    0.0000000000000000E+00   -0.1588117879734118E+01    0.2844289952419609E+01
    0.0000000000000000E+00   -0.6002320124191652E+00    0.7159905765450471E+00
    0.0000000000000000E+00   -0.7398147869923652E+00    0.1754341919796891E+01
    0.0000000000000000E+00   -0.1788622905643739E+01    0.1870296826774691E+01
    0.0000000000000000E+00    0.3083720183248586E+00    0.9220614901912976E+00
    0.0000000000000000E+00    0.1777901774806180E+01    0.3101523624086016E+01
    0.0000000000000000E+00    0.1576861561598471E+01    0.2192512063922564E+01
[...]
POINT_DATA 213
SCALARS u double 1
LOOKUP_TABLE default
   0.9999813284807013E+00
   0.1000027640386538E+01
   0.1000058943815782E+01
   0.1000048926558171E+01
   0.1000014643251799E+01
   0.1000011000779156E+01
   0.1000014249020860E+01
   0.1000016438023791E+01
   0.1000019833407672E+01
   0.1000055557522403E+01
   0.1000053079620576E+01
   0.1000036537229192E+01
   0.9999937857795113E+00
   0.9999922461177209E+00
   0.9999886171291775E+00
   0.9999837433278755E+00
   0.1000009964729240E+01
   0.1000062909640568E+01
   0.1000053208607987E+01
   0.1000034742336058E+01
   0.1000020883228626E+01
   0.1000002606893707E+01
   0.1000037834024485E+01
   0.1000057340999427E+01
   0.1000066632340203E+01
   0.1000076968625836E+01
   0.1000065297006352E+01
   0.1000081079953123E+01
   0.1000056211166896E+01
   0.1000050763658842E+01
   0.1000061518266265E+01
   0.1000052592782562E+01
   0.1000063322625014E+01
   0.1000008452605721E+01
   0.1000005120143199E+01
   0.1000002810293862E+01
   0.1000001898996962E+01
   0.9999972108519916E+00
   0.9999954332038838E+00
   0.9999951251361912E+00
   0.9999969053911124E+00
   0.9999965869278308E+00
   0.9999953177499812E+00
   0.9999924367169024E+00
   0.1000001110751011E+01
   0.9999994244376180E+00
   0.1000024128521088E+01
   0.9999961478323540E+00
   0.9999977223263549E+00
   0.9999964670282959E+00
   0.9999978962834057E+00
   0.9999966118682340E+00
   0.1000002926223735E+01
   0.9999986850010374E+00
   0.9999970693124298E+00
   0.1000012795281360E+01
   0.1000010395366848E+01
   0.1000026877507031E+01
   0.1000034025567082E+01
   0.1000007193299242E+01
   0.1000000989144283E+01
   0.1000002092194862E+01
   0.1000002117792080E+01
   0.1000001809258257E+01
   0.1000002016720654E+01
   0.1000002838612207E+01
   0.1000005390489867E+01
   0.1000009998677466E+01
   0.1000011376043674E+01
   0.1000002732969334E+01
   0.1000002610900555E+01
   0.1000011970631072E+01
   0.1000009508115744E+01
   0.1000009486625482E+01
   0.1000009816372204E+01
   0.1000006593962769E+01
   0.1000002616659434E+01
   0.1000004384921804E+01
   0.1000003994790255E+01
   0.1000003218357914E+01
   0.1000002618992631E+01
   0.1000006794097015E+01
   0.1000004415381103E+01
   0.1000008916985830E+01
   0.1000006899578641E+01
   0.9999972415935565E+00
   0.9999972771411512E+00
   0.9999971072030431E+00
   0.9999968166828663E+00
   0.9999950207066703E+00
   0.9999953940225651E+00
   0.9999975996255773E+00
   0.9999978673630866E+00
   0.9999954603988315E+00
   0.9999953922199729E+00
   0.9999979539827984E+00
   0.9999981132855031E+00
   0.9999987755435977E+00
   0.9999957677428498E+00
   0.9999957314088728E+00
   0.9999959192798664E+00
   0.9999948728335336E+00
   0.9999949502237244E+00
   0.9999956591993083E+00
   0.9999958701025055E+00
   0.9999951158364966E+00
   0.9999948157024605E+00
   0.9999956352410967E+00
   0.9999919300492628E+00
   0.9999949198128968E+00
   0.9999962705812544E+00
   0.9999965661460534E+00
   0.9999869215499961E+00
   0.9999897077856557E+00
   0.9999963249752274E+00
   0.9999966536274393E+00
   0.9999968689605493E+00
   0.9999959083209098E+00
   0.9999946267814770E+00
   0.9999877227058281E+00
   0.9999917372395212E+00
   0.9999941695242889E+00
   0.9999879986215435E+00
   0.9999960280063538E+00
   0.9999943559217102E+00
   0.9999935700543895E+00
   0.9999952216916156E+00
   0.1000008634938997E+01
   0.9999997842366284E+00
   0.1000029324912544E+01
   0.9999961481975362E+00
   0.9999980452754627E+00
   0.9999962870890504E+00
   0.9999986623313580E+00
   0.9999968299581697E+00
   0.1000003039040261E+01
   0.9999993173956822E+00
   0.9999974917869031E+00
   0.1000013906644943E+01
   0.1000011715794838E+01
   0.1000033140608857E+01
   0.1000035150060068E+01
   0.1000009754289098E+01
   0.1000001946040788E+01
   0.1000001498575663E+01
   0.9999970113028956E+00
   0.9999978420111948E+00
   0.1000001884962923E+01
   0.9999954672393500E+00
   0.9999973584647657E+00
   0.1000005059856379E+01
   0.9999958291192231E+00
   0.9999964864224372E+00
   0.9999959577531837E+00
   0.1000001030354857E+01
   0.1000006725261214E+01
   0.9999957354818791E+00
   0.9999997074481926E+00
   0.1000011259311848E+01
   0.1000003977611222E+01
   0.9999999335180886E+00
   0.1000006965205395E+01
   0.9999965160505238E+00
   0.9999960222209103E+00
   0.9999976519427453E+00
   0.1000004320427704E+01
   0.1000000066671427E+01
   0.9999957831509029E+00
   0.9999961374150015E+00
   0.1000000754244535E+01
   0.1000011210612599E+01
   0.9999956756817657E+00
   0.9999961250089355E+00
   0.1000032086518018E+01
   0.1000025046228233E+01
   0.1000014619304019E+01
   0.1000006197817004E+01
   0.1000026393156864E+01
   0.1000010674726468E+01
   0.1000006504404900E+01
   0.9999970004882194E+00
   0.1000004373858497E+01
   0.9999994165011291E+00
   0.9999968300700832E+00
   0.1000008611997345E+01
   0.1000005435162237E+01
   0.1000018035426473E+01
   0.1000006722408308E+01
   0.1000001544681817E+01
   0.1000000954576885E+01
   0.1000002081783904E+01
   0.1000017296195117E+01
   0.1000025186083558E+01
   0.1000021682401640E+01
   0.1000012152972568E+01
   0.1000040693678216E+01
   0.1000027638219132E+01
   0.1000020229480933E+01
   0.1000026399887915E+01
   0.1000052793394646E+01
   0.9999967159256467E+00
   0.9999958049174268E+00
   0.9999984777341283E+00
   0.1000001548123552E+01
   0.1000045626757541E+01
   0.1000045908530373E+01
   0.1000043095248687E+01
   0.9999970248865812E+00
   0.9999988943290345E+00
   0.1000000449809533E+01
   0.1000007930901604E+01
   0.1000022505023277E+01
   0.1000050527102121E+01
SCALARS v double 1
LOOKUP_TABLE default
   0.0000000000000000E+00
   0.0000000000000000E+00
   0.0000000000000000E+00
   0.0000000000000000E+00
   0.0000000000000000E+00
  -0.1532241811350180E-04
  -0.3662481831656831E-05
   0.1326022748142960E-04
   0.0000000000000000E+00
   0.0000000000000000E+00
   0.0000000000000000E+00
   0.0000000000000000E+00
   0.0000000000000000E+00
   0.1974236204467166E-06
   0.7750442421497141E-05
   0.1798093486901854E-05
   0.5608001641864663E-06
   0.1258483104133615E-04
  -0.7258948418989946E-05
  -0.1174419422772946E-04
   0.2781180691245228E-05
   0.2710741787153757E-05
   0.6546446110341488E-05
  -0.1001619985785941E-04
   0.8120373277330243E-05
  -0.3376989308104357E-05
  -0.8574967764023285E-06
   0.3541445278220884E-05
  -0.1194181128597728E-04
   0.1028909035479252E-04
   0.8929114272609325E-05
  -0.8951801530315809E-05
   0.2108280360297807E-05
   0.0000000000000000E+00
   0.0000000000000000E+00
   0.0000000000000000E+00
   0.0000000000000000E+00
   0.0000000000000000E+00
   0.0000000000000000E+00
   0.0000000000000000E+00
   0.0000000000000000E+00
   0.0000000000000000E+00
   0.0000000000000000E+00
   0.0000000000000000E+00
   0.0000000000000000E+00
   0.0000000000000000E+00
   0.0000000000000000E+00
   0.0000000000000000E+00
   0.0000000000000000E+00
   0.0000000000000000E+00
   0.0000000000000000E+00
   0.0000000000000000E+00
   0.0000000000000000E+00
   0.0000000000000000E+00
   0.0000000000000000E+00
   0.0000000000000000E+00
   0.0000000000000000E+00
   0.0000000000000000E+00
   0.0000000000000000E+00
   0.0000000000000000E+00
   0.0000000000000000E+00
   0.4835392517262666E-06
   0.1619166470364317E-06
   0.7544430721110312E-08
   0.0000000000000000E+00
   0.0000000000000000E+00
   0.0000000000000000E+00
   0.0000000000000000E+00
  -0.2697843435371441E-05
   0.1297844341098953E-06
   0.7779117825857544E-06
   0.3853731954397158E-05
   0.2874323701276222E-05
  -0.4921612177502728E-05
   0.1721709702896604E-05
   0.3671074286667585E-07
   0.5332836625155377E-06
   0.5298749666341275E-06
  -0.2302779377635935E-06
   0.1521260171986361E-05
   0.7906790275337631E-06
   0.1074629806315893E-06
   0.1331382621759274E-05
   0.8838325292610179E-06
   0.2414616193461524E-05
  -0.1267610335875053E-06
   0.2783331906217329E-07
   0.1708279994341297E-06
   0.0000000000000000E+00
   0.0000000000000000E+00
   0.0000000000000000E+00
   0.0000000000000000E+00
   0.5132114824332706E-06
   0.2834659445365312E-06
  -0.2545445243067021E-06
  -0.1981448535241873E-06
  -0.5161983570997341E-07
   0.3678317276983398E-06
   0.2213332260099074E-06
  -0.3328417609307300E-08
   0.2616295535807340E-06
   0.1543809458630593E-06
   0.1757396123819972E-06
   0.1508240178689785E-06
   0.1713051761152837E-06
  -0.8948441783134958E-07
  -0.3222499713045077E-07
  -0.8529774686196209E-07
   0.0000000000000000E+00
   0.0000000000000000E+00
   0.0000000000000000E+00
   0.7709125196041663E-07
  -0.6919328294168676E-07
   0.1350832759851515E-05
  -0.1001052781792887E-06
  -0.7130016537044389E-07
  -0.4005275227325583E-08
  -0.1342746944735674E-06
  -0.4109796782866819E-07
   0.5884243819197457E-05
   0.1021497948744141E-05
   0.1668689125502369E-06
   0.3706955062999819E-05
   0.1804376739591528E-06
   0.2457896588316726E-06
  -0.3736263157245058E-06
  -0.7483004415862125E-06
   0.0000000000000000E+00
   0.0000000000000000E+00
   0.0000000000000000E+00
   0.0000000000000000E+00
   0.0000000000000000E+00
   0.0000000000000000E+00
   0.0000000000000000E+00
   0.0000000000000000E+00
   0.0000000000000000E+00
   0.0000000000000000E+00
   0.0000000000000000E+00
   0.0000000000000000E+00
   0.0000000000000000E+00
   0.0000000000000000E+00
   0.0000000000000000E+00
   0.0000000000000000E+00
   0.0000000000000000E+00
   0.1355950832323686E-05
  -0.1215128099925557E-06
   0.7853077690197724E-06
   0.1329470699018938E-05
   0.4165294488095225E-06
   0.1642697841588919E-05
   0.3205159208116074E-05
  -0.2261269103170195E-06
   0.8244740047026008E-07
   0.8881613596890362E-08
   0.1722283977136742E-05
   0.3512338710344524E-05
   0.2500047052015562E-07
   0.9240067158881341E-06
   0.1971494051996779E-05
   0.1483329278577874E-05
   0.1137087236891106E-05
   0.1935638804095315E-05
   0.2488469339829549E-06
   0.1543175142272610E-06
   0.5250948621236997E-06
   0.1304557759947309E-05
   0.4326848185618494E-06
  -0.1310794850071785E-06
   0.1991771780330753E-06
  -0.2251297677643982E-06
  -0.5586352406680983E-06
   0.3779016137543750E-07
  -0.7177965773520965E-07
   0.7056720088329354E-05
   0.1146217064466170E-05
   0.2099731218307361E-05
   0.1853077881072952E-05
   0.6190129417684337E-05
   0.3376109164566513E-05
   0.2405670083264671E-05
  -0.7892540057606833E-07
   0.7214540384924754E-06
   0.7108940614916353E-06
   0.2646094697452517E-06
  -0.1627078098138445E-06
  -0.5365640933373921E-06
   0.6426701049523267E-06
  -0.5209973111738383E-06
  -0.2879833565395615E-06
   0.4087386357923638E-06
  -0.5521113591274044E-06
   0.6016929891829405E-06
  -0.3932790520199975E-05
   0.3692981923244166E-05
  -0.2100775965998805E-06
  -0.4140294273493283E-05
  -0.1834185019568474E-05
   0.1429258725360579E-05
   0.4336750417011749E-05
   0.3578680650893466E-05
   0.2038546405053655E-07
  -0.1417833856416267E-06
   0.2850779525347517E-06
   0.1410209551281250E-05
   0.1225981294151301E-05
   0.3941035185068916E-06
   0.4104843117458213E-05
  -0.1521935077655671E-06
  -0.1556011165667975E-06
   0.8817660241312875E-06
  -0.1026897864484781E-05
  -0.3406321955566377E-05
   0.4443088356764565E-06
SCALARS w double 1
LOOKUP_TABLE default
   0.7685607945279149E-05
   0.3832544062585180E-04
   0.8216749555949371E-05
  -0.6028615925143178E-05
  -0.1698837417372497E-04
  -0.3107438266787928E-04
  -0.6926839208336748E-04
  -0.4449477051735044E-04
  -0.2588613540138115E-04
  -0.2229498645559919E-05
   0.1180955615553266E-04
   0.2367543999539112E-04
   0.2365589715326599E-04
   0.3598319629201691E-04
   0.1230039573803653E-04
   0.1143593853427261E-04
   0.4307012096545154E-04
  -0.1562727795123853E-04
  -0.1468293261334293E-04
   0.4752900017031694E-04
   0.4600642252470329E-04
   0.2885032464342224E-04
   0.5721605151243019E-04
   0.2572908890061106E-04
  -0.2806562239590187E-04
   0.3551240724701198E-04
   0.1430574409153898E-04
   0.2762943688096287E-04
  -0.4421095896596013E-04
   0.4164263462587450E-04
   0.2362192849062520E-04
   0.5497681806182536E-04
   0.6925946845155372E-04
  -0.1153676367336544E-05
   0.7430601493729390E-05
   0.7296633378472131E-05
   0.3327779031482070E-05
   0.3287596620661009E-05
   0.3832186532890135E-05
   0.3905928984595126E-05
   0.2545866650148538E-05
   0.4093644774912475E-06
   0.1425775136559449E-06
   0.1238492717543467E-05
   0.1277168402476613E-04
   0.5081758849799066E-05
  -0.5524887030191122E-05
   0.3244185112718066E-05
   0.4910196441350017E-05
   0.2507992111559457E-05
   0.5287909810224199E-05
   0.4700960865944286E-05
   0.5732963193670514E-05
   0.4986984942158929E-05
   0.4320763322913861E-05
   0.4914008942490797E-05
   0.3911694912168509E-05
   0.1900297388750837E-04
   0.3868969646983880E-05
   0.7916045214291151E-05
   0.5422775864895805E-05
   0.3111713238547624E-05
   0.3011395031364402E-05
   0.3167587162359193E-05
   0.3312083269693931E-05
   0.8291725363287880E-05
   0.9637928894972089E-05
  -0.1199759520680921E-05
  -0.7148863789990634E-05
   0.7537065477046683E-05
   0.6879436671079953E-05
  -0.9132444976887121E-05
  -0.1722562373436028E-04
  -0.2681068771153815E-04
   0.2245950329382161E-05
   0.9114565878724284E-05
   0.7507008478714692E-05
   0.1153089495980533E-04
   0.1035295807512984E-04
   0.1011340750819095E-04
   0.6520677161857527E-05
   0.4437666369987178E-05
   0.8694280478617144E-05
   0.8376852790195327E-05
   0.1009827955986373E-04
   0.2638445824764081E-05
   0.2453980195224304E-05
   0.2357106091550122E-05
   0.2428463443666556E-05
   0.3932735112019586E-05
   0.3900484322126002E-05
   0.3488396748335151E-05
   0.3139822084007909E-05
   0.3802659475449985E-05
   0.3695190301576165E-05
   0.3422622101690308E-05
   0.3077601651132665E-05
   0.2915185561056036E-05
   0.3531113670823177E-05
   0.3872206819904265E-05
   0.3721661915591682E-05
   0.3916493170944112E-05
   0.3956221230428466E-05
   0.3819839262152315E-05
   0.3630009588277833E-05
   0.3994070428355418E-05
   0.3922888815718072E-05
   0.3704339993286370E-05
   0.6110909372454845E-05
   0.1662570863479707E-06
   0.8280100992894533E-07
   0.9020327741208520E-06
   0.1184248022117630E-04
   0.1318693263324564E-05
   0.7134207400320669E-06
   0.8731128548451216E-06
   0.1034104214611927E-05
   0.6206028694396075E-07
  -0.3978762890160566E-06
   0.1031937832714151E-04
  -0.1287307191698641E-05
   0.1265245074315744E-05
   0.9087645402825493E-07
   0.2151285353817719E-06
   0.5052863941521015E-06
  -0.4855000585297298E-06
  -0.1460784287139268E-06
   0.1978930236398997E-04
   0.5517515875578156E-05
   0.4676130844226501E-06
   0.3462736850495871E-05
   0.6278084766641874E-05
   0.3154151570978137E-05
   0.7342379444965012E-05
   0.4981325098860481E-05
   0.6576557108781801E-05
   0.5820447586076020E-05
   0.4857968278843330E-05
   0.6728432317927779E-05
   0.5931198476348618E-05
   0.1788105019625527E-04
   0.9254040870673955E-05
   0.1080796830343032E-04
   0.6622528932484659E-05
   0.7615406189123440E-05
   0.4960484263244738E-05
   0.5729119013679489E-05
   0.1057056200480558E-04
   0.4249173220193991E-05
   0.1031719836026670E-04
   0.1549336143888113E-04
   0.2059053201358176E-05
   0.4121375807847771E-05
   0.2581328948672435E-05
   0.8024105485734866E-05
   0.2252414370481284E-04
   0.4105004936532275E-05
   0.6066528676829643E-05
   0.9664203235568810E-05
   0.6274419894614654E-05
   0.6870732036484126E-05
   0.8615310524348679E-05
   0.4953788535230115E-05
   0.4471478092897036E-05
   0.4681574792696752E-05
   0.9775867055332201E-05
   0.7369647220179732E-05
   0.3311153949169818E-05
   0.5276153116113233E-05
   0.8461934704521869E-05
   0.1512299765239582E-04
   0.3487772027170959E-05
   0.2925090115747079E-05
   0.3384357363509145E-04
   0.3621154577932934E-04
   0.1697451793173582E-04
   0.7834288785447107E-05
   0.1922762330799148E-04
   0.1194353161623086E-04
   0.2796091546665666E-04
   0.9157418399942324E-05
   0.2347478189928199E-04
   0.5989703428074229E-05
   0.4477596437876526E-05
   0.1070000388156392E-04
   0.7353795695508992E-05
   0.5239361513709382E-05
   0.8225818075360224E-05
   0.7407790247994766E-05
   0.7419402121663636E-05
   0.7729157641185614E-05
   0.2773000720128870E-05
  -0.1037940272738345E-04
   0.1101909199504283E-04
   0.1069714515497992E-04
   0.3497685481071626E-04
   0.1236544680526086E-04
   0.7358466320411204E-05
  -0.2240382901276882E-05
   0.5898154074525668E-05
   0.4494554835705512E-05
   0.4375986126954916E-05
   0.5757870619555891E-05
   0.7786151279841111E-05
   0.6849676035730475E-05
  -0.1631809411065995E-04
   0.1723619614301536E-05
   0.5032171011644570E-05
   0.5493172316395579E-05
   0.6023861457967095E-05
   0.9086811084703482E-05
   0.2159158941357122E-04
   0.2316745953786324E-04
SCALARS p double 1
LOOKUP_TABLE default
   0.1000044138712877E+01
   0.1000034468889855E+01
   0.9999568898767880E+00
   0.1000002249413409E+01
   0.1000031376728190E+01
   0.1000047123378532E+01
   0.9999805013232802E+00
   0.1000005841657278E+01
   0.1000011085472165E+01
   0.1000008836648860E+01
   0.9999917302062278E+00
   0.9999914059659122E+00
   0.1000084167816193E+01
   0.1000114968796990E+01
   0.1000079769801652E+01
   0.1000052721153229E+01
   0.1000083797459531E+01
   0.9999771994737001E+00
   0.9999789430464634E+00
   0.1000054241380240E+01
   0.1000049890457169E+01
   0.1000044263632974E+01
   0.1000042313793648E+01
   0.9999916957223859E+00
   0.9999378598495667E+00
   0.9999874114109254E+00
   0.9999952502077468E+00
   0.9999809531191444E+00
   0.9999277877859528E+00
   0.1000010103355621E+01
   0.9999786514318306E+00
   0.1000021881212176E+01
   0.1000030978320626E+01
   0.1000020455899497E+01
   0.1000014124037697E+01
   0.1000010871817717E+01
   0.1000009120347162E+01
   0.1000012241976262E+01
   0.1000014516036053E+01
   0.1000014932264835E+01
   0.1000013208788705E+01
   0.1000016704469089E+01
   0.1000021952503440E+01
   0.1000033718366321E+01
   0.1000027776567664E+01
   0.1000011754180621E+01
   0.1000011865445480E+01
   0.1000016332208996E+01
   0.1000018587738796E+01
   0.1000018932983032E+01
   0.1000019834404032E+01
   0.1000015731939174E+01
   0.1000013089280591E+01
   0.1000014214107971E+01
   0.1000013877854502E+01
   0.1000012619032701E+01
   0.1000012890469878E+01
   0.1000010615697806E+01
   0.1000008635080698E+01
   0.1000017131027944E+01
   0.1000015490637502E+01
   0.1000008905407950E+01
   0.1000008946171139E+01
   0.1000008676349167E+01
   0.1000009727132613E+01
   0.1000011206683232E+01
   0.1000015809494564E+01
   0.1000022275175197E+01
   0.1000020994294308E+01
   0.1000009537779478E+01
   0.1000009715530985E+01
   0.1000026772622049E+01
   0.1000040895884668E+01
   0.1000037899430269E+01
   0.1000013097880104E+01
   0.1000018548376650E+01
   0.1000009118637550E+01
   0.1000014546939096E+01
   0.1000013676662271E+01
   0.1000011280607896E+01
   0.1000008978327980E+01
   0.1000017660591312E+01
   0.1000012859821802E+01
   0.1000020947388785E+01
   0.1000014434272352E+01
   0.1000012848399426E+01
   0.1000012806802951E+01
   0.1000013056592436E+01
   0.1000013379085122E+01
   0.1000015523253138E+01
   0.1000014942716328E+01
   0.1000012696991705E+01
   0.1000011748329270E+01
   0.1000014346393445E+01
   0.1000014353058268E+01
   0.1000012179738991E+01
   0.1000012228327870E+01
   0.1000011382124206E+01
   0.1000013818449141E+01
   0.1000014584856049E+01
   0.1000013684078084E+01
   0.1000015729354742E+01
   0.1000015550618037E+01
   0.1000013910184591E+01
   0.1000013455347921E+01
   0.1000014781581412E+01
   0.1000015288136172E+01
   0.1000014339933845E+01
   0.1000039532743176E+01
   0.1000023259289094E+01
   0.1000017298173861E+01
   0.1000015586158955E+01
   0.1000043239974936E+01
   0.1000037997679502E+01
   0.1000016456935134E+01
   0.1000016131995024E+01
   0.1000015253621030E+01
   0.1000019596068395E+01
   0.1000020785494313E+01
   0.1000048293677863E+01
   0.1000030856108957E+01
   0.1000030522585108E+01
   0.1000037953751161E+01