title="tecplot geometry and solution file"
variables = x y z u v w p
zone t="boundary 1 bc-1", solutiontime= 0.1000000E+02, strandid=1001, i=32, j=46, f=feblock
 -0.547422452797E-02  0.000000000000E+00 -0.567510116376E-02  0.000000000000E+00  0.000000000000E+00  0.000000000000E+00 -0.525112568594E-02
 -0.425678988024E-02  0.000000000000E+00  0.000000000000E+00  0.000000000000E+00  0.000000000000E+00  0.000000000000E+00  0.000000000000E+00
  0.000000000000E+00  0.000000000000E+00 -0.338346965266E-02  0.000000000000E+00  0.000000000000E+00  0.000000000000E+00  0.000000000000E+00
  0.000000000000E+00  0.000000000000E+00  0.000000000000E+00  0.000000000000E+00  0.000000000000E+00  0.000000000000E+00  0.000000000000E+00
  0.000000000000E+00  0.000000000000E+00  0.000000000000E+00  0.000000000000E+00
  0.250494212640E+01  0.250494212640E+01  0.127822224354E+01  0.146289271009E+01  0.157686156160E+01  0.308372018325E+00  0.261960149623E-01
 -0.122573417300E+01 -0.600232012419E+00  0.250494212640E+01  0.477386199275E+00  0.742988685424E+00 -0.739814786992E+00  0.177790177481E+01
  0.155830813274E+01  0.250494212640E+01 -0.249658889499E+01 -0.154800130438E+01 -0.487811078581E+00  0.250494212640E+01  0.627766083140E+00
 -0.345533899378E+00 -0.178862290564E+01 -0.158811787973E+01  0.125000000000E+01 -0.249658889499E+01 -0.144524380962E+01  0.000000000000E+00
 -0.125000000000E+01 -0.249658889499E+01 -0.249658889499E+01 -0.249658889499E+01
  0.808216347971E-04  0.125000000000E+01  0.832204850122E-04  0.103724302461E+01  0.219251206392E+01  0.922061490191E+00  0.104377853422E-03
  0.351876378142E-04  0.715990576545E+00  0.250000000000E+01  0.202479342020E+01  0.324151231464E+01  0.175434191980E+01  0.310152362409E+01
  0.404200324774E+01  0.375000000000E+01  0.816362594897E-04  0.930412228790E+00  0.299062775774E+01  0.500000000000E+01  0.429310310915E+01
  0.409252726285E+01  0.187029682677E+01  0.284428995242E+01  0.500000000000E+01  0.125000000000E+01  0.394624082883E+01  0.500000000000E+01
  0.500000000000E+01  0.250000000000E+01  0.375000000000E+01  0.500000000000E+01
  0.999981304753E+00  0.999992443129E+00  0.999983720832E+00  0.999989689509E+00  0.999994363133E+00  0.999988020580E+00  0.999988635280E+00
  0.999992282121E+00  0.999987740730E+00  0.999995323272E+00  0.999993556750E+00  0.999995910671E+00  0.999991711335E+00  0.999996029692E+00
  0.999996580992E+00  0.999996587198E+00  0.999993858062E+00  0.999986940088E+00  0.999995217361E+00  0.999996922639E+00  0.999996863046E+00
  0.999996650935E+00  0.999994158601E+00  0.999994606733E+00  0.999997231569E+00  0.999991900009E+00  0.999996322683E+00  0.999997267141E+00
  0.999997100988E+00  0.999994912689E+00  0.999996268764E+00  0.999996812505E+00
  0.000000000000E+00  0.000000000000E+00  0.181962522158E-05  0.132779470146E-05  0.233732240110E-06  0.367046303830E-05  0.771898728226E-05
  0.140187277856E-06  0.585854937744E-05  0.000000000000E+00 -0.374769156752E-06 -0.134399949306E-06  0.102036997128E-05  0.175660709881E-06
  0.818846343269E-07  0.000000000000E+00  0.000000000000E+00 -0.786429231744E-07 -0.741407589492E-06  0.000000000000E+00  0.261333666621E-08
 -0.590910546167E-07  0.173463493232E-06 -0.272828165528E-07 -0.115774330767E-06  0.000000000000E+00 -0.881138232893E-07  0.340291923794E-07
  0.170686020536E-06  0.000000000000E+00  0.000000000000E+00  0.000000000000E+00
  0.768816466293E-05  0.124969396173E-05  0.113919906272E-04  0.132334839483E-05  0.525475174626E-06  0.444061170468E-07  0.122958411607E-04
  0.359198343490E-04  0.102893724016E-04  0.155029555007E-06 -0.504877640629E-06  0.612014269393E-07 -0.130129676559E-05  0.222404050670E-06
  0.938641735507E-06  0.426751192377E-06  0.237104220519E-04  0.118349318413E-04 -0.166714002976E-06  0.253787053228E-05  0.104587858757E-05
  0.880085892654E-06  0.126090003932E-05 -0.415035037817E-06  0.262744517883E-05  0.610565996875E-05  0.715117445204E-06  0.245036010112E-05
  0.235339968403E-05  0.154394093092E-06  0.724055959411E-07  0.242518512600E-05
  0.100004412771E+01  0.100003373436E+01  0.100005274626E+01  0.100003796656E+01  0.100002398141E+01  0.100003800378E+01  0.100007986706E+01
  0.100011511917E+01  0.100004833690E+01  0.100002197084E+01  0.100002753563E+01  0.100001958532E+01  0.100003083174E+01  0.100001955576E+01
  0.100001561348E+01  0.100001668345E+01  0.100008428588E+01  0.100004330608E+01  0.100002111723E+01  0.100001323510E+01  0.100001525500E+01
  0.100001613307E+01  0.100003055217E+01  0.100002077935E+01  0.100001285513E+01  0.100003954397E+01  0.100001644986E+01  0.100001280703E+01
  0.100001305323E+01  0.100002326407E+01  0.100001729118E+01  0.100001335982E+01
        12        19        11        11
        11         5        12        12
        10        14         5         5
        19        13        11        11
        19        24        13        13
        30        23        24        24
        19        12        22        22
        28        22        21        21
        11        13         6         6
         7         6         9         9
        15        12        14        14
        18        13        23        23
        15        25        21        21
        27        19        22        22
        18         8         9         9
        27        31        24        24
         4        11         6         6
         5        14        12        12
         4         2         5         5
        21        12        15        15
        14        16        15        15
        24        19        27        27
        22        29        27        27
        23        26        18        18
        17         8        18        18
         5        11         4         4
         6         3         4         4
        26        23        30        30
         5         2        10        10
        16        14        10        10
         3         6         7         7
        21        25        28        28
        29        22        28        28
         6        13         9         9
         2         4         1         1
        31        27        32        32
        25        15        20        20
        24        23        13        13
         8         7         9         9
        13        18         9         9
        31        30        24        24
        12        21        22        22
        29        32        27        27
         3         1         4         4
        26        17        18        18
        16        20        15        15
zone t="boundary 2 bc-2", solutiontime= 0.1000000E+02, strandid=1002, i=33, j=48, f=feblock
  0.500195305313E+01  0.375034912201E+01  0.249861196354E+01  0.288036736122E+01  0.124717626151E+01  0.190856778359E+01  0.326577225489E+01
  0.201394899013E+01 -0.338346965266E-02  0.962374705947E+00  0.500000000000E+01  0.403430242702E+01  0.423029585420E+01  0.500000000000E+01
  0.385439203165E+01  0.500000000000E+01  0.398133438873E+01  0.315200091180E+01  0.266958048114E+01  0.154798041552E+01  0.218327865435E+01
  0.893688581177E+00  0.000000000000E+00  0.699009801025E+00  0.964460914346E+00  0.310303675842E+01  0.000000000000E+00  0.000000000000E+00
  0.125000000000E+01  0.500000000000E+01  0.375000000000E+01  0.250000000000E+01  0.000000000000E+00
 -0.249658889499E+01 -0.249658889499E+01 -0.249658889499E+01 -0.249658889499E+01 -0.249658889499E+01 -0.249658889499E+01 -0.249658889499E+01
 -0.249658889499E+01 -0.249658889499E+01 -0.249658889499E+01 -0.249658889499E+01 -0.249658889499E+01 -0.249658889499E+01 -0.249658889499E+01
 -0.249658889499E+01 -0.249658889499E+01 -0.249658889499E+01 -0.249658889499E+01 -0.249658889499E+01 -0.249658889499E+01 -0.249658889499E+01
 -0.249658889499E+01 -0.249658889499E+01 -0.249658889499E+01 -0.249658889499E+01 -0.249658889499E+01 -0.249658889499E+01 -0.249658889499E+01
 -0.249658889499E+01 -0.249658889499E+01 -0.249658889499E+01 -0.249658889499E+01 -0.249658889499E+01
  0.108709239128E-03  0.146875489451E-03  0.101409958811E-03  0.901663848140E+00  0.111895829221E-03  0.714929135900E+00  0.188140686188E+01
  0.175892218341E+01  0.816362594897E-04  0.957504934714E+00  0.125000000000E+01  0.100596744181E+01  0.191313547189E+01  0.250000000000E+01
  0.292898120965E+01  0.375000000000E+01  0.406883379957E+01  0.363389309168E+01  0.284756893463E+01  0.292582332356E+01  0.395754068714E+01
  0.205027285783E+01  0.125000000000E+01  0.306703284159E+01  0.397155773791E+01  0.433068631588E+01  0.250000000000E+01  0.375000000000E+01
  0.500000000000E+01  0.500000000000E+01  0.500000000000E+01  0.500000000000E+01  0.500000000000E+01
  0.100001969675E+01  0.100005526204E+01  0.100005291945E+01  0.100003524253E+01  0.100003654684E+01  0.100003318031E+01  0.100001405441E+01
  0.100000978810E+01  0.999993858062E+00  0.100000865265E+01  0.100001007689E+01  0.100002944301E+01  0.100001190159E+01  0.100000545522E+01
  0.100000310727E+01  0.100000283386E+01  0.999999745785E+00  0.999999288334E+00  0.100000194455E+01  0.999998009715E+00  0.999996804124E+00
  0.999998663432E+00  0.999991900009E+00  0.999996272644E+00  0.999996136207E+00  0.999997472367E+00  0.999994912689E+00  0.999996268764E+00
  0.999995037218E+00  0.100000197440E+01  0.999997566765E+00  0.999995409421E+00  0.999996812505E+00
  0.000000000000E+00  0.000000000000E+00  0.000000000000E+00  0.000000000000E+00  0.000000000000E+00  0.000000000000E+00  0.000000000000E+00
  0.000000000000E+00  0.000000000000E+00  0.000000000000E+00  0.000000000000E+00  0.000000000000E+00  0.000000000000E+00  0.000000000000E+00
  0.000000000000E+00  0.000000000000E+00  0.000000000000E+00  0.000000000000E+00  0.000000000000E+00  0.000000000000E+00  0.000000000000E+00
  0.000000000000E+00  0.000000000000E+00  0.000000000000E+00  0.000000000000E+00  0.000000000000E+00  0.000000000000E+00  0.000000000000E+00
  0.000000000000E+00  0.000000000000E+00  0.000000000000E+00  0.000000000000E+00  0.000000000000E+00
 -0.261295860884E-04 -0.222994414588E-05  0.118356325121E-04  0.927227176129E-05  0.237340638730E-04  0.179085570733E-04  0.673417987390E-05
  0.108433963108E-04  0.237104220519E-04  0.198198790112E-04 -0.135472556577E-05  0.490445666592E-06  0.590741206980E-05  0.968628134484E-05
  0.652045250708E-05  0.837711220126E-05  0.544942997019E-05  0.576911586814E-05  0.660716706229E-05  0.631001685231E-05  0.497407211069E-05
  0.735713657242E-05  0.610565996875E-05  0.316019343700E-05  0.347914864906E-05  0.482470443113E-05  0.154394093092E-06  0.724055959411E-07
  0.395603740653E-05  0.328947981225E-05  0.348688741218E-05  0.391243142401E-05  0.242518512600E-05
  0.100001102858E+01  0.100000870637E+01  0.999991721239E+00  0.100000874323E+01  0.999991341470E+00  0.100001198337E+01  0.100001127548E+01
  0.100001741687E+01  0.100008428588E+01  0.100002671937E+01  0.100002226420E+01  0.100001255620E+01  0.100001549031E+01  0.100001582000E+01
  0.100001405886E+01  0.100001122119E+01  0.100001243758E+01  0.100001458133E+01  0.100001662124E+01  0.100001821089E+01  0.100001600315E+01
  0.100002349954E+01  0.100003954397E+01  0.100002045885E+01  0.100001698024E+01  0.100001420710E+01  0.100002326407E+01  0.100001729118E+01
  0.100001551855E+01  0.100000969956E+01  0.100001267884E+01  0.100001499871E+01  0.100001335982E+01
        15         7        19        19
         8        20        19        19
        18        19        21        21
         7         4         8         8
         3         6         4         4
        19         7         8         8
        19        18        15        15
        14        13        15        15
         8        22        20        20
        27        24        22        22
        19        20        21        21
        32        26        21        21
        17        18        26        26
        17        16        15        15
        25        29        21        21
        12         7        13        13
        10         8         6         6
        25        20        24        24
         4         6         8         8
        12         2         4         4
        10        23        22        22
        26        31        17        17
        30        16        17        17
         4         7        12        12
        13        11        12        12
        21        20        25        25
        24        28        25        25
        22         8        10        10
         6         5        10        10
        31        26        32        32
         4         2         3         3
         5         6         3         3
        11        13        14        14
        22        23        27        27
        28        24        27        27
        15        13         7         7
         2        12         1         1
        29        25        33        33
        23        10         9         9
        21        26        18        18
        16        14        15        15
        18        17        15        15
        29        32        21        21
        22        24        20        20
        28        33        25        25
        11         1        12        12
        31        30        17        17
         5         9        10        10
zone t="boundary 3 bc-3", solutiontime= 0.1000000E+02, strandid=1003, i=33, j=48, f=feblock
  0.375059200022E+01  0.249769659016E+01  0.500322189356E+01  0.403612276075E+01  0.287976836252E+01  0.124542007693E+01  0.190552302484E+01
  0.500000000000E+01  0.326671142352E+01  0.423253781876E+01  0.201271174245E+01 -0.547422452797E-02  0.958896036989E+00  0.500000000000E+01
  0.266968167030E+01  0.385584505517E+01  0.890374290244E+00  0.154654022522E+01  0.000000000000E+00  0.500000000000E+01  0.315261148394E+01
  0.218304203878E+01  0.398195315244E+01  0.000000000000E+00  0.697379959015E+00  0.963757272111E+00  0.125000000000E+01  0.000000000000E+00
  0.500000000000E+01  0.310330743906E+01  0.250000000000E+01  0.375000000000E+01  0.000000000000E+00
  0.250494212640E+01  0.250494212640E+01  0.250494212640E+01  0.250494212640E+01  0.250494212640E+01  0.250494212640E+01  0.250494212640E+01
  0.250494212640E+01  0.250494212640E+01  0.250494212640E+01  0.250494212640E+01  0.250494212640E+01  0.250494212640E+01  0.250494212640E+01
  0.250494212640E+01  0.250494212640E+01  0.250494212640E+01  0.250494212640E+01  0.250494212640E+01  0.250494212640E+01  0.250494212640E+01
  0.250494212640E+01  0.250494212640E+01  0.250494212640E+01  0.250494212640E+01  0.250494212640E+01  0.250494212640E+01  0.250494212640E+01
  0.250494212640E+01  0.250494212640E+01  0.250494212640E+01  0.250494212640E+01  0.250494212640E+01
  0.136456946355E-03  0.110483581104E-03  0.969506230659E-04  0.101756821122E+01  0.908095280084E+00  0.104842340633E-03  0.722629906006E+00
  0.125000000000E+01  0.188965717329E+01  0.191862733215E+01  0.176708303765E+01  0.808216347971E-04  0.969653363471E+00  0.250000000000E+01
  0.285339477236E+01  0.293325090919E+01  0.205656265138E+01  0.293157054660E+01  0.125000000000E+01  0.375000000000E+01  0.363766866043E+01
  0.396069465963E+01  0.407056399431E+01  0.250000000000E+01  0.307032015181E+01  0.397359832590E+01  0.500000000000E+01  0.375000000000E+01
  0.500000000000E+01  0.433260795380E+01  0.500000000000E+01  0.500000000000E+01  0.500000000000E+01
  0.100004889187E+01  0.100005889926E+01  0.100001460342E+01  0.100002432190E+01  0.100003419154E+01  0.100002761810E+01  0.100002687117E+01
  0.100000854172E+01  0.100001280126E+01  0.100001050511E+01  0.100000711417E+01  0.999981304753E+00  0.100000107007E+01  0.100000515181E+01
  0.100000088859E+01  0.100000284082E+01  0.999997870933E+00  0.999997676804E+00  0.999992443129E+00  0.100000278606E+01  0.999998632831E+00
  0.999996619132E+00  0.999999394763E+00  0.999995323272E+00  0.999996453475E+00  0.999996156827E+00  0.999995252216E+00  0.999996587198E+00
  0.100000185726E+01  0.999997088041E+00  0.999995572889E+00  0.999997172121E+00  0.999996922639E+00
  0.000000000000E+00  0.000000000000E+00  0.000000000000E+00  0.000000000000E+00  0.000000000000E+00  0.000000000000E+00  0.000000000000E+00
  0.000000000000E+00  0.000000000000E+00  0.000000000000E+00  0.000000000000E+00  0.000000000000E+00  0.000000000000E+00  0.000000000000E+00
  0.000000000000E+00  0.000000000000E+00  0.000000000000E+00  0.000000000000E+00  0.000000000000E+00  0.000000000000E+00  0.000000000000E+00
  0.000000000000E+00  0.000000000000E+00  0.000000000000E+00  0.000000000000E+00  0.000000000000E+00  0.000000000000E+00  0.000000000000E+00
  0.000000000000E+00  0.000000000000E+00  0.000000000000E+00  0.000000000000E+00  0.000000000000E+00
 -0.603193205975E-05  0.833184396464E-05 -0.171805476857E-04 -0.545675287714E-05  0.390596418186E-05  0.383544373048E-04  0.190313985787E-04
 -0.111663647297E-05  0.488412442992E-05  0.395933717603E-05  0.788904114833E-05  0.768816466293E-05  0.127854276348E-04  0.756059162661E-05
  0.537768454890E-05  0.564559886123E-05  0.530890519740E-05  0.494809926374E-05  0.124969396173E-05  0.734527055809E-05  0.491558564027E-05
  0.471837623366E-05  0.498950761500E-05  0.155029555007E-06  0.254365879106E-05  0.328316397934E-05  0.392993250566E-05  0.426751192377E-06
  0.329930640009E-05  0.425626688916E-05  0.385050126724E-05  0.326996297996E-05  0.253787053228E-05
  0.100000228714E+01  0.999956842656E+00  0.100003137251E+01  0.100001181926E+01  0.100000877466E+01  0.100003452895E+01  0.100001063396E+01
  0.100002041677E+01  0.100001267267E+01  0.100001300157E+01  0.100001713578E+01  0.100004412771E+01  0.100002782603E+01  0.100001409042E+01
  0.100001551390E+01  0.100001305663E+01  0.100001985454E+01  0.100001859015E+01  0.100003373436E+01  0.100001087510E+01  0.100001418613E+01
  0.100001573509E+01  0.100001169932E+01  0.100002197084E+01  0.100001895756E+01  0.100001633886E+01  0.100001491010E+01  0.100001668345E+01
  0.100000904569E+01  0.100001385001E+01  0.100001452202E+01  0.100001217423E+01  0.100001323510E+01
        15         9        16        16
        15        18        11        11
        22        15        21        21
        11         5         9         9
         5         7         2         2
        11         9        15        15
        16        21        15        15
        16        10        14        14
        18        17        11        11
        17        25        24        24
        22        18        15        15
        22        30        31        31
        30        21        23        23
        16        20        23        23
        22        27        26        26
        10         9         4         4
         7        11        13        13
        25        18        26        26
        11         7         5         5
         5         1         4         4
        17        19        13        13
        23        32        30        30
        23        20        29        29
         4         9         5         5
         4         8        10        10
        26        18        22        22
        26        28        25        25
        13        11        17        17
        13         6         7         7
        31        30        32        32
         2         1         5         5
         2         7         6         6
        14        10         8         8
        24        19        17        17
        24        25        28        28
         9        10        16        16
         3         4         1         1
        33        26        27        27
        12        13        19        19
        21        30        22        22
        16        14        20        20
        16        23        21        21
        22        31        27        27
        18        25        17        17
        26        33        28        28
         4         3         8         8
        23        29        32        32
        13        12         6         6
zone t="boundary 4 bc-4", solutiontime= 0.1000000E+02, strandid=1004, i=32, j=46, f=feblock
  0.125000000000E+01  0.219251206392E+01  0.103724302461E+01  0.500000000000E+01  0.250000000000E+01  0.375000000000E+01  0.404200324774E+01
  0.500000000000E+01  0.000000000000E+00  0.310152362409E+01  0.202479342020E+01  0.324151231464E+01  0.922061490191E+00  0.000000000000E+00
  0.299062775774E+01  0.394624082883E+01  0.500000000000E+01  0.409252726285E+01  0.500000000000E+01  0.429310310915E+01  0.175434191980E+01
  0.284428995242E+01  0.000000000000E+00  0.000000000000E+00  0.715990576545E+00  0.930412228790E+00  0.125000000000E+01  0.187029682677E+01
  0.500000000000E+01  0.375000000000E+01  0.250000000000E+01  0.000000000000E+00
  0.250494212640E+01  0.157686156160E+01  0.146289271009E+01  0.250494212640E+01  0.250494212640E+01  0.250494212640E+01  0.155830813274E+01
  0.125000000000E+01  0.250494212640E+01  0.177790177481E+01  0.477386199275E+00  0.742988685424E+00  0.308372018325E+00  0.125000000000E+01
 -0.487811078581E+00 -0.144524380962E+01 -0.125000000000E+01 -0.345533899378E+00  0.000000000000E+00  0.627766083140E+00 -0.739814786992E+00
 -0.158811787973E+01  0.000000000000E+00 -0.125000000000E+01 -0.600232012419E+00 -0.154800130438E+01 -0.249658889499E+01 -0.178862290564E+01
 -0.249658889499E+01 -0.249658889499E+01 -0.249658889499E+01 -0.249658889499E+01
  0.500000000000E+01  0.500000000000E+01  0.500000000000E+01  0.500000000000E+01  0.500000000000E+01  0.500000000000E+01  0.500000000000E+01
  0.500000000000E+01  0.500000000000E+01  0.500000000000E+01  0.500000000000E+01  0.500000000000E+01  0.500000000000E+01  0.500000000000E+01
  0.500000000000E+01  0.500000000000E+01  0.500000000000E+01  0.500000000000E+01  0.500000000000E+01  0.500000000000E+01  0.500000000000E+01
  0.500000000000E+01  0.500000000000E+01  0.500000000000E+01  0.500000000000E+01  0.500000000000E+01  0.500000000000E+01  0.500000000000E+01
  0.500000000000E+01  0.500000000000E+01  0.500000000000E+01  0.500000000000E+01
  0.999995252216E+00  0.999995218957E+00  0.999995457581E+00  0.100000185726E+01  0.999995572889E+00  0.999997172121E+00  0.999997794115E+00
  0.100000206016E+01  0.999996922639E+00  0.999995935123E+00  0.999994858093E+00  0.999995797820E+00  0.999995673476E+00  0.999997231569E+00
  0.999995648635E+00  0.999997883355E+00  0.100000178542E+01  0.999998093964E+00  0.100000210662E+01  0.999998738455E+00  0.999994901800E+00
  0.999995726624E+00  0.999997267141E+00  0.999997100988E+00  0.999995925512E+00  0.999995468863E+00  0.999995037218E+00  0.999994963408E+00
  0.100000197440E+01  0.999997566765E+00  0.999995409421E+00  0.999996812505E+00
  0.000000000000E+00 -0.973794807883E-07 -0.238137056371E-06  0.000000000000E+00  0.000000000000E+00  0.000000000000E+00  0.542352801543E-06
  0.522217594268E-06  0.000000000000E+00  0.169122489351E-06 -0.428487543393E-07  0.202642536980E-06  0.157876564748E-06 -0.115774330767E-06
 -0.103221627593E-06 -0.236933675798E-06 -0.373241837322E-07 -0.977788711049E-07  0.135174406469E-06  0.367378809001E-06  0.152726566532E-06
 -0.260129113236E-07  0.340291923794E-07  0.170686020536E-06  0.265128128136E-06  0.286214500097E-06  0.000000000000E+00  0.174698940413E-06
  0.000000000000E+00  0.000000000000E+00  0.000000000000E+00  0.000000000000E+00
  0.392993250566E-05  0.401624690235E-05  0.372082693309E-05  0.329930640009E-05  0.385050126724E-05  0.326996297996E-05  0.309346810836E-05
  0.309208896939E-05  0.253787053228E-05  0.364174285195E-05  0.394110586782E-05  0.351937910391E-05  0.382167437394E-05  0.262744517883E-05
  0.371039039750E-05  0.339433778362E-05  0.315417576515E-05  0.305350684338E-05  0.299630918915E-05  0.288642104894E-05  0.393000739390E-05
  0.388233853546E-05  0.245036010112E-05  0.235339968403E-05  0.372077429334E-05  0.380997407078E-05  0.395603740653E-05  0.396990467561E-05
  0.328947981225E-05  0.348688741218E-05  0.391243142401E-05  0.242518512600E-05
  0.100001491010E+01  0.100001478718E+01  0.100001431664E+01  0.100000904569E+01  0.100001452202E+01  0.100001217423E+01  0.100001169697E+01
  0.100000880043E+01  0.100001323510E+01  0.100001343909E+01  0.100001530030E+01  0.100001382711E+01  0.100001390665E+01  0.100001285513E+01
  0.100001435599E+01  0.100001219160E+01  0.100000859319E+01  0.100001220348E+01  0.100000886820E+01  0.100001128411E+01  0.100001572919E+01
  0.100001462946E+01  0.100001280703E+01  0.100001305323E+01  0.100001368018E+01  0.100001434162E+01  0.100001551855E+01  0.100001558503E+01
  0.100000969956E+01  0.100001267884E+01  0.100001499871E+01  0.100001335982E+01
        12        15        11        11
        11         2        12        12
         5        10         2         2
        15        21        11        11
        15        22        21        21
        31        28        22        22
        15        12        18        18
        19        18        20        20
        11        21        13        13
        23        13        25        25
         7        12        10        10
        26        21        28        28
         7         8        20        20
        16        15        18        18
        26        24        25        25
        16        30        22        22
         3        11        13        13
         2        10        12        12
         3         1         2         2
        20        12         7         7
        10         6         7         7
        22        15        16        16
        18        17        16        16
        28        27        26        26
        32        24        26        26
         2        11         3         3
        13        14         3         3
        27        28        31        31
         2         1         5         5
         6        10         5         5
        14        13        23        23
        20         8        19        19
        17        18        19        19
        13        21        25        25
         1         3         9         9
        30        16        29        29
         8         7         4         4
        22        28        21        21
        24        23        25        25
        21        26        25        25
        30        31        22        22
        12        20        18        18
        17        29        16        16
        14         9         3         3
        27        32        26        26
         6         4         7         7
zone t="boundary 5 bc-5", solutiontime= 0.1000000E+02, strandid=1005, i=33, j=48, f=feblock
  0.500322189356E+01  0.500467775773E+01  0.500000000000E+01  0.500000000000E+01  0.500477323326E+01  0.500000000000E+01  0.500000000000E+01
  0.500000000000E+01  0.500000000000E+01  0.500000000000E+01  0.500358222183E+01  0.500000000000E+01  0.500000000000E+01  0.500000000000E+01
  0.500000000000E+01  0.500000000000E+01  0.500000000000E+01  0.500195305313E+01  0.500000000000E+01  0.500000000000E+01  0.500000000000E+01
  0.500000000000E+01  0.500000000000E+01  0.500000000000E+01  0.500000000000E+01  0.500000000000E+01  0.500000000000E+01  0.500000000000E+01
  0.500000000000E+01  0.500000000000E+01  0.500000000000E+01  0.500000000000E+01  0.500000000000E+01
  0.250494212640E+01  0.128129191501E+01  0.250494212640E+01  0.157899473280E+01  0.277519797371E-01  0.659350882208E+00  0.250494212640E+01
  0.173899611320E+01  0.825621401394E+00  0.132549389334E+01 -0.122585285812E+01 -0.322732261638E+00  0.250494212640E+01  0.490615021923E-01
 -0.873141960959E+00  0.350800286361E+00  0.145332269920E+01 -0.249658889499E+01 -0.147959633950E+01  0.250494212640E+01 -0.857924212153E+00
 -0.165007033378E+01  0.518568023061E+00 -0.461282870254E+00  0.125000000000E+01 -0.249658889499E+01 -0.183684615440E+01 -0.158398995423E+01
 -0.249658889499E+01 -0.249658889499E+01 -0.125000000000E+01  0.000000000000E+00 -0.249658889499E+01
  0.969506230659E-04  0.164622908933E-03  0.125000000000E+01  0.905837536509E+00  0.190723395890E-03  0.735450417037E+00  0.250000000000E+01
  0.182727219356E+01  0.162230260845E+01  0.280856328277E+01  0.161708614045E-03  0.109945440014E+01  0.375000000000E+01  0.227317933631E+01
  0.189599568386E+01  0.342819755379E+01  0.403384942830E+01  0.108709239128E-03  0.104050588738E+01  0.500000000000E+01  0.297954017413E+01
  0.214587157439E+01  0.430969386006E+01  0.408642231822E+01  0.500000000000E+01  0.125000000000E+01  0.304506426164E+01  0.398205049073E+01
  0.250000000000E+01  0.375000000000E+01  0.500000000000E+01  0.500000000000E+01  0.500000000000E+01
  0.100001460342E+01  0.100001088169E+01  0.100000854172E+01  0.100001141798E+01  0.100001408668E+01  0.100000949317E+01  0.100000515181E+01
  0.100000684907E+01  0.100000985175E+01  0.100000444825E+01  0.100001627358E+01  0.100000954240E+01  0.100000278606E+01  0.100000692130E+01
  0.100000896248E+01  0.100000323503E+01  0.100000261782E+01  0.100001969675E+01  0.100001203541E+01  0.100000185726E+01  0.100000440488E+01
  0.100000665179E+01  0.100000261921E+01  0.100000262342E+01  0.100000206016E+01  0.100001007689E+01  0.100000401601E+01  0.100000274010E+01
  0.100000545522E+01  0.100000283386E+01  0.100000178542E+01  0.100000210662E+01  0.100000197440E+01
  0.000000000000E+00 -0.154303313097E-04  0.000000000000E+00 -0.277556753004E-05 -0.373040872191E-05 -0.501169032779E-05  0.000000000000E+00
  0.590829776803E-07  0.165680544015E-05  0.133187225015E-05  0.132984463122E-04  0.290448759121E-05  0.000000000000E+00  0.243548260522E-05
  0.953381958627E-06  0.154709615642E-05  0.796688223668E-06  0.000000000000E+00  0.394810163682E-05  0.000000000000E+00  0.557554519076E-06
  0.883752500602E-07  0.802195519254E-06  0.533861038407E-06  0.522217594268E-06  0.000000000000E+00 -0.206443857569E-06  0.136985748880E-06
  0.000000000000E+00  0.000000000000E+00 -0.373241837322E-07  0.135174406469E-06  0.000000000000E+00