# vtk DataFile Version 2.0
FUN3D:global_image_vtk
ASCII
DATASET UNSTRUCTURED_GRID
POINTS 213 double
   -0.5474224527974540E-02    0.2504942126395249E+01    0.8082163479709895E-04
    0.1245420076927911E+01    0.2504942126395249E+01    0.1048423406333765E-03
    0.2497696590160995E+01    0.2504942126395249E+01    0.1104835811035909E-03
    0.3750592000219026E+01    0.2504942126395249E+01    0.1364569463548629E-03
    0.5003221893556912E+01    0.2504942126395249E+01    0.9695062306590338E-04
    0.5004677757729920E+01    0.1281291915009508E+01    0.1646229089325720E-03
    0.5004773233264879E+01    0.2775197973707508E-01    0.1907233958898124E-03
    0.5003582221826302E+01   -0.1225852858115238E+01    0.1617086140448261E-03
    0.5001953053134341E+01   -0.2496588894989582E+01    0.1087092391278554E-03
    0.3750349122005743E+01   -0.2496588894989582E+01    0.1468754894505549E-03
    0.2498611963539370E+01   -0.2496588894989582E+01    0.1014099588108474E-03
    0.1247176261509184E+01   -0.2496588894989582E+01    0.1118958292209706E-03
   -0.3383469652657670E-02   -0.2496588894989582E+01    0.8163625948969003E-04
   -0.4256789880244763E-02   -0.1225734173000734E+01    0.3518763781415400E-04
   -0.5251125685943451E-02    0.2619601496228425E-01    0.1043778534218642E-03
   -0.5675101163759894E-02    0.1278222243537384E+01    0.8322048501216414E-04
    0.9003214217916410E+00    0.1608980307793919E+01    0.8747981908401090E-04
    0.3983173228635223E+01   -0.1561211262265163E+01    0.1766748191494312E-03
    0.4035602579387200E+01    0.1486761266132127E+01    0.1716706614120918E-03
    0.1036614706197514E+01   -0.1455625787804053E+01    0.1057334496957496E-03
    0.1094353949885533E+01   -0.2964610398686504E+00    0.1265432266614888E-03
    0.7298409877475077E+00    0.6874691505187871E+00    0.1054287163688439E-03
    0.1617019123562922E+01    0.8553219978724499E+00    0.1534204508725086E-03
    0.2143200653243059E+01   -0.1627127869719470E+01    0.1616130186569427E-03
    0.4088840979724988E+01   -0.4351036111772547E+00    0.2724112872097730E-03
    0.2977917509313417E+01   -0.8334984944044713E+00    0.2255152481764069E-03
    0.3044093743998018E+01   -0.1814360085627647E+01    0.1621866746874130E-03
    0.3427867629114648E+01    0.3813911924771510E+00    0.2945982215774326E-03
    0.4313225907775387E+01    0.5489145452878156E+00    0.2316713278243556E-03
    0.1823033713305206E+01    0.1771265914472351E+01    0.1845256048548523E-03
    0.2806311649527161E+01    0.1358630605773757E+01    0.1947351430204180E-03
    0.1891861854168060E+01   -0.8481303814089863E+00    0.1680436315511798E-03
    0.2268769674863574E+01    0.7723810290791114E-01    0.2076744350430914E-03
    0.5000000000000000E+01    0.2504942126395249E+01    0.1250000000000000E+01
    0.5000000000000000E+01    0.2504942126395249E+01    0.2500000000000000E+01
    0.5000000000000000E+01    0.2504942126395249E+01    0.3750000000000000E+01
    0.5000000000000000E+01    0.2504942126395249E+01    0.5000000000000000E+01
    0.3750000000000000E+01    0.2504942126395249E+01    0.5000000000000000E+01
    0.2500000000000000E+01    0.2504942126395249E+01    0.5000000000000000E+01
    0.1250000000000000E+01    0.2504942126395249E+01    0.5000000000000000E+01
    0.0000000000000000E+00    0.2504942126395249E+01    0.5000000000000000E+01
    0.0000000000000000E+00    0.2504942126395249E+01    0.3750000000000000E+01
    0.0000000000000000E+00    0.2504942126395249E+01    0.2500000000000000E+01
    0.0000000000000000E+00    0.2504942126395249E+01    0.1250000000000000E+01
    0.9588960369888062E+00    0.2504942126395249E+01    0.9696533634708026E+00
    0.3981953152435456E+01    0.2504942126395249E+01    0.4070563994312796E+01
    0.4036122760749433E+01    0.2504942126395249E+01    0.1017568211218936E+01
    0.9637572721113067E+00    0.2504942126395249E+01    0.3973598325903540E+01
    0.1546540225216465E+01    0.2504942126395249E+01    0.2931570546603169E+01
    0.6973799590153456E+00    0.2504942126395249E+01    0.3070320151810756E+01
    0.8903742902441717E+00    0.2504942126395249E+01    0.2056562651378696E+01
    0.2183042038777829E+01    0.2504942126395249E+01    0.3960694659634120E+01
    0.3855845055166628E+01    0.2504942126395249E+01    0.2933250909190150E+01
    0.3152611483937385E+01    0.2504942126395249E+01    0.3637668660428782E+01
    0.3103307439056092E+01    0.2504942126395249E+01    0.4332607953804898E+01
    0.3266711423522338E+01    0.2504942126395249E+01    0.1889657173291478E+01
    0.4232537818756438E+01    0.2504942126395249E+01    0.1918627332151838E+01
    0.1905523024840067E+01    0.2504942126395249E+01    0.7226299060056601E+00
    0.2879768362524973E+01    0.2504942126395249E+01    0.9080952800841879E+00
    0.2012711742452714E+01    0.2504942126395249E+01    0.1767083037650773E+01
    0.2669681670297050E+01    0.2504942126395249E+01    0.2853394772361392E+01
    0.5000000000000000E+01    0.1250000000000000E+01    0.5000000000000000E+01
    0.5000000000000000E+01    0.0000000000000000E+00    0.5000000000000000E+01
    0.5000000000000000E+01   -0.1250000000000000E+01    0.5000000000000000E+01
    0.5000000000000000E+01   -0.2496588894989582E+01    0.5000000000000000E+01
    0.5000000000000000E+01   -0.2496588894989582E+01    0.3750000000000000E+01
    0.5000000000000000E+01   -0.2496588894989582E+01    0.2500000000000000E+01
    0.5000000000000000E+01   -0.2496588894989582E+01    0.1250000000000000E+01
    0.5000000000000000E+01    0.1578994732800803E+01    0.9058375365086910E+00
    0.5000000000000000E+01   -0.1583989954232354E+01    0.3982050490726493E+01
    0.5000000000000000E+01    0.1453322699199022E+01    0.4033849428301197E+01
    0.5000000000000000E+01   -0.1479596339503735E+01    0.1040505887381675E+01
    0.5000000000000000E+01   -0.3227322616384110E+00    0.1099454400140349E+01
    0.5000000000000000E+01    0.6593508822075582E+00    0.7354504170366591E+00
    0.5000000000000000E+01    0.8256214013940779E+00    0.1622302608453282E+01
    0.5000000000000000E+01   -0.1650070333782557E+01    0.2145871574390382E+01
    0.5000000000000000E+01   -0.4612828702537229E+00    0.4086422318222992E+01
    0.5000000000000000E+01   -0.8579242121530853E+00    0.2979540174134984E+01
    0.5000000000000000E+01   -0.1836846154397680E+01    0.3045064261640043E+01
    0.5000000000000000E+01    0.3508002863614053E+00    0.3428197553792836E+01
    0.5000000000000000E+01    0.5185680230613409E+00    0.4309693860063405E+01
    0.5000000000000000E+01    0.1738996113203182E+01    0.1827272193562204E+01
    0.5000000000000000E+01    0.1325493893339706E+01    0.2808563282768077E+01
    0.5000000000000000E+01   -0.8731419609589618E+00    0.1895995683864404E+01
    0.5000000000000000E+01    0.4906150219227333E-01    0.2273179336307740E+01
    0.0000000000000000E+00    0.1250000000000000E+01    0.5000000000000000E+01
    0.0000000000000000E+00    0.0000000000000000E+00    0.5000000000000000E+01
    0.0000000000000000E+00   -0.1250000000000000E+01    0.5000000000000000E+01
    0.0000000000000000E+00   -0.2496588894989582E+01    0.5000000000000000E+01
    0.1250000000000000E+01   -0.2496588894989582E+01    0.5000000000000000E+01
    0.2500000000000000E+01   -0.2496588894989582E+01    0.5000000000000000E+01
    0.3750000000000000E+01   -0.2496588894989582E+01    0.5000000000000000E+01
    0.4042003247744892E+01    0.1558308132739014E+01    0.5000000000000000E+01
    0.9304122287900499E+00   -0.1548001304379777E+01    0.5000000000000000E+01
    0.1037243024609388E+01    0.1462892710085612E+01    0.5000000000000000E+01
    0.3946240828834967E+01   -0.1445243809615570E+01    0.5000000000000000E+01
    0.4092527262848217E+01   -0.3455338993778935E+00    0.5000000000000000E+01
    0.4293103109154542E+01    0.6277660831404320E+00    0.5000000000000000E+01
    0.3241512314643519E+01    0.7429886854239611E+00    0.5000000000000000E+01
    0.2844289952419609E+01   -0.1588117879734118E+01    0.5000000000000000E+01
    0.7159905765450471E+00   -0.6002320124191652E+00    0.5000000000000000E+01
    0.1754341919796891E+01   -0.7398147869923652E+00    0.5000000000000000E+01
    0.1870296826774691E+01   -0.1788622905643739E+01    0.5000000000000000E+01
    0.9220614901912976E+00    0.3083720183248586E+00    0.5000000000000000E+01
    0.3101523624086016E+01    0.1777901774806180E+01    0.5000000000000000E+01
    0.2192512063922564E+01    0.1576861561598471E+01    0.5000000000000000E+01
    0.2024793420196460E+01    0.4773861992750707E+00    0.5000000000000000E+01
    0.2990627757741975E+01   -0.4878110785814084E+00    0.5000000000000000E+01
    0.0000000000000000E+00   -0.2496588894989582E+01    0.1250000000000000E+01
    0.0000000000000000E+00   -0.2496588894989582E+01    0.2500000000000000E+01
    0.0000000000000000E+00   -0.2496588894989582E+01    0.3750000000000000E+01
    0.0000000000000000E+00    0.1558308132739014E+01    0.4042003247744892E+01
    0.0000000000000000E+00   -0.1548001304379777E+01    0.9304122287900499E+00
    0.0000000000000000E+00    0.1462892710085612E+01    0.1037243024609388E+01
    0.0000000000000000E+00   -0.1445243809615570E+01    0.3946240828834967E+01
    0.0000000000000000E+00   -0.3455338993778935E+00    0.4092527262848217E+01
    0.0000000000000000E+00    0.6277660831404320E+00    0.4293103109154542E+01
    0.0000000000000000E+00    0.7429886854239611E+00    0.3241512314643519E+01
    0.0000000000000000E+00   -0.1588117879734118E+01    0.2844289952419609E+01
    0.0000000000000000E+00   -0.6002320124191652E+00    0.7159905765450471E+00
    0.0000000000000000E+00   -0.7398147869923652E+00    0.1754341919796891E+01
    0.0000000000000000E+00   -0.1788622905643739E+01    0.1870296826774691E+01
    0.0000000000000000E+00    0.3083720183248586E+00    0.9220614901912976E+00
    0.0000000000000000E+00    0.1777901774806180E+01    0.3101523624086016E+01
    0.0000000000000000E+00    0.1576861561598471E+01    0.2192512063922564E+01
[...]
POINT_DATA 213
SCALARS u double 1
LOOKUP_TABLE default
   0.9999813284806991E+00
   0.1000027640386536E+01
   0.1000058943815783E+01
   0.1000048926558176E+01
   0.1000014643251800E+01
   0.1000011000779157E+01
   0.1000014249020861E+01
   0.1000016438023791E+01
   0.1000019833407673E+01
   0.1000055557522403E+01
   0.1000053079620575E+01
   0.1000036537229192E+01
   0.9999937857795118E+00
   0.9999922461177209E+00
   0.9999886171291775E+00
   0.9999837433278759E+00
   0.1000009964729239E+01
   0.1000062909640569E+01
   0.1000053208607993E+01
   0.1000034742336059E+01
   0.1000020883228627E+01
   0.1000002606893707E+01
   0.1000037834024485E+01
   0.1000057340999427E+01
   0.1000066632340205E+01
   0.1000076968625837E+01
   0.1000065297006351E+01
   0.1000081079953127E+01
   0.1000056211166900E+01
   0.1000050763658841E+01
   0.1000061518266268E+01
   0.1000052592782563E+01
   0.1000063322625016E+01
   0.1000008452605721E+01
   0.1000005120143199E+01
   0.1000002810293862E+01
   0.1000001898996959E+01
   0.9999972108519846E+00
   0.9999954332038822E+00
   0.9999951251361938E+00
   0.9999969053911139E+00
   0.9999965869278311E+00
   0.9999953177499810E+00
   0.9999924367169023E+00
   0.1000001110751010E+01
   0.9999994244376155E+00
   0.1000024128521089E+01
   0.9999961478323548E+00
   0.9999977223263543E+00
   0.9999964670282959E+00
   0.9999978962834051E+00
   0.9999966118682344E+00
   0.1000002926223734E+01
   0.9999986850010353E+00
   0.9999970693124277E+00
   0.1000012795281360E+01
   0.1000010395366849E+01
   0.1000026877507030E+01
   0.1000034025567083E+01
   0.1000007193299240E+01
   0.1000000989144281E+01
   0.1000002092194860E+01
   0.1000002117792080E+01
   0.1000001809258261E+01
   0.1000002016720657E+01
   0.1000002838612207E+01
   0.1000005390489866E+01
   0.1000009998677466E+01
   0.1000011376043674E+01
   0.1000002732969334E+01
   0.1000002610900555E+01
   0.1000011970631072E+01
   0.1000009508115744E+01
   0.1000009486625482E+01
   0.1000009816372204E+01
   0.1000006593962768E+01
   0.1000002616659434E+01
   0.1000004384921803E+01
   0.1000003994790254E+01
   0.1000003218357914E+01
   0.1000002618992631E+01
   0.1000006794097015E+01
   0.1000004415381103E+01
   0.1000008916985830E+01
   0.1000006899578641E+01
   0.9999972415935566E+00
   0.9999972771411508E+00
   0.9999971072030429E+00
   0.9999968166828661E+00
   0.9999950207066693E+00
   0.9999953940225669E+00
   0.9999975996255832E+00
   0.9999978673630809E+00
   0.9999954603988307E+00
   0.9999953922199744E+00
   0.9999979539828040E+00
   0.9999981132855065E+00
   0.9999987755435967E+00
   0.9999957677428494E+00
   0.9999957314088757E+00
   0.9999959192798656E+00
   0.9999948728335332E+00
   0.9999949502237243E+00
   0.9999956591993081E+00
   0.9999958701025018E+00
   0.9999951158364969E+00
   0.9999948157024607E+00
   0.9999956352410981E+00
   0.9999919300492635E+00
   0.9999949198128970E+00
   0.9999962705812545E+00
   0.9999965661460540E+00
   0.9999869215499958E+00
   0.9999897077856554E+00
   0.9999963249752268E+00
   0.9999966536274392E+00
   0.9999968689605496E+00
   0.9999959083209098E+00
   0.9999946267814774E+00
   0.9999877227058279E+00
   0.9999917372395212E+00
   0.9999941695242892E+00
   0.9999879986215432E+00
   0.9999960280063540E+00
   0.9999943559217103E+00
   0.9999935700543894E+00
   0.9999952216916155E+00
   0.1000008634938997E+01
   0.9999997842366299E+00
   0.1000029324912541E+01
   0.9999961481975356E+00
   0.9999980452754631E+00
   0.9999962870890504E+00
   0.9999986623313580E+00
   0.9999968299581695E+00
   0.1000003039040259E+01
   0.9999993173956828E+00
   0.9999974917869048E+00
   0.1000013906644940E+01
   0.1000011715794835E+01
   0.1000033140608856E+01
   0.1000035150060065E+01
   0.1000009754289098E+01
   0.1000001946040788E+01
   0.1000001498575663E+01
   0.9999970113028959E+00
   0.9999978420111950E+00
   0.1000001884962923E+01
   0.9999954672393501E+00
   0.9999973584647655E+00
   0.1000005059856378E+01
   0.9999958291192234E+00
   0.9999964864224380E+00
   0.9999959577531841E+00
   0.1000001030354856E+01
   0.1000006725261213E+01
   0.9999957354818789E+00
   0.9999997074481920E+00
   0.1000011259311847E+01
   0.1000003977611221E+01
   0.9999999335180882E+00
   0.1000006965205395E+01
   0.9999965160505243E+00
   0.9999960222209109E+00
   0.9999976519427439E+00
   0.1000004320427704E+01
   0.1000000066671427E+01
   0.9999957831509033E+00
   0.9999961374150015E+00
   0.1000000754244535E+01
   0.1000011210612599E+01
   0.9999956756817657E+00
   0.9999961250089353E+00
   0.1000032086518018E+01
   0.1000025046228233E+01
   0.1000014619304019E+01
   0.1000006197817003E+01
   0.1000026393156863E+01
   0.1000010674726468E+01
   0.1000006504404899E+01
   0.9999970004882194E+00
   0.1000004373858497E+01
   0.9999994165011288E+00
   0.9999968300700828E+00
   0.1000008611997344E+01
   0.1000005435162235E+01
   0.1000018035426471E+01
   0.1000006722408305E+01
   0.1000001544681817E+01
   0.1000000954576885E+01
   0.1000002081783904E+01
   0.1000017296195117E+01
   0.1000025186083559E+01
   0.1000021682401640E+01
   0.1000012152972567E+01
   0.1000040693678216E+01
   0.1000027638219130E+01
   0.1000020229480933E+01
   0.1000026399887915E+01
   0.1000052793394646E+01
   0.9999967159256468E+00
   0.9999958049174270E+00
   0.9999984777341293E+00
   0.1000001548123551E+01
   0.1000045626757542E+01
   0.1000045908530375E+01
   0.1000043095248685E+01
   0.9999970248865818E+00
   0.9999988943290359E+00
   0.1000000449809533E+01
   0.1000007930901604E+01
   0.1000022505023277E+01
   0.1000050527102122E+01
SCALARS v double 1
LOOKUP_TABLE default
   0.0000000000000000E+00
   0.0000000000000000E+00
   0.0000000000000000E+00
   0.0000000000000000E+00
   0.0000000000000000E+00
  -0.1532241812109923E-04
  -0.3662481844202185E-05
   0.1326022747299374E-04
   0.0000000000000000E+00
   0.0000000000000000E+00
   0.0000000000000000E+00
   0.0000000000000000E+00
   0.0000000000000000E+00
   0.1974236199606637E-06
   0.7750442420644198E-05
   0.1798093484864638E-05
   0.5608001624698164E-06
   0.1258483103830431E-04
  -0.7258948421643600E-05
  -0.1174419422548545E-04
   0.2781180692972556E-05
   0.2710741786099188E-05
   0.6546446110589402E-05
  -0.1001619985437166E-04
   0.8120373271243582E-05
  -0.3376989304143228E-05
  -0.8574967748889073E-06
   0.3541445279813380E-05
  -0.1194181129279139E-04
   0.1028909035438370E-04
   0.8929114274520460E-05
  -0.8951801526019814E-05
   0.2108280365640900E-05
   0.0000000000000000E+00
   0.0000000000000000E+00
   0.0000000000000000E+00
   0.0000000000000000E+00
   0.0000000000000000E+00
   0.0000000000000000E+00
   0.0000000000000000E+00
   0.0000000000000000E+00
   0.0000000000000000E+00
   0.0000000000000000E+00
   0.0000000000000000E+00
   0.0000000000000000E+00
   0.0000000000000000E+00
   0.0000000000000000E+00
   0.0000000000000000E+00
   0.0000000000000000E+00
   0.0000000000000000E+00
   0.0000000000000000E+00
   0.0000000000000000E+00
   0.0000000000000000E+00
   0.0000000000000000E+00
   0.0000000000000000E+00
   0.0000000000000000E+00
   0.0000000000000000E+00
   0.0000000000000000E+00
   0.0000000000000000E+00
   0.0000000000000000E+00
   0.0000000000000000E+00
   0.4835392517728453E-06
   0.1619166470686827E-06
   0.7544430207097434E-08
   0.0000000000000000E+00
   0.0000000000000000E+00
   0.0000000000000000E+00
   0.0000000000000000E+00
  -0.2697843436706139E-05
   0.1297844335100175E-06
   0.7779117826841722E-06
   0.3853731953629092E-05
   0.2874323701570900E-05
  -0.4921612180178736E-05
   0.1721709704573860E-05
   0.3671074335652452E-07
   0.5332836614485325E-06
   0.5298749672697507E-06
  -0.2302779376929145E-06
   0.1521260172569742E-05
   0.7906790270258996E-06
   0.1074629816563348E-06
   0.1331382623933366E-05
   0.8838325309759835E-06
   0.2414616196342743E-05
  -0.1267610312735432E-06
   0.2783332111289821E-07
   0.1708280013463343E-06
   0.0000000000000000E+00
   0.0000000000000000E+00
   0.0000000000000000E+00
   0.0000000000000000E+00
   0.5132114787366844E-06
   0.2834659451280887E-06
  -0.2545445239189624E-06
  -0.1981448568550165E-06
  -0.5161984106912550E-07
   0.3678317230782858E-06
   0.2213332178586766E-06
  -0.3328420754123738E-08
   0.2616295552508761E-06
   0.1543809440885979E-06
   0.1757396111768684E-06
   0.1508240194105296E-06
   0.1713051717361430E-06
  -0.8948442121037730E-07
  -0.3222500058073860E-07
  -0.8529775328410953E-07
   0.0000000000000000E+00
   0.0000000000000000E+00
   0.0000000000000000E+00
   0.7709125376115949E-07
  -0.6919328417139410E-07
   0.1350832759829744E-05
  -0.1001052765665743E-06
  -0.7130016295867950E-07
  -0.4005272331254278E-08
  -0.1342746940176381E-06
  -0.4109796820262231E-07
   0.5884243817626120E-05
   0.1021497947385927E-05
   0.1668689124343217E-06
   0.3706955060932556E-05
   0.1804376739863713E-06
   0.2457896585419229E-06
  -0.3736263161958764E-06
  -0.7483004411921534E-06
   0.0000000000000000E+00
   0.0000000000000000E+00
   0.0000000000000000E+00
   0.0000000000000000E+00
   0.0000000000000000E+00
   0.0000000000000000E+00
   0.0000000000000000E+00
   0.0000000000000000E+00
   0.0000000000000000E+00
   0.0000000000000000E+00
   0.0000000000000000E+00
   0.0000000000000000E+00
   0.0000000000000000E+00
   0.0000000000000000E+00
   0.0000000000000000E+00
   0.0000000000000000E+00
   0.0000000000000000E+00
   0.1355950831869384E-05
  -0.1215128110130098E-06
   0.7853077679367480E-06
   0.1329470698372816E-05
   0.4165294478606963E-06
   0.1642697840247231E-05
   0.3205159207419375E-05
  -0.2261269100906328E-06
   0.8244740014291410E-07
   0.8881613576665919E-08
   0.1722283976796846E-05
   0.3512338710210376E-05
   0.2500046962959064E-07
   0.9240067149270585E-06
   0.1971494055597464E-05
   0.1483329280070882E-05
   0.1137087234638435E-05
   0.1935638807124867E-05
   0.2488469299943662E-06
   0.1543175112784406E-06
   0.5250948579902223E-06
   0.1304557760872458E-05
   0.4326848164891040E-06
  -0.1310794851243328E-06
   0.1991771766797031E-06
  -0.2251297678952064E-06
  -0.5586352398175073E-06
   0.3779016184707013E-07
  -0.7177965753903308E-07
   0.7056720092205852E-05
   0.1146217066259937E-05
   0.2099731220050005E-05
   0.1853077881911680E-05
   0.6190129418962110E-05
   0.3376109166292520E-05
   0.2405670083063608E-05
  -0.7892540117319477E-07
   0.7214540378034605E-06
   0.7108940574401186E-06
   0.2646094674035999E-06
  -0.1627078072269583E-06
  -0.5365640925163018E-06
   0.6426701062172185E-06
  -0.5209973105393569E-06
  -0.2879833571161071E-06
   0.4087386342182996E-06
  -0.5521113595243399E-06
   0.6016929911204867E-06
  -0.3932790519957022E-05
   0.3692981926302656E-05
  -0.2100775941119196E-06
  -0.4140294268874301E-05
  -0.1834185017052453E-05
   0.1429258729254226E-05
   0.4336750419347090E-05
   0.3578680652757492E-05
   0.2038546359788795E-07
  -0.1417833881130661E-06
   0.2850779484796381E-06
   0.1410209550692305E-05
   0.1225981297141119E-05
   0.3941035185492877E-06
   0.4104843117829350E-05
  -0.1521935108503860E-06
  -0.1556011183852760E-06
   0.8817660234743943E-06
  -0.1026897863758760E-05
  -0.3406321954346313E-05
   0.4443088401188299E-06
SCALARS w double 1
LOOKUP_TABLE default
   0.7685607941264354E-05
   0.3832544062288752E-04
   0.8216749554111005E-05
  -0.6028615925628544E-05
  -0.1698837417455896E-04
  -0.3107438266823181E-04
  -0.6926839208225021E-04
  -0.4449477051200797E-04
  -0.2588613539536730E-04
  -0.2229498644961179E-05
   0.1180955615538928E-04
   0.2367543999498354E-04
   0.2365589715132138E-04
   0.3598319629163844E-04
   0.1230039573784105E-04
   0.1143593853622919E-04
   0.4307012096571021E-04
  -0.1562727794806155E-04
  -0.1468293261436194E-04
   0.4752900017010635E-04
   0.4600642252401616E-04
   0.2885032464359527E-04
   0.5721605151379230E-04
   0.2572908890011489E-04
  -0.2806562239516957E-04
   0.3551240724724841E-04
   0.1430574409066092E-04
   0.2762943688034033E-04
  -0.4421095896571408E-04
   0.4164263462507444E-04
   0.2362192848939001E-04
   0.5497681806216578E-04
   0.6925946845178199E-04
  -0.1153676367385930E-05
   0.7430601497343974E-05
   0.7296633383558886E-05
   0.3327779031894798E-05
   0.3287596620326358E-05
   0.3832186532444925E-05
   0.3905928984378725E-05
   0.2545866650195907E-05
   0.4093644769896717E-06
   0.1425775136048366E-06
   0.1238492717224120E-05
   0.1277168402382236E-04
   0.5081758853071615E-05
  -0.5524887029665358E-05
   0.3244185112666060E-05
   0.4910196441715184E-05
   0.2507992111527429E-05
   0.5287909810125021E-05
   0.4700960866191283E-05
   0.5732963198132828E-05
   0.4986984944467592E-05
   0.4320763323592216E-05
   0.4914008943249701E-05
   0.3911694914599144E-05
   0.1900297388606009E-04
   0.3868969646035975E-05
   0.7916045213029352E-05
   0.5422775865587642E-05
   0.3111713238098929E-05
   0.3011395031412150E-05
   0.3167587162089471E-05
   0.3312083268402627E-05
   0.8291725357782950E-05
   0.9637928892101081E-05
  -0.1199759517800889E-05
  -0.7148863789974222E-05
   0.7537065472650078E-05
   0.6879436673929455E-05
  -0.9132444974035881E-05
  -0.1722562373292442E-04
  -0.2681068771146178E-04
   0.2245950330544287E-05
   0.9114565877178315E-05
   0.7507008476848851E-05
   0.1153089495614922E-04
   0.1035295807028273E-04
   0.1011340750857042E-04
   0.6520677162125757E-05
   0.4437666371483540E-05
   0.8694280482084900E-05
   0.8376852790082219E-05
   0.1009827956060405E-04
   0.2638445824818055E-05
   0.2453980195427249E-05
   0.2357106091818323E-05
   0.2428463443686824E-05
   0.3932735112343790E-05
   0.3900484322634660E-05
   0.3488396748716556E-05
   0.3139822083657036E-05
   0.3802659475845779E-05
   0.3695190301419086E-05
   0.3422622101472363E-05
   0.3077601651225342E-05
   0.2915185560821709E-05
   0.3531113670601184E-05
   0.3872206820284971E-05
   0.3721661915419288E-05
   0.3916493171304993E-05
   0.3956221230874725E-05
   0.3819839262324261E-05
   0.3630009587824190E-05
   0.3994070428053077E-05
   0.3922888816120700E-05
   0.3704339993559465E-05
   0.6110909373083640E-05
   0.1662570870595917E-06
   0.8280101051209267E-07
   0.9020327735793256E-06
   0.1184248022082499E-04
   0.1318693263583223E-05
   0.7134207409790050E-06
   0.8731128555254303E-06
   0.1034104214680063E-05
   0.6206028676001632E-07
  -0.3978762875205636E-06
   0.1031937832719985E-04
  -0.1287307191268872E-05
   0.1265245074932721E-05
   0.9087645491035931E-07
   0.2151285350797310E-06
   0.5052863944103422E-06
  -0.4855000580705915E-06
  -0.1460784281186992E-06
   0.1978930236337315E-04
   0.5517515872916610E-05
   0.4676130849115264E-06
   0.3462736850818424E-05
   0.6278084766009135E-05
   0.3154151571527970E-05
   0.7342379444895131E-05
   0.4981325098872483E-05
   0.6576557104837495E-05
   0.5820447584713708E-05
   0.4857968278731862E-05
   0.6728432314609008E-05
   0.5931198474737032E-05
   0.1788105019481736E-04
   0.9254040868859712E-05
   0.1080796830179125E-04
   0.6622528930653707E-05
   0.7615406188828313E-05
   0.4960484263776867E-05
   0.5729119013798774E-05
   0.1057056200532839E-04
   0.4249173220533726E-05
   0.1031719836105286E-04
   0.1549336143985511E-04
   0.2059053201717962E-05
   0.4121375807910560E-05
   0.2581328948623382E-05
   0.8024105485576882E-05
   0.2252414370498731E-04
   0.4105004937184810E-05
   0.6066528677130441E-05
   0.9664203236448932E-05
   0.6274419897254850E-05
   0.6870732036810574E-05
   0.8615310526879019E-05
   0.4953788535207182E-05
   0.4471478092834840E-05
   0.4681574793081439E-05
   0.9775867054793427E-05
   0.7369647219834726E-05
   0.3311153949278360E-05
   0.5276153116763389E-05
   0.8461934704276571E-05
   0.1512299765181643E-04
   0.3487772027493604E-05
   0.2925090116574979E-05
   0.3384357363569557E-04
   0.3621154577961177E-04
   0.1697451793172863E-04
   0.7834288785533799E-05
   0.1922762330763529E-04
   0.1194353161644161E-04
   0.2796091546748747E-04
   0.9157418400071536E-05
   0.2347478189895800E-04
   0.5989703428190215E-05
   0.4477596437950854E-05
   0.1070000387890234E-04
   0.7353795692151843E-05
   0.5239361512616184E-05
   0.8225818071943117E-05
   0.7407790243699330E-05
   0.7419402119065024E-05
   0.7729157640189204E-05
   0.2773000721975253E-05
  -0.1037940272695255E-04
   0.1101909199584344E-04
   0.1069714515334875E-04
   0.3497685481019237E-04
   0.1236544680272560E-04
   0.7358466320823527E-05
  -0.2240382901278884E-05
   0.5898154074488212E-05
   0.4494554835906536E-05
   0.4375986127332830E-05
   0.5757870618673142E-05
   0.7786151282181829E-05
   0.6849676035718460E-05
  -0.1631809411091858E-04
   0.1723619613758987E-05
   0.5032171011875266E-05
   0.5493172314685423E-05
   0.6023861461222859E-05
   0.9086811083003634E-05
   0.2159158941244244E-04
   0.2316745953769146E-04
SCALARS p double 1
LOOKUP_TABLE default
   0.1000044138712875E+01
   0.1000034468889856E+01
   0.9999568898767897E+00
   0.1000002249413410E+01
   0.1000031376728194E+01
   0.1000047123378534E+01
   0.9999805013232823E+00
   0.1000005841657280E+01
   0.1000011085472167E+01
   0.1000008836648862E+01
   0.9999917302062291E+00
   0.9999914059659109E+00
   0.1000084167816193E+01
   0.1000114968796989E+01
   0.1000079769801651E+01
   0.1000052721153229E+01
   0.1000083797459532E+01
   0.9999771994737032E+00
   0.9999789430464644E+00
   0.1000054241380238E+01
   0.1000049890457169E+01
   0.1000044263632973E+01
   0.1000042313793648E+01
   0.9999916957223850E+00
   0.9999378598495680E+00
   0.9999874114109257E+00
   0.9999952502077479E+00
   0.9999809531191453E+00
   0.9999277877859540E+00
   0.1000010103355621E+01
   0.9999786514318308E+00
   0.1000021881212176E+01
   0.1000030978320626E+01
   0.1000020455899500E+01
   0.1000014124037696E+01
   0.1000010871817715E+01
   0.1000009120347156E+01
   0.1000012241976259E+01
   0.1000014516036051E+01
   0.1000014932264834E+01
   0.1000013208788707E+01
   0.1000016704469090E+01
   0.1000021952503441E+01
   0.1000033718366321E+01
   0.1000027776567662E+01
   0.1000011754180619E+01
   0.1000011865445480E+01
   0.1000016332208996E+01
   0.1000018587738797E+01
   0.1000018932983033E+01
   0.1000019834404033E+01
   0.1000015731939173E+01
   0.1000013089280590E+01
   0.1000014214107971E+01
   0.1000013877854500E+01
   0.1000012619032702E+01
   0.1000012890469878E+01
   0.1000010615697802E+01
   0.1000008635080696E+01
   0.1000017131027946E+01
   0.1000015490637503E+01
   0.1000008905407946E+01
   0.1000008946171139E+01
   0.1000008676349169E+01
   0.1000009727132620E+01
   0.1000011206683232E+01
   0.1000015809494561E+01
   0.1000022275175192E+01
   0.1000020994294309E+01
   0.1000009537779480E+01
   0.1000009715530982E+01
   0.1000026772622047E+01
   0.1000040895884669E+01
   0.1000037899430272E+01
   0.1000013097880104E+01
   0.1000018548376646E+01
   0.1000009118637551E+01
   0.1000014546939095E+01
   0.1000013676662269E+01
   0.1000011280607896E+01
   0.1000008978327980E+01
   0.1000017660591313E+01
   0.1000012859821800E+01
   0.1000020947388782E+01
   0.1000014434272351E+01
   0.1000012848399426E+01
   0.1000012806802951E+01
   0.1000013056592436E+01
   0.1000013379085121E+01
   0.1000015523253139E+01
   0.1000014942716329E+01
   0.1000012696991707E+01
   0.1000011748329266E+01
   0.1000014346393445E+01
   0.1000014353058268E+01
   0.1000012179738994E+01
   0.1000012228327871E+01
   0.1000011382124205E+01
   0.1000013818449141E+01
   0.1000014584856050E+01
   0.1000013684078085E+01
   0.1000015729354742E+01
   0.1000015550618037E+01
   0.1000013910184592E+01
   0.1000013455347919E+01
   0.1000014781581411E+01
   0.1000015288136172E+01
   0.1000014339933845E+01
   0.1000039532743177E+01
   0.1000023259289094E+01
   0.1000017298173862E+01
   0.1000015586158956E+01
   0.1000043239974936E+01
   0.1000037997679501E+01
   0.1000016456935134E+01
   0.1000016131995024E+01
   0.1000015253621030E+01
   0.1000019596068394E+01
   0.1000020785494313E+01
   0.1000048293677862E+01
   0.1000030856108957E+01
   0.1000030522585109E+01
   0.1000037953751160E+01