# vtk DataFile Version 2.0
FUN3D:global_image_vtk
ASCII
DATASET UNSTRUCTURED_GRID
POINTS 213 double
   -0.5474224527974429E-02    0.2504942126395249E+01    0.8082163479709722E-04
    0.1245420076927911E+01    0.2504942126395249E+01    0.1048423406333745E-03
    0.2497696590160995E+01    0.2504942126395249E+01    0.1104835811035888E-03
    0.3750592000219026E+01    0.2504942126395249E+01    0.1364569463548603E-03
    0.5003221893556912E+01    0.2504942126395249E+01    0.9695062306590132E-04
    0.5004677757729920E+01    0.1281291915009508E+01    0.1646229089325685E-03
    0.5004773233264879E+01    0.2775197973707455E-01    0.1907233958898083E-03
    0.5003582221826302E+01   -0.1225852858115238E+01    0.1617086140448227E-03
    0.5001953053134341E+01   -0.2496588894989582E+01    0.1087092391278534E-03
    0.3750349122005743E+01   -0.2496588894989582E+01    0.1468754894505514E-03
    0.2498611963539370E+01   -0.2496588894989582E+01    0.1014099588108454E-03
    0.1247176261509184E+01   -0.2496588894989582E+01    0.1118958292209682E-03
   -0.3383469652657604E-02   -0.2496588894989582E+01    0.8163625948968830E-04
   -0.4256789880244681E-02   -0.1225734173000734E+01    0.3518763781415336E-04
   -0.5251125685943340E-02    0.2619601496228373E-01    0.1043778534218621E-03
   -0.5675101163759762E-02    0.1278222243537384E+01    0.8322048501216241E-04
    0.9003214217916410E+00    0.1608980307793919E+01    0.8747981908400884E-04
    0.3983173228635223E+01   -0.1561211262265163E+01    0.1766748191494278E-03
    0.4035602579387200E+01    0.1486761266132127E+01    0.1716706614120883E-03
    0.1036614706197514E+01   -0.1455625787804053E+01    0.1057334496957476E-03
    0.1094353949885533E+01   -0.2964610398686504E+00    0.1265432266614862E-03
    0.7298409877475077E+00    0.6874691505187871E+00    0.1054287163688418E-03
    0.1617019123562922E+01    0.8553219978724499E+00    0.1534204508725051E-03
    0.2143200653243059E+01   -0.1627127869719470E+01    0.1616130186569393E-03
    0.4088840979724988E+01   -0.4351036111772547E+00    0.2724112872097661E-03
    0.2977917509313417E+01   -0.8334984944044713E+00    0.2255152481764022E-03
    0.3044093743998018E+01   -0.1814360085627647E+01    0.1621866746874095E-03
    0.3427867629114648E+01    0.3813911924771510E+00    0.2945982215774257E-03
    0.4313225907775387E+01    0.5489145452878156E+00    0.2316713278243509E-03
    0.1823033713305206E+01    0.1771265914472351E+01    0.1845256048548489E-03
    0.2806311649527161E+01    0.1358630605773757E+01    0.1947351430204138E-03
    0.1891861854168060E+01   -0.8481303814089863E+00    0.1680436315511763E-03
    0.2268769674863574E+01    0.7723810290791042E-01    0.2076744350430873E-03
    0.5000000000000000E+01    0.2504942126395249E+01    0.1250000000000000E+01
    0.5000000000000000E+01    0.2504942126395249E+01    0.2500000000000000E+01
    0.5000000000000000E+01    0.2504942126395249E+01    0.3750000000000000E+01
    0.5000000000000000E+01    0.2504942126395249E+01    0.5000000000000000E+01
    0.3750000000000000E+01    0.2504942126395249E+01    0.5000000000000000E+01
    0.2500000000000000E+01    0.2504942126395249E+01    0.5000000000000000E+01
    0.1250000000000000E+01    0.2504942126395249E+01    0.5000000000000000E+01
    0.0000000000000000E+00    0.2504942126395249E+01    0.5000000000000000E+01
    0.0000000000000000E+00    0.2504942126395249E+01    0.3750000000000000E+01
    0.0000000000000000E+00    0.2504942126395249E+01    0.2500000000000000E+01
    0.0000000000000000E+00    0.2504942126395249E+01    0.1250000000000000E+01
    0.9588960369888057E+00    0.2504942126395249E+01    0.9696533634708027E+00
    0.3981953152435456E+01    0.2504942126395249E+01    0.4070563994312797E+01
    0.4036122760749434E+01    0.2504942126395249E+01    0.1017568211218935E+01
    0.9637572721113067E+00    0.2504942126395249E+01    0.3973598325903538E+01
    0.1546540225216466E+01    0.2504942126395249E+01    0.2931570546603169E+01
    0.6973799590153466E+00    0.2504942126395249E+01    0.3070320151810755E+01
    0.8903742902441732E+00    0.2504942126395249E+01    0.2056562651378696E+01
    0.2183042038777829E+01    0.2504942126395249E+01    0.3960694659634123E+01
    0.3855845055166627E+01    0.2504942126395249E+01    0.2933250909190150E+01
    0.3152611483937385E+01    0.2504942126395249E+01    0.3637668660428786E+01
    0.3103307439056093E+01    0.2504942126395249E+01    0.4332607953804899E+01
    0.3266711423522338E+01    0.2504942126395249E+01    0.1889657173291478E+01
    0.4232537818756437E+01    0.2504942126395249E+01    0.1918627332151838E+01
    0.1905523024840066E+01    0.2504942126395249E+01    0.7226299060056600E+00
    0.2879768362524973E+01    0.2504942126395249E+01    0.9080952800841881E+00
    0.2012711742452715E+01    0.2504942126395249E+01    0.1767083037650773E+01
    0.2669681670297050E+01    0.2504942126395249E+01    0.2853394772361393E+01
    0.5000000000000000E+01    0.1250000000000000E+01    0.5000000000000000E+01
    0.5000000000000000E+01    0.0000000000000000E+00    0.5000000000000000E+01
    0.5000000000000000E+01   -0.1250000000000000E+01    0.5000000000000000E+01
    0.5000000000000000E+01   -0.2496588894989582E+01    0.5000000000000000E+01
    0.5000000000000000E+01   -0.2496588894989582E+01    0.3750000000000000E+01
    0.5000000000000000E+01   -0.2496588894989582E+01    0.2500000000000000E+01
    0.5000000000000000E+01   -0.2496588894989582E+01    0.1250000000000000E+01
    0.5000000000000000E+01    0.1578994732800803E+01    0.9058375365086910E+00
    0.5000000000000000E+01   -0.1583989954232354E+01    0.3982050490726493E+01
    0.5000000000000000E+01    0.1453322699199022E+01    0.4033849428301197E+01
    0.5000000000000000E+01   -0.1479596339503735E+01    0.1040505887381675E+01
    0.5000000000000000E+01   -0.3227322616384110E+00    0.1099454400140349E+01
    0.5000000000000000E+01    0.6593508822075582E+00    0.7354504170366591E+00
    0.5000000000000000E+01    0.8256214013940779E+00    0.1622302608453282E+01
    0.5000000000000000E+01   -0.1650070333782557E+01    0.2145871574390382E+01
    0.5000000000000000E+01   -0.4612828702537229E+00    0.4086422318222992E+01
    0.5000000000000000E+01   -0.8579242121530853E+00    0.2979540174134984E+01
    0.5000000000000000E+01   -0.1836846154397680E+01    0.3045064261640043E+01
    0.5000000000000000E+01    0.3508002863614053E+00    0.3428197553792836E+01
    0.5000000000000000E+01    0.5185680230613409E+00    0.4309693860063405E+01
    0.5000000000000000E+01    0.1738996113203182E+01    0.1827272193562204E+01
    0.5000000000000000E+01    0.1325493893339706E+01    0.2808563282768077E+01
    0.5000000000000000E+01   -0.8731419609589618E+00    0.1895995683864404E+01
    0.5000000000000000E+01    0.4906150219227333E-01    0.2273179336307740E+01
    0.0000000000000000E+00    0.1250000000000000E+01    0.5000000000000000E+01
    0.0000000000000000E+00    0.0000000000000000E+00    0.5000000000000000E+01
    0.0000000000000000E+00   -0.1250000000000000E+01    0.5000000000000000E+01
    0.0000000000000000E+00   -0.2496588894989582E+01    0.5000000000000000E+01
    0.1250000000000000E+01   -0.2496588894989582E+01    0.5000000000000000E+01
    0.2500000000000000E+01   -0.2496588894989582E+01    0.5000000000000000E+01
    0.3750000000000000E+01   -0.2496588894989582E+01    0.5000000000000000E+01
    0.4042003247744892E+01    0.1558308132739014E+01    0.5000000000000000E+01
    0.9304122287900499E+00   -0.1548001304379777E+01    0.5000000000000000E+01
    0.1037243024609388E+01    0.1462892710085612E+01    0.5000000000000000E+01
    0.3946240828834967E+01   -0.1445243809615570E+01    0.5000000000000000E+01
    0.4092527262848217E+01   -0.3455338993778935E+00    0.5000000000000000E+01
    0.4293103109154542E+01    0.6277660831404320E+00    0.5000000000000000E+01
    0.3241512314643519E+01    0.7429886854239611E+00    0.5000000000000000E+01
    0.2844289952419609E+01   -0.1588117879734118E+01    0.5000000000000000E+01
    0.7159905765450471E+00   -0.6002320124191652E+00    0.5000000000000000E+01
    0.1754341919796891E+01   -0.7398147869923652E+00    0.5000000000000000E+01
    0.1870296826774691E+01   -0.1788622905643739E+01    0.5000000000000000E+01
    0.9220614901912976E+00    0.3083720183248586E+00    0.5000000000000000E+01
    0.3101523624086016E+01    0.1777901774806180E+01    0.5000000000000000E+01
    0.2192512063922564E+01    0.1576861561598471E+01    0.5000000000000000E+01
    0.2024793420196460E+01    0.4773861992750707E+00    0.5000000000000000E+01
    0.2990627757741975E+01   -0.4878110785814084E+00    0.5000000000000000E+01
    0.0000000000000000E+00   -0.2496588894989582E+01    0.1250000000000000E+01
    0.0000000000000000E+00   -0.2496588894989582E+01    0.2500000000000000E+01
    0.0000000000000000E+00   -0.2496588894989582E+01    0.3750000000000000E+01
    0.0000000000000000E+00    0.1558308132739014E+01    0.4042003247744892E+01
    0.0000000000000000E+00   -0.1548001304379777E+01    0.9304122287900499E+00
    0.0000000000000000E+00    0.1462892710085612E+01    0.1037243024609388E+01
    0.0000000000000000E+00   -0.1445243809615570E+01    0.3946240828834967E+01
    0.0000000000000000E+00   -0.3455338993778935E+00    0.4092527262848217E+01
    0.0000000000000000E+00    0.6277660831404320E+00    0.4293103109154542E+01
    0.0000000000000000E+00    0.7429886854239611E+00    0.3241512314643519E+01
    0.0000000000000000E+00   -0.1588117879734118E+01    0.2844289952419609E+01
    0.0000000000000000E+00   -0.6002320124191652E+00    0.7159905765450471E+00
    0.0000000000000000E+00   -0.7398147869923652E+00    0.1754341919796891E+01
    0.0000000000000000E+00   -0.1788622905643739E+01    0.1870296826774691E+01
    0.0000000000000000E+00    0.3083720183248586E+00    0.9220614901912976E+00
    0.0000000000000000E+00    0.1777901774806180E+01    0.3101523624086016E+01
    0.0000000000000000E+00    0.1576861561598471E+01    0.2192512063922564E+01
[...]
POINT_DATA 213
SCALARS u double 1
LOOKUP_TABLE default
   0.9999813284806992E+00
   0.1000027640386537E+01
   0.1000058943815783E+01
   0.1000048926558176E+01
   0.1000014643251800E+01
   0.1000011000779157E+01
   0.1000014249020861E+01
   0.1000016438023791E+01
   0.1000019833407673E+01
   0.1000055557522403E+01
   0.1000053079620575E+01
   0.1000036537229192E+01
   0.9999937857795116E+00
   0.9999922461177210E+00
   0.9999886171291773E+00
   0.9999837433278759E+00
   0.1000009964729239E+01
   0.1000062909640569E+01
   0.1000053208607992E+01
   0.1000034742336059E+01
   0.1000020883228627E+01
   0.1000002606893707E+01
   0.1000037834024485E+01
   0.1000057340999427E+01
   0.1000066632340205E+01
   0.1000076968625837E+01
   0.1000065297006351E+01
   0.1000081079953127E+01
   0.1000056211166900E+01
   0.1000050763658841E+01
   0.1000061518266268E+01
   0.1000052592782563E+01
   0.1000063322625016E+01
   0.1000008452605721E+01
   0.1000005120143199E+01
   0.1000002810293862E+01
   0.1000001898996959E+01
   0.9999972108519847E+00
   0.9999954332038823E+00
   0.9999951251361940E+00
   0.9999969053911141E+00
   0.9999965869278312E+00
   0.9999953177499808E+00
   0.9999924367169025E+00
   0.1000001110751010E+01
   0.9999994244376158E+00
   0.1000024128521089E+01
   0.9999961478323550E+00
   0.9999977223263544E+00
   0.9999964670282958E+00
   0.9999978962834051E+00
   0.9999966118682345E+00
   0.1000002926223734E+01
   0.9999986850010353E+00
   0.9999970693124277E+00
   0.1000012795281360E+01
   0.1000010395366849E+01
   0.1000026877507031E+01
   0.1000034025567083E+01
   0.1000007193299240E+01
   0.1000000989144281E+01
   0.1000002092194860E+01
   0.1000002117792081E+01
   0.1000001809258261E+01
   0.1000002016720657E+01
   0.1000002838612207E+01
   0.1000005390489866E+01
   0.1000009998677466E+01
   0.1000011376043674E+01
   0.1000002732969334E+01
   0.1000002610900555E+01
   0.1000011970631072E+01
   0.1000009508115744E+01
   0.1000009486625482E+01
   0.1000009816372204E+01
   0.1000006593962768E+01
   0.1000002616659434E+01
   0.1000004384921804E+01
   0.1000003994790254E+01
   0.1000003218357914E+01
   0.1000002618992631E+01
   0.1000006794097015E+01
   0.1000004415381103E+01
   0.1000008916985830E+01
   0.1000006899578641E+01
   0.9999972415935565E+00
   0.9999972771411509E+00
   0.9999971072030429E+00
   0.9999968166828660E+00
   0.9999950207066692E+00
   0.9999953940225670E+00
   0.9999975996255833E+00
   0.9999978673630810E+00
   0.9999954603988309E+00
   0.9999953922199746E+00
   0.9999979539828041E+00
   0.9999981132855065E+00
   0.9999987755435967E+00
   0.9999957677428495E+00
   0.9999957314088758E+00
   0.9999959192798658E+00
   0.9999948728335332E+00
   0.9999949502237242E+00
   0.9999956591993082E+00
   0.9999958701025020E+00
   0.9999951158364971E+00
   0.9999948157024610E+00
   0.9999956352410982E+00
   0.9999919300492635E+00
   0.9999949198128970E+00
   0.9999962705812546E+00
   0.9999965661460544E+00
   0.9999869215499959E+00
   0.9999897077856554E+00
   0.9999963249752271E+00
   0.9999966536274392E+00
   0.9999968689605496E+00
   0.9999959083209099E+00
   0.9999946267814777E+00
   0.9999877227058279E+00
   0.9999917372395213E+00
   0.9999941695242893E+00
   0.9999879986215433E+00
   0.9999960280063540E+00
   0.9999943559217102E+00
   0.9999935700543894E+00
   0.9999952216916153E+00
   0.1000008634938997E+01
   0.9999997842366298E+00
   0.1000029324912541E+01
   0.9999961481975356E+00
   0.9999980452754632E+00
   0.9999962870890505E+00
   0.9999986623313583E+00
   0.9999968299581694E+00
   0.1000003039040259E+01
   0.9999993173956826E+00
   0.9999974917869048E+00
   0.1000013906644940E+01
   0.1000011715794835E+01
   0.1000033140608856E+01
   0.1000035150060065E+01
   0.1000009754289098E+01
   0.1000001946040788E+01
   0.1000001498575663E+01
   0.9999970113028959E+00
   0.9999978420111951E+00
   0.1000001884962923E+01
   0.9999954672393498E+00
   0.9999973584647653E+00
   0.1000005059856378E+01
   0.9999958291192234E+00
   0.9999964864224381E+00
   0.9999959577531842E+00
   0.1000001030354856E+01
   0.1000006725261213E+01
   0.9999957354818790E+00
   0.9999997074481920E+00
   0.1000011259311847E+01
   0.1000003977611221E+01
   0.9999999335180884E+00
   0.1000006965205395E+01
   0.9999965160505244E+00
   0.9999960222209110E+00
   0.9999976519427439E+00
   0.1000004320427704E+01
   0.1000000066671427E+01
   0.9999957831509035E+00
   0.9999961374150016E+00
   0.1000000754244535E+01
   0.1000011210612599E+01
   0.9999956756817657E+00
   0.9999961250089353E+00
   0.1000032086518018E+01
   0.1000025046228233E+01
   0.1000014619304019E+01
   0.1000006197817003E+01
   0.1000026393156863E+01
   0.1000010674726468E+01
   0.1000006504404900E+01
   0.9999970004882195E+00
   0.1000004373858497E+01
   0.9999994165011289E+00
   0.9999968300700830E+00
   0.1000008611997344E+01
   0.1000005435162235E+01
   0.1000018035426471E+01
   0.1000006722408305E+01
   0.1000001544681817E+01
   0.1000000954576886E+01
   0.1000002081783904E+01
   0.1000017296195117E+01
   0.1000025186083559E+01
   0.1000021682401640E+01
   0.1000012152972567E+01
   0.1000040693678216E+01
   0.1000027638219130E+01
   0.1000020229480933E+01
   0.1000026399887914E+01
   0.1000052793394646E+01
   0.9999967159256468E+00
   0.9999958049174270E+00
   0.9999984777341293E+00
   0.1000001548123551E+01
   0.1000045626757542E+01
   0.1000045908530375E+01
   0.1000043095248685E+01
   0.9999970248865818E+00
   0.9999988943290358E+00
   0.1000000449809533E+01
   0.1000007930901604E+01
   0.1000022505023277E+01
   0.1000050527102121E+01
SCALARS v double 1
LOOKUP_TABLE default
   0.0000000000000000E+00
   0.0000000000000000E+00
   0.0000000000000000E+00
   0.0000000000000000E+00
   0.0000000000000000E+00
  -0.1532241812109218E-04
  -0.3662481844212568E-05
   0.1326022747310924E-04
   0.0000000000000000E+00
   0.0000000000000000E+00
   0.0000000000000000E+00
   0.0000000000000000E+00
   0.0000000000000000E+00
   0.1974236199285601E-06
   0.7750442420600288E-05
   0.1798093484705143E-05
   0.5608001621824303E-06
   0.1258483103836259E-04
  -0.7258948421616639E-05
  -0.1174419422554714E-04
   0.2781180692798399E-05
   0.2710741785992741E-05
   0.6546446110418911E-05
  -0.1001619985431955E-04
   0.8120373271235412E-05
  -0.3376989304112591E-05
  -0.8574967748777482E-06
   0.3541445279803476E-05
  -0.1194181129274890E-04
   0.1028909035408164E-04
   0.8929114274558175E-05
  -0.8951801526044612E-05
   0.2108280365529909E-05
   0.0000000000000000E+00
   0.0000000000000000E+00
   0.0000000000000000E+00
   0.0000000000000000E+00
   0.0000000000000000E+00
   0.0000000000000000E+00
   0.0000000000000000E+00
   0.0000000000000000E+00
   0.0000000000000000E+00
   0.0000000000000000E+00
   0.0000000000000000E+00
   0.0000000000000000E+00
   0.0000000000000000E+00
   0.0000000000000000E+00
   0.0000000000000000E+00
   0.0000000000000000E+00
   0.0000000000000000E+00
   0.0000000000000000E+00
   0.0000000000000000E+00
   0.0000000000000000E+00
   0.0000000000000000E+00
   0.0000000000000000E+00
   0.0000000000000000E+00
   0.0000000000000000E+00
   0.0000000000000000E+00
   0.0000000000000000E+00
   0.0000000000000000E+00
   0.0000000000000000E+00
   0.4835392516650219E-06
   0.1619166470370060E-06
   0.7544430316355210E-08
   0.0000000000000000E+00
   0.0000000000000000E+00
   0.0000000000000000E+00
   0.0000000000000000E+00
  -0.2697843436536441E-05
   0.1297844335045333E-06
   0.7779117826968647E-06
   0.3853731953726142E-05
   0.2874323701640308E-05
  -0.4921612180155665E-05
   0.1721709704787619E-05
   0.3671074341717879E-07
   0.5332836614838150E-06
   0.5298749673744626E-06
  -0.2302779376699184E-06
   0.1521260172631086E-05
   0.7906790269691947E-06
   0.1074629816682001E-06
   0.1331382623953765E-05
   0.8838325310090469E-06
   0.2414616196507510E-05
  -0.1267610312836650E-06
   0.2783332116022394E-07
   0.1708280013827358E-06
   0.0000000000000000E+00
   0.0000000000000000E+00
   0.0000000000000000E+00
   0.0000000000000000E+00
   0.5132114786862324E-06
   0.2834659451821583E-06
  -0.2545445238419027E-06
  -0.1981448568408551E-06
  -0.5161984108729663E-07
   0.3678317230629459E-06
   0.2213332178666999E-06
  -0.3328420623432613E-08
   0.2616295553852040E-06
   0.1543809441013449E-06
   0.1757396111675146E-06
   0.1508240195462921E-06
   0.1713051716467240E-06
  -0.8948442119722801E-07
  -0.3222500066456837E-07
  -0.8529775332418408E-07
   0.0000000000000000E+00
   0.0000000000000000E+00
   0.0000000000000000E+00
   0.7709125366317488E-07
  -0.6919328422092028E-07
   0.1350832759790811E-05
  -0.1001052765097719E-06
  -0.7130016286652692E-07
  -0.4005272308775136E-08
  -0.1342746939383670E-06
  -0.4109796824002703E-07
   0.5884243817616234E-05
   0.1021497947345588E-05
   0.1668689123435624E-06
   0.3706955060933248E-05
   0.1804376739165342E-06
   0.2457896585588534E-06
  -0.3736263161493646E-06
  -0.7483004411858254E-06
   0.0000000000000000E+00
   0.0000000000000000E+00
   0.0000000000000000E+00
   0.0000000000000000E+00
   0.0000000000000000E+00
   0.0000000000000000E+00
   0.0000000000000000E+00
   0.0000000000000000E+00
   0.0000000000000000E+00
   0.0000000000000000E+00
   0.0000000000000000E+00
   0.0000000000000000E+00
   0.0000000000000000E+00
   0.0000000000000000E+00
   0.0000000000000000E+00
   0.0000000000000000E+00
   0.0000000000000000E+00
   0.1355950831836949E-05
  -0.1215128110130742E-06
   0.7853077678758647E-06
   0.1329470698313254E-05
   0.4165294478198431E-06
   0.1642697840230340E-05
   0.3205159207295233E-05
  -0.2261269101689339E-06
   0.8244740013602086E-07
   0.8881613475916483E-08
   0.1722283976782116E-05
   0.3512338710085197E-05
   0.2500046964596213E-07
   0.9240067148911359E-06
   0.1971494055666638E-05
   0.1483329280065201E-05
   0.1137087234685146E-05
   0.1935638807177660E-05
   0.2488469300334744E-06
   0.1543175111711816E-06
   0.5250948579645197E-06
   0.1304557761014857E-05
   0.4326848164906608E-06
  -0.1310794850468515E-06
   0.1991771765807780E-06
  -0.2251297679465626E-06
  -0.5586352398069874E-06
   0.3779016198570539E-07
  -0.7177965752935935E-07
   0.7056720092219711E-05
   0.1146217066240287E-05
   0.2099731219984188E-05
   0.1853077881915206E-05
   0.6190129418836271E-05
   0.3376109166382062E-05
   0.2405670082886555E-05
  -0.7892540129104780E-07
   0.7214540378095272E-06
   0.7108940573894803E-06
   0.2646094673218322E-06
  -0.1627078071989224E-06
  -0.5365640926040970E-06
   0.6426701061392520E-06
  -0.5209973104585032E-06
  -0.2879833571133743E-06
   0.4087386342951768E-06
  -0.5521113595001295E-06
   0.6016929911988257E-06
  -0.3932790519918808E-05
   0.3692981926299911E-05
  -0.2100775940630687E-06
  -0.4140294269001772E-05
  -0.1834185017089041E-05
   0.1429258729475457E-05
   0.4336750419447105E-05
   0.3578680652688869E-05
   0.2038546358516756E-07
  -0.1417833879610087E-06
   0.2850779485498236E-06
   0.1410209550689338E-05
   0.1225981297159096E-05
   0.3941035185571408E-06
   0.4104843117905160E-05
  -0.1521935107734701E-06
  -0.1556011183612355E-06
   0.8817660234253727E-06
  -0.1026897863847458E-05
  -0.3406321954343544E-05
   0.4443088401815686E-06
SCALARS w double 1
LOOKUP_TABLE default
   0.7685607941182683E-05
   0.3832544062272208E-04
   0.8216749553971070E-05
  -0.6028615925770870E-05
  -0.1698837417429774E-04
  -0.3107438266789244E-04
  -0.6926839208235840E-04
  -0.4449477051203545E-04
  -0.2588613539539044E-04
  -0.2229498644741357E-05
   0.1180955615528759E-04
   0.2367543999501917E-04
   0.2365589715137287E-04
   0.3598319629167990E-04
   0.1230039573794122E-04
   0.1143593853621119E-04
   0.4307012096582639E-04
  -0.1562727794791472E-04
  -0.1468293261434717E-04
   0.4752900017016337E-04
   0.4600642252385261E-04
   0.2885032464379035E-04
   0.5721605151383531E-04
   0.2572908890005053E-04
  -0.2806562239507972E-04
   0.3551240724730053E-04
   0.1430574409063697E-04
   0.2762943688028293E-04
  -0.4421095896571665E-04
   0.4164263462489443E-04
   0.2362192848945487E-04
   0.5497681806205887E-04
   0.6925946845186551E-04
  -0.1153676367275573E-05
   0.7430601497388573E-05
   0.7296633383495315E-05
   0.3327779031992897E-05
   0.3287596620277332E-05
   0.3832186532484658E-05
   0.3905928984345603E-05
   0.2545866650161012E-05
   0.4093644771033497E-06
   0.1425775136578688E-06
   0.1238492717273213E-05
   0.1277168402381252E-04
   0.5081758853179831E-05
  -0.5524887029596713E-05
   0.3244185112664909E-05
   0.4910196441684482E-05
   0.2507992111518942E-05
   0.5287909810150285E-05
   0.4700960866272811E-05
   0.5732963198181292E-05
   0.4986984944530051E-05
   0.4320763323599650E-05
   0.4914008943260288E-05
   0.3911694914719334E-05
   0.1900297388602031E-04
   0.3868969645971741E-05
   0.7916045213065559E-05
   0.5422775865617649E-05
   0.3111713238190116E-05
   0.3011395031454004E-05
   0.3167587162114509E-05
   0.3312083268403254E-05
   0.8291725357823343E-05
   0.9637928892090294E-05
  -0.1199759517970487E-05
  -0.7148863789896656E-05
   0.7537065472673034E-05
   0.6879436673929666E-05
  -0.9132444974118919E-05
  -0.1722562373294636E-04
  -0.2681068771149965E-04
   0.2245950330622719E-05
   0.9114565877061622E-05
   0.7507008476916330E-05
   0.1153089495618618E-04
   0.1035295807036381E-04
   0.1011340750859556E-04
   0.6520677162044612E-05
   0.4437666371495566E-05
   0.8694280482188412E-05
   0.8376852790050354E-05
   0.1009827956065190E-04
   0.2638445824832338E-05
   0.2453980195475705E-05
   0.2357106091735026E-05
   0.2428463443526770E-05
   0.3932735112367987E-05
   0.3900484322572296E-05
   0.3488396748779801E-05
   0.3139822083735894E-05
   0.3802659475677985E-05
   0.3695190301337993E-05
   0.3422622101572694E-05
   0.3077601651385901E-05
   0.2915185560897303E-05
   0.3531113670709462E-05
   0.3872206820381540E-05
   0.3721661915550314E-05
   0.3916493171270819E-05
   0.3956221230845350E-05
   0.3819839262279169E-05
   0.3630009587738475E-05
   0.3994070428034370E-05
   0.3922888816069974E-05
   0.3704339993512497E-05
   0.6110909372951421E-05
   0.1662570869937925E-06
   0.8280101051445941E-07
   0.9020327735474881E-06
   0.1184248022085019E-04
   0.1318693263521039E-05
   0.7134207409334466E-06
   0.8731128556403808E-06
   0.1034104214702896E-05
   0.6206028676754804E-07
  -0.3978762876576689E-06
   0.1031937832727316E-04
  -0.1287307191204052E-05
   0.1265245074903312E-05
   0.9087645490400647E-07
   0.2151285350831085E-06
   0.5052863942492491E-06
  -0.4855000580487190E-06
  -0.1460784280898775E-06
   0.1978930236331448E-04
   0.5517515873148913E-05
   0.4676130849401671E-06
   0.3462736850827892E-05
   0.6278084766163302E-05
   0.3154151571619950E-05
   0.7342379444938869E-05
   0.4981325098911134E-05
   0.6576557104964417E-05
   0.5820447584891524E-05
   0.4857968278838595E-05
   0.6728432314576997E-05
   0.5931198474677997E-05
   0.1788105019468873E-04
   0.9254040868786140E-05
   0.1080796830178179E-04
   0.6622528930645717E-05
   0.7615406188867806E-05
   0.4960484263841539E-05
   0.5729119013806938E-05
   0.1057056200535594E-04
   0.4249173220661744E-05
   0.1031719836117466E-04
   0.1549336143985874E-04
   0.2059053201709237E-05
   0.4121375807911734E-05
   0.2581328948509462E-05
   0.8024105485440679E-05
   0.2252414370486817E-04
   0.4105004937089142E-05
   0.6066528677104775E-05
   0.9664203236558650E-05
   0.6274419897370130E-05
   0.6870732036833967E-05
   0.8615310526944436E-05
   0.4953788535182616E-05
   0.4471478092808797E-05
   0.4681574793072770E-05
   0.9775867054798667E-05
   0.7369647219670942E-05
   0.3311153949256119E-05
   0.5276153116812609E-05
   0.8461934704354497E-05
   0.1512299765177741E-04
   0.3487772027561491E-05
   0.2925090116592764E-05
   0.3384357363578072E-04
   0.3621154577962020E-04
   0.1697451793168408E-04
   0.7834288785567496E-05
   0.1922762330753296E-04
   0.1194353161653536E-04
   0.2796091546749765E-04
   0.9157418400055325E-05
   0.2347478189897921E-04
   0.5989703428205412E-05
   0.4477596437909852E-05
   0.1070000387884806E-04
   0.7353795692128853E-05
   0.5239361512495415E-05
   0.8225818071997581E-05
   0.7407790243709581E-05
   0.7419402119069103E-05
   0.7729157640132222E-05
   0.2773000721934682E-05
  -0.1037940272691657E-04
   0.1101909199587697E-04
   0.1069714515324877E-04
   0.3497685481022998E-04
   0.1236544680267127E-04
   0.7358466320824793E-05
  -0.2240382901396200E-05
   0.5898154074517950E-05
   0.4494554835934441E-05
   0.4375986127277387E-05
   0.5757870618616818E-05
   0.7786151282202722E-05
   0.6849676035791947E-05
  -0.1631809411095003E-04
   0.1723619613749409E-05
   0.5032171011918853E-05
   0.5493172314794233E-05
   0.6023861461217502E-05
   0.9086811082961798E-05
   0.2159158941254879E-04
   0.2316745953783389E-04
SCALARS p double 1
LOOKUP_TABLE default
   0.1000044138712875E+01
   0.1000034468889856E+01
   0.9999568898767895E+00
   0.1000002249413411E+01
   0.1000031376728195E+01
   0.1000047123378535E+01
   0.9999805013232826E+00
   0.1000005841657279E+01
   0.1000011085472166E+01
   0.1000008836648862E+01
   0.9999917302062288E+00
   0.9999914059659105E+00
   0.1000084167816192E+01
   0.1000114968796990E+01
   0.1000079769801651E+01
   0.1000052721153229E+01
   0.1000083797459532E+01
   0.9999771994737032E+00
   0.9999789430464638E+00
   0.1000054241380238E+01
   0.1000049890457168E+01
   0.1000044263632973E+01
   0.1000042313793648E+01
   0.9999916957223849E+00
   0.9999378598495674E+00
   0.9999874114109257E+00
   0.9999952502077474E+00
   0.9999809531191449E+00
   0.9999277877859541E+00
   0.1000010103355621E+01
   0.9999786514318311E+00
   0.1000021881212176E+01
   0.1000030978320626E+01
   0.1000020455899499E+01
   0.1000014124037696E+01
   0.1000010871817715E+01
   0.1000009120347157E+01
   0.1000012241976259E+01
   0.1000014516036051E+01
   0.1000014932264834E+01
   0.1000013208788707E+01
   0.1000016704469090E+01
   0.1000021952503442E+01
   0.1000033718366321E+01
   0.1000027776567662E+01
   0.1000011754180619E+01
   0.1000011865445479E+01
   0.1000016332208996E+01
   0.1000018587738796E+01
   0.1000018932983032E+01
   0.1000019834404033E+01
   0.1000015731939173E+01
   0.1000013089280591E+01
   0.1000014214107972E+01
   0.1000013877854501E+01
   0.1000012619032702E+01
   0.1000012890469878E+01
   0.1000010615697802E+01
   0.1000008635080696E+01
   0.1000017131027946E+01
   0.1000015490637503E+01
   0.1000008905407946E+01
   0.1000008946171140E+01
   0.1000008676349169E+01
   0.1000009727132620E+01
   0.1000011206683232E+01
   0.1000015809494562E+01
   0.1000022275175192E+01
   0.1000020994294309E+01
   0.1000009537779481E+01
   0.1000009715530982E+01
   0.1000026772622047E+01
   0.1000040895884670E+01
   0.1000037899430272E+01
   0.1000013097880105E+01
   0.1000018548376645E+01
   0.1000009118637551E+01
   0.1000014546939095E+01
   0.1000013676662270E+01
   0.1000011280607896E+01
   0.1000008978327980E+01
   0.1000017660591313E+01
   0.1000012859821800E+01
   0.1000020947388781E+01
   0.1000014434272351E+01
   0.1000012848399426E+01
   0.1000012806802951E+01
   0.1000013056592436E+01
   0.1000013379085122E+01
   0.1000015523253138E+01
   0.1000014942716329E+01
   0.1000012696991707E+01
   0.1000011748329266E+01
   0.1000014346393445E+01
   0.1000014353058268E+01
   0.1000012179738994E+01
   0.1000012228327871E+01
   0.1000011382124205E+01
   0.1000013818449141E+01
   0.1000014584856050E+01
   0.1000013684078085E+01
   0.1000015729354742E+01
   0.1000015550618037E+01
   0.1000013910184592E+01
   0.1000013455347919E+01
   0.1000014781581411E+01
   0.1000015288136172E+01
   0.1000014339933845E+01
   0.1000039532743177E+01
   0.1000023259289094E+01
   0.1000017298173861E+01
   0.1000015586158956E+01
   0.1000043239974935E+01
   0.1000037997679502E+01
   0.1000016456935133E+01
   0.1000016131995025E+01
   0.1000015253621030E+01
   0.1000019596068394E+01
   0.1000020785494313E+01
   0.1000048293677863E+01
   0.1000030856108957E+01
   0.1000030522585109E+01
   0.1000037953751160E+01