# vtk DataFile Version 2.0
FUN3D:global_image_vtk
ASCII
DATASET UNSTRUCTURED_GRID
POINTS 213 double
   -0.5474224527974442E-02    0.2504942126395249E+01    0.8082163479709742E-04
    0.1245420076927911E+01    0.2504942126395249E+01    0.1048423406333747E-03
    0.2497696590160995E+01    0.2504942126395249E+01    0.1104835811035891E-03
    0.3750592000219026E+01    0.2504942126395249E+01    0.1364569463548605E-03
    0.5003221893556912E+01    0.2504942126395249E+01    0.9695062306590155E-04
    0.5004677757729920E+01    0.1281291915009508E+01    0.1646229089325689E-03
    0.5004773233264879E+01    0.2775197973707461E-01    0.1907233958898087E-03
    0.5003582221826302E+01   -0.1225852858115238E+01    0.1617086140448231E-03
    0.5001953053134341E+01   -0.2496588894989582E+01    0.1087092391278536E-03
    0.3750349122005743E+01   -0.2496588894989582E+01    0.1468754894505518E-03
    0.2498611963539370E+01   -0.2496588894989582E+01    0.1014099588108456E-03
    0.1247176261509184E+01   -0.2496588894989582E+01    0.1118958292209684E-03
   -0.3383469652657611E-02   -0.2496588894989582E+01    0.8163625948968850E-04
   -0.4256789880244687E-02   -0.1225734173000734E+01    0.3518763781415340E-04
   -0.5251125685943353E-02    0.2619601496228378E-01    0.1043778534218624E-03
   -0.5675101163759777E-02    0.1278222243537384E+01    0.8322048501216261E-04
    0.9003214217916410E+00    0.1608980307793919E+01    0.8747981908400907E-04
    0.3983173228635223E+01   -0.1561211262265163E+01    0.1766748191494282E-03
    0.4035602579387200E+01    0.1486761266132127E+01    0.1716706614120887E-03
    0.1036614706197514E+01   -0.1455625787804053E+01    0.1057334496957478E-03
    0.1094353949885533E+01   -0.2964610398686504E+00    0.1265432266614864E-03
    0.7298409877475077E+00    0.6874691505187871E+00    0.1054287163688421E-03
    0.1617019123562922E+01    0.8553219978724499E+00    0.1534204508725055E-03
    0.2143200653243059E+01   -0.1627127869719470E+01    0.1616130186569397E-03
    0.4088840979724988E+01   -0.4351036111772547E+00    0.2724112872097669E-03
    0.2977917509313417E+01   -0.8334984944044713E+00    0.2255152481764026E-03
    0.3044093743998018E+01   -0.1814360085627647E+01    0.1621866746874100E-03
    0.3427867629114648E+01    0.3813911924771510E+00    0.2945982215774265E-03
    0.4313225907775387E+01    0.5489145452878156E+00    0.2316713278243513E-03
    0.1823033713305206E+01    0.1771265914472351E+01    0.1845256048548493E-03
    0.2806311649527161E+01    0.1358630605773757E+01    0.1947351430204143E-03
    0.1891861854168060E+01   -0.8481303814089863E+00    0.1680436315511767E-03
    0.2268769674863574E+01    0.7723810290791060E-01    0.2076744350430877E-03
    0.5000000000000000E+01    0.2504942126395249E+01    0.1250000000000000E+01
    0.5000000000000000E+01    0.2504942126395249E+01    0.2500000000000000E+01
    0.5000000000000000E+01    0.2504942126395249E+01    0.3750000000000000E+01
    0.5000000000000000E+01    0.2504942126395249E+01    0.5000000000000000E+01
    0.3750000000000000E+01    0.2504942126395249E+01    0.5000000000000000E+01
    0.2500000000000000E+01    0.2504942126395249E+01    0.5000000000000000E+01
    0.1250000000000000E+01    0.2504942126395249E+01    0.5000000000000000E+01
    0.0000000000000000E+00    0.2504942126395249E+01    0.5000000000000000E+01
    0.0000000000000000E+00    0.2504942126395249E+01    0.3750000000000000E+01
    0.0000000000000000E+00    0.2504942126395249E+01    0.2500000000000000E+01
    0.0000000000000000E+00    0.2504942126395249E+01    0.1250000000000000E+01
    0.9588960369888059E+00    0.2504942126395249E+01    0.9696533634708029E+00
    0.3981953152435457E+01    0.2504942126395249E+01    0.4070563994312797E+01
    0.4036122760749434E+01    0.2504942126395249E+01    0.1017568211218936E+01
    0.9637572721113072E+00    0.2504942126395249E+01    0.3973598325903539E+01
    0.1546540225216466E+01    0.2504942126395249E+01    0.2931570546603170E+01
    0.6973799590153470E+00    0.2504942126395249E+01    0.3070320151810756E+01
    0.8903742902441736E+00    0.2504942126395249E+01    0.2056562651378697E+01
    0.2183042038777830E+01    0.2504942126395249E+01    0.3960694659634123E+01
    0.3855845055166628E+01    0.2504942126395249E+01    0.2933250909190150E+01
    0.3152611483937386E+01    0.2504942126395249E+01    0.3637668660428786E+01
    0.3103307439056094E+01    0.2504942126395249E+01    0.4332607953804900E+01
    0.3266711423522338E+01    0.2504942126395249E+01    0.1889657173291479E+01
    0.4232537818756438E+01    0.2504942126395249E+01    0.1918627332151839E+01
    0.1905523024840066E+01    0.2504942126395249E+01    0.7226299060056601E+00
    0.2879768362524973E+01    0.2504942126395249E+01    0.9080952800841882E+00
    0.2012711742452715E+01    0.2504942126395249E+01    0.1767083037650774E+01
    0.2669681670297051E+01    0.2504942126395249E+01    0.2853394772361394E+01
    0.5000000000000000E+01    0.1250000000000000E+01    0.5000000000000000E+01
    0.5000000000000000E+01    0.0000000000000000E+00    0.5000000000000000E+01
    0.5000000000000000E+01   -0.1250000000000000E+01    0.5000000000000000E+01
    0.5000000000000000E+01   -0.2496588894989582E+01    0.5000000000000000E+01
    0.5000000000000000E+01   -0.2496588894989582E+01    0.3750000000000000E+01
    0.5000000000000000E+01   -0.2496588894989582E+01    0.2500000000000000E+01
    0.5000000000000000E+01   -0.2496588894989582E+01    0.1250000000000000E+01
    0.5000000000000000E+01    0.1578994732800803E+01    0.9058375365086910E+00
    0.5000000000000000E+01   -0.1583989954232354E+01    0.3982050490726493E+01
    0.5000000000000000E+01    0.1453322699199022E+01    0.4033849428301197E+01
    0.5000000000000000E+01   -0.1479596339503735E+01    0.1040505887381675E+01
    0.5000000000000000E+01   -0.3227322616384110E+00    0.1099454400140349E+01
    0.5000000000000000E+01    0.6593508822075582E+00    0.7354504170366591E+00
    0.5000000000000000E+01    0.8256214013940779E+00    0.1622302608453282E+01
    0.5000000000000000E+01   -0.1650070333782557E+01    0.2145871574390382E+01
    0.5000000000000000E+01   -0.4612828702537229E+00    0.4086422318222992E+01
    0.5000000000000000E+01   -0.8579242121530853E+00    0.2979540174134984E+01
    0.5000000000000000E+01   -0.1836846154397680E+01    0.3045064261640043E+01
    0.5000000000000000E+01    0.3508002863614053E+00    0.3428197553792836E+01
    0.5000000000000000E+01    0.5185680230613409E+00    0.4309693860063405E+01
    0.5000000000000000E+01    0.1738996113203182E+01    0.1827272193562204E+01
    0.5000000000000000E+01    0.1325493893339706E+01    0.2808563282768077E+01
    0.5000000000000000E+01   -0.8731419609589618E+00    0.1895995683864404E+01
    0.5000000000000000E+01    0.4906150219227333E-01    0.2273179336307740E+01
    0.0000000000000000E+00    0.1250000000000000E+01    0.5000000000000000E+01
    0.0000000000000000E+00    0.0000000000000000E+00    0.5000000000000000E+01
    0.0000000000000000E+00   -0.1250000000000000E+01    0.5000000000000000E+01
    0.0000000000000000E+00   -0.2496588894989582E+01    0.5000000000000000E+01
    0.1250000000000000E+01   -0.2496588894989582E+01    0.5000000000000000E+01
    0.2500000000000000E+01   -0.2496588894989582E+01    0.5000000000000000E+01
    0.3750000000000000E+01   -0.2496588894989582E+01    0.5000000000000000E+01
    0.4042003247744892E+01    0.1558308132739014E+01    0.5000000000000000E+01
    0.9304122287900499E+00   -0.1548001304379777E+01    0.5000000000000000E+01
    0.1037243024609388E+01    0.1462892710085612E+01    0.5000000000000000E+01
    0.3946240828834967E+01   -0.1445243809615570E+01    0.5000000000000000E+01
    0.4092527262848217E+01   -0.3455338993778935E+00    0.5000000000000000E+01
    0.4293103109154542E+01    0.6277660831404320E+00    0.5000000000000000E+01
    0.3241512314643519E+01    0.7429886854239611E+00    0.5000000000000000E+01
    0.2844289952419609E+01   -0.1588117879734118E+01    0.5000000000000000E+01
    0.7159905765450471E+00   -0.6002320124191652E+00    0.5000000000000000E+01
    0.1754341919796891E+01   -0.7398147869923652E+00    0.5000000000000000E+01
    0.1870296826774691E+01   -0.1788622905643739E+01    0.5000000000000000E+01
    0.9220614901912976E+00    0.3083720183248586E+00    0.5000000000000000E+01
    0.3101523624086016E+01    0.1777901774806180E+01    0.5000000000000000E+01
    0.2192512063922564E+01    0.1576861561598471E+01    0.5000000000000000E+01
    0.2024793420196460E+01    0.4773861992750707E+00    0.5000000000000000E+01
    0.2990627757741975E+01   -0.4878110785814084E+00    0.5000000000000000E+01
    0.0000000000000000E+00   -0.2496588894989582E+01    0.1250000000000000E+01
    0.0000000000000000E+00   -0.2496588894989582E+01    0.2500000000000000E+01
    0.0000000000000000E+00   -0.2496588894989582E+01    0.3750000000000000E+01
    0.0000000000000000E+00    0.1558308132739014E+01    0.4042003247744892E+01
    0.0000000000000000E+00   -0.1548001304379777E+01    0.9304122287900499E+00
    0.0000000000000000E+00    0.1462892710085612E+01    0.1037243024609388E+01
    0.0000000000000000E+00   -0.1445243809615570E+01    0.3946240828834967E+01
    0.0000000000000000E+00   -0.3455338993778935E+00    0.4092527262848217E+01
    0.0000000000000000E+00    0.6277660831404320E+00    0.4293103109154542E+01
    0.0000000000000000E+00    0.7429886854239611E+00    0.3241512314643519E+01
    0.0000000000000000E+00   -0.1588117879734118E+01    0.2844289952419609E+01
    0.0000000000000000E+00   -0.6002320124191652E+00    0.7159905765450471E+00
    0.0000000000000000E+00   -0.7398147869923652E+00    0.1754341919796891E+01
    0.0000000000000000E+00   -0.1788622905643739E+01    0.1870296826774691E+01
    0.0000000000000000E+00    0.3083720183248586E+00    0.9220614901912976E+00
    0.0000000000000000E+00    0.1777901774806180E+01    0.3101523624086016E+01
    0.0000000000000000E+00    0.1576861561598471E+01    0.2192512063922564E+01
[...]
POINT_DATA 213
SCALARS u double 1
LOOKUP_TABLE default
   0.9999813284811306E+00
   0.1000027640386939E+01
   0.1000058943816066E+01
   0.1000048926557402E+01
   0.1000014643250933E+01
   0.1000011000778346E+01
   0.1000014249020912E+01
   0.1000016438025223E+01
   0.1000019833409955E+01
   0.1000055557525754E+01
   0.1000053079621037E+01
   0.1000036537228429E+01
   0.9999937857789376E+00
   0.9999922461177946E+00
   0.9999886171290921E+00
   0.9999837433278927E+00
   0.1000009964729417E+01
   0.1000062909643987E+01
   0.1000053208606752E+01
   0.1000034742336083E+01
   0.1000020883228806E+01
   0.1000002606893739E+01
   0.1000037834024619E+01
   0.1000057341000195E+01
   0.1000066632341598E+01
   0.1000076968627071E+01
   0.1000065297008253E+01
   0.1000081079952817E+01
   0.1000056211166042E+01
   0.1000050763659265E+01
   0.1000061518266142E+01
   0.1000052592783273E+01
   0.1000063322625294E+01
   0.1000008452606152E+01
   0.1000005120143378E+01
   0.1000002810293867E+01
   0.1000001898996830E+01
   0.9999972108515148E+00
   0.9999954332035108E+00
   0.9999951251358048E+00
   0.9999969053910517E+00
   0.9999965869278915E+00
   0.9999953177499808E+00
   0.9999924367169156E+00
   0.1000001110751162E+01
   0.9999994244374697E+00
   0.1000024128521844E+01
   0.9999961478321897E+00
   0.9999977223260696E+00
   0.9999964670282426E+00
   0.9999978962834446E+00
   0.9999966118678171E+00
   0.1000002926223714E+01
   0.9999986850006745E+00
   0.9999970693120305E+00
   0.1000012795281666E+01
   0.1000010395367434E+01
   0.1000026877507376E+01
   0.1000034025568117E+01
   0.1000007193299291E+01
   0.1000000989143970E+01
   0.1000002092194831E+01
   0.1000002117792310E+01
   0.1000001809258910E+01
   0.1000002016721258E+01
   0.1000002838612166E+01
   0.1000005390489234E+01
   0.1000009998676728E+01
   0.1000011376043736E+01
   0.1000002732969321E+01
   0.1000002610900508E+01
   0.1000011970630351E+01
   0.1000009508115332E+01
   0.1000009486625475E+01
   0.1000009816372247E+01
   0.1000006593962274E+01
   0.1000002616659594E+01
   0.1000004384921703E+01
   0.1000003994789996E+01
   0.1000003218357862E+01
   0.1000002618992694E+01
   0.1000006794097272E+01
   0.1000004415381133E+01
   0.1000008916985413E+01
   0.1000006899578527E+01
   0.9999972415935714E+00
   0.9999972771411699E+00
   0.9999971072030501E+00
   0.9999968166828159E+00
   0.9999950207065724E+00
   0.9999953940226959E+00
   0.9999975996263260E+00
   0.9999978673629276E+00
   0.9999954603987758E+00
   0.9999953922198748E+00
   0.9999979539840692E+00
   0.9999981132863720E+00
   0.9999987755438757E+00
   0.9999957677431742E+00
   0.9999957314093788E+00
   0.9999959192798163E+00
   0.9999948728335258E+00
   0.9999949502237495E+00
   0.9999956591992974E+00
   0.9999958701022459E+00
   0.9999951158363628E+00
   0.9999948157026101E+00
   0.9999956352417236E+00
   0.9999919300496530E+00
   0.9999949198129118E+00
   0.9999962705812111E+00
   0.9999965661460355E+00
   0.9999869215499976E+00
   0.9999897077857844E+00
   0.9999963249751651E+00
   0.9999966536273552E+00
   0.9999968689604969E+00
   0.9999959083209227E+00
   0.9999946267816056E+00
   0.9999877227058657E+00
   0.9999917372395827E+00
   0.9999941695243928E+00
   0.9999879986215090E+00
   0.9999960280063890E+00
   0.9999943559217048E+00
   0.9999935700543878E+00
   0.9999952216915643E+00
   0.1000008634938752E+01
   0.9999997842368545E+00
   0.1000029324911504E+01
   0.9999961481977080E+00
   0.9999980452758944E+00
   0.9999962870892237E+00
   0.9999986623313559E+00
   0.9999968299586037E+00
   0.1000003039039518E+01
   0.9999993173961063E+00
   0.9999974917873616E+00
   0.1000013906643269E+01
   0.1000011715793126E+01
   0.1000033140608034E+01
   0.1000035150058661E+01
   0.1000009754288666E+01
   0.1000001946040844E+01
   0.1000001498575718E+01
   0.9999970113030191E+00
   0.9999978420111821E+00
   0.1000001884962981E+01
   0.9999954672394282E+00
   0.9999973584648757E+00
   0.1000005059856504E+01
   0.9999958291192020E+00
   0.9999964864222169E+00
   0.9999959577531378E+00
   0.1000001030354887E+01
   0.1000006725261356E+01
   0.9999957354820441E+00
   0.9999997074480191E+00
   0.1000011259311861E+01
   0.1000003977611105E+01
   0.9999999335181832E+00
   0.1000006965205346E+01
   0.9999965160506638E+00
   0.9999960222208484E+00
   0.9999976519426645E+00
   0.1000004320427753E+01
   0.1000000066671644E+01
   0.9999957831508439E+00
   0.9999961374151063E+00
   0.1000000754244518E+01
   0.1000011210612458E+01
   0.9999956756817237E+00
   0.9999961250090350E+00
   0.1000032086518270E+01
   0.1000025046228395E+01
   0.1000014619303981E+01
   0.1000006197816970E+01
   0.1000026393157146E+01
   0.1000010674726569E+01
   0.1000006504405023E+01
   0.9999970004882376E+00
   0.1000004373858476E+01
   0.9999994165012662E+00
   0.9999968300697695E+00
   0.1000008611997083E+01
   0.1000005435161639E+01
   0.1000018035425063E+01
   0.1000006722407246E+01
   0.1000001544681812E+01
   0.1000000954577278E+01
   0.1000002081783898E+01
   0.1000017296195682E+01
   0.1000025186083835E+01
   0.1000021682402009E+01
   0.1000012152972201E+01
   0.1000040693678146E+01
   0.1000027638218081E+01
   0.1000020229480639E+01
   0.1000026399887130E+01
   0.1000052793394586E+01
   0.9999967159260251E+00
   0.9999958049175365E+00
   0.9999984777346108E+00
   0.1000001548123525E+01
   0.1000045626757672E+01
   0.1000045908530276E+01
   0.1000043095248540E+01
   0.9999970248869383E+00
   0.9999988943295690E+00
   0.1000000449809356E+01
   0.1000007930901233E+01
   0.1000022505022914E+01
   0.1000050527102061E+01
SCALARS v double 1
LOOKUP_TABLE default
   0.0000000000000000E+00
   0.0000000000000000E+00
   0.0000000000000000E+00
   0.0000000000000000E+00
   0.0000000000000000E+00
  -0.1532241852241036E-04
  -0.3662482317760941E-05
   0.1326022634863605E-04
   0.0000000000000000E+00
   0.0000000000000000E+00
   0.0000000000000000E+00
   0.0000000000000000E+00
   0.0000000000000000E+00
   0.1974243131248478E-06
   0.7750442841151135E-05
   0.1798094143088024E-05
   0.5608008554839500E-06
   0.1258482909809440E-04
  -0.7258949276071115E-05
  -0.1174419379571563E-04
   0.2781181249799548E-05
   0.2710742612775906E-05
   0.6546446965989145E-05
  -0.1001620037167766E-04
   0.8120371001012906E-05
  -0.3376991290016282E-05
  -0.8574982716627252E-06
   0.3541443614131373E-05
  -0.1194181296953883E-04
   0.1028909096106682E-04
   0.8929114151177372E-05
  -0.8951801737617065E-05
   0.2108280229854394E-05
   0.0000000000000000E+00
   0.0000000000000000E+00
   0.0000000000000000E+00
   0.0000000000000000E+00
   0.0000000000000000E+00
   0.0000000000000000E+00
   0.0000000000000000E+00
   0.0000000000000000E+00
   0.0000000000000000E+00
   0.0000000000000000E+00
   0.0000000000000000E+00
   0.0000000000000000E+00
   0.0000000000000000E+00
   0.0000000000000000E+00
   0.0000000000000000E+00
   0.0000000000000000E+00
   0.0000000000000000E+00
   0.0000000000000000E+00
   0.0000000000000000E+00
   0.0000000000000000E+00
   0.0000000000000000E+00
   0.0000000000000000E+00
   0.0000000000000000E+00
   0.0000000000000000E+00
   0.0000000000000000E+00
   0.0000000000000000E+00
   0.0000000000000000E+00
   0.0000000000000000E+00
   0.4835396828248145E-06
   0.1619172371771895E-06
   0.7544634841560034E-08
   0.0000000000000000E+00
   0.0000000000000000E+00
   0.0000000000000000E+00
   0.0000000000000000E+00
  -0.2697843666665342E-05
   0.1297844957708063E-06
   0.7779119114780692E-06
   0.3853731230727261E-05
   0.2874323161364177E-05
  -0.4921612612795625E-05
   0.1721709557965241E-05
   0.3671074218955389E-07
   0.5332839452251508E-06
   0.5298752440149829E-06
  -0.2302778933303365E-06
   0.1521260399047207E-05
   0.7906794237135542E-06
   0.1074628555445741E-06
   0.1331382573100031E-05
   0.8838324598270412E-06
   0.2414616252340613E-05
  -0.1267612702491225E-06
   0.2783302852631666E-07
   0.1708277961716353E-06
   0.0000000000000000E+00
   0.0000000000000000E+00
   0.0000000000000000E+00
   0.0000000000000000E+00
   0.5132120186882485E-06
   0.2834659155722178E-06
  -0.2545447098093910E-06
  -0.1981445738537020E-06
  -0.5161928145686934E-07
   0.3678324484669918E-06
   0.2213335760736025E-06
  -0.3328042444086752E-08
   0.2616294782987671E-06
   0.1543810835823684E-06
   0.1757397598475965E-06
   0.1508239132920629E-06
   0.1713053852773110E-06
  -0.8948427721380506E-07
  -0.3222481065305635E-07
  -0.8529746821306807E-07
   0.0000000000000000E+00
   0.0000000000000000E+00
   0.0000000000000000E+00
   0.7709102816604693E-07
  -0.6919289984945653E-07
   0.1350832552334152E-05
  -0.1001056221192886E-06
  -0.7130054807770761E-07
  -0.4005599426152496E-08
  -0.1342746208653961E-06
  -0.4109817383204694E-07
   0.5884244174608198E-05
   0.1021497921245763E-05
   0.1668688965865230E-06
   0.3706955437006343E-05
   0.1804377265228331E-06
   0.2457896963366822E-06
  -0.3736263822520079E-06
  -0.7483004934537678E-06
   0.0000000000000000E+00
   0.0000000000000000E+00
   0.0000000000000000E+00
   0.0000000000000000E+00
   0.0000000000000000E+00
   0.0000000000000000E+00
   0.0000000000000000E+00
   0.0000000000000000E+00
   0.0000000000000000E+00
   0.0000000000000000E+00
   0.0000000000000000E+00
   0.0000000000000000E+00
   0.0000000000000000E+00
   0.0000000000000000E+00
   0.0000000000000000E+00
   0.0000000000000000E+00
   0.0000000000000000E+00
   0.1355950976078952E-05
  -0.1215128981171657E-06
   0.7853075806699388E-06
   0.1329470645577975E-05
   0.4165293008947614E-06
   0.1642697906182546E-05
   0.3205159142015286E-05
  -0.2261271812346893E-06
   0.8244724910843643E-07
   0.8881491454627935E-08
   0.1722283864488258E-05
   0.3512338751806792E-05
   0.2500049316446350E-07
   0.9240067576892172E-06
   0.1971494214254785E-05
   0.1483329455490422E-05
   0.1137087639266902E-05
   0.1935639094385870E-05
   0.2488471891495673E-06
   0.1543175687932197E-06
   0.5250952854501225E-06
   0.1304558265255501E-05
   0.4326852167927829E-06
  -0.1310797059689028E-06
   0.1991771336031944E-06
  -0.2251297760460822E-06
  -0.5586350136842710E-06
   0.3779000091775573E-07
  -0.7177990779580902E-07
   0.7056720248516552E-05
   0.1146217247262844E-05
   0.2099731354718040E-05
   0.1853077940613842E-05
   0.6190129494439555E-05
   0.3376109232056756E-05
   0.2405670265154921E-05
  -0.7892516681834362E-07
   0.7214544506944789E-06
   0.7108946468481229E-06
   0.2646095489216312E-06
  -0.1627071279144254E-06
  -0.5365636826538784E-06
   0.6426699072982785E-06
  -0.5209970843973917E-06
  -0.2879831381579867E-06
   0.4087390849864580E-06
  -0.5521110246035453E-06
   0.6016928077058122E-06
  -0.3932790999976337E-05
   0.3692981810463240E-05
  -0.2100770781601032E-06
  -0.4140294495911186E-05
  -0.1834184899431057E-05
   0.1429258638047507E-05
   0.4336749857994275E-05
   0.3578679445988385E-05
   0.2038538584554235E-07
  -0.1417832540206844E-06
   0.2850784459098099E-06
   0.1410209985717146E-05
   0.1225980566541664E-05
   0.3941021932487485E-06
   0.4104842344215430E-05
  -0.1521931520569480E-06
  -0.1556008442021522E-06
   0.8817662692856626E-06
  -0.1026897548600095E-05
  -0.3406321667179830E-05
   0.4443078828456610E-06
SCALARS w double 1
LOOKUP_TABLE default
   0.7685609062032068E-05
   0.3832544159586774E-04
   0.8216750296953358E-05
  -0.6028616001095900E-05
  -0.1698837537296262E-04
  -0.3107438323281986E-04
  -0.6926839179224722E-04
  -0.4449476897121418E-04
  -0.2588613180435428E-04
  -0.2229498183487706E-05
   0.1180955607806001E-04
   0.2367543965503151E-04
   0.2365589736012926E-04
   0.3598319641474734E-04
   0.1230039572142463E-04
   0.1143593803045855E-04
   0.4307012101583430E-04
  -0.1562727761874966E-04
  -0.1468293276274720E-04
   0.4752899942912005E-04
   0.4600642229439457E-04
   0.2885032439009549E-04
   0.5721605152605805E-04
   0.2572908805231422E-04
  -0.2806562226028775E-04
   0.3551240676240373E-04
   0.1430574334409924E-04
   0.2762943687599444E-04
  -0.4421095928392139E-04
   0.4164263485294510E-04
   0.2362192891249579E-04
   0.5497681730522621E-04
   0.6925946821163080E-04
  -0.1153676964456938E-05
   0.7430601366761293E-05
   0.7296633277262796E-05
   0.3327778958247089E-05
   0.3287596653700293E-05
   0.3832186614302006E-05
   0.3905929038523381E-05
   0.2545866655600099E-05
   0.4093646049596755E-06
   0.1425774667156423E-06
   0.1238492792617451E-05
   0.1277168427270103E-04
   0.5081758513752995E-05
  -0.5524887278468486E-05
   0.3244185142996768E-05
   0.4910196402109948E-05
   0.2507992128577271E-05
   0.5287909819271540E-05
   0.4700960807533323E-05
   0.5732962732636276E-05
   0.4986984702770333E-05
   0.4320763177037420E-05
   0.4914008680225244E-05
   0.3911694580933841E-05
   0.1900297420143006E-04
   0.3868969867945871E-05
   0.7916045251759844E-05
   0.5422775667736068E-05
   0.3111713261277370E-05
   0.3011395099182988E-05
   0.3167587202174404E-05
   0.3312083268956384E-05
   0.8291724779422223E-05
   0.9637929496238053E-05
  -0.1199756575043531E-05
  -0.7148864608521024E-05
   0.7537064976267899E-05
   0.6879436502828498E-05
  -0.9132442875392426E-05
  -0.1722562365496464E-04
  -0.2681068812213113E-04
   0.2245949597482155E-05
   0.9114566930963742E-05
   0.7507008100496257E-05
   0.1153089445469154E-04
   0.1035295779848251E-04
   0.1011340705814422E-04
   0.6520676999788266E-05
   0.4437665872296700E-05
   0.8694280150341138E-05
   0.8376853351097839E-05
   0.1009827902648929E-04
   0.2638445789174104E-05
   0.2453980163912291E-05
   0.2357106044952768E-05
   0.2428463415215323E-05
   0.3932734881265600E-05
   0.3900484214576882E-05
   0.3488396788607698E-05
   0.3139822119625727E-05
   0.3802659357546456E-05
   0.3695190312286247E-05
   0.3422622240184200E-05
   0.3077601806467542E-05
   0.2915185650697305E-05
   0.3531113738270033E-05
   0.3872206768222089E-05
   0.3721661887644949E-05
   0.3916493046546515E-05
   0.3956221080142378E-05
   0.3819839239938530E-05
   0.3630009728551357E-05
   0.3994070482812675E-05
   0.3922888809392458E-05
   0.3704340021980838E-05
   0.6110908977764424E-05
   0.1662569033674224E-06
   0.8280088583892055E-07
   0.9020328312663342E-06
   0.1184248011689026E-04
   0.1318693527339310E-05
   0.7134205409757265E-06
   0.8731126687876044E-06
   0.1034104164338366E-05
   0.6206025745014488E-07
  -0.3978764922066929E-06
   0.1031937843160838E-04
  -0.1287307125929434E-05
   0.1265244872073416E-05
   0.9087655240512423E-07
   0.2151285853840647E-06
   0.5052864521034143E-06
  -0.4854999548639807E-06
  -0.1460784739880606E-06
   0.1978930217675531E-04
   0.5517516369138169E-05
   0.4676141243756976E-06
   0.3462736766789239E-05
   0.6278084941035890E-05
   0.3154151433182327E-05
   0.7342379362162973E-05
   0.4981325579906963E-05
   0.6576557838426829E-05
   0.5820448406276988E-05
   0.4857968787577955E-05
   0.6728433152105786E-05
   0.5931199718340099E-05
   0.1788105031089204E-04
   0.9254041364316242E-05
   0.1080796863027378E-04
   0.6622529756234388E-05
   0.7615406305253462E-05
   0.4960484398511925E-05
   0.5729119039950186E-05
   0.1057056197591256E-04
   0.4249173319473416E-05
   0.1031719839280880E-04
   0.1549336136135194E-04
   0.2059053198150529E-05
   0.4121375778632714E-05
   0.2581328975706425E-05
   0.8024105549820980E-05
   0.2252414373217695E-04
   0.4105005007232093E-05
   0.6066528620684778E-05
   0.9664202938086536E-05
   0.6274419523446472E-05
   0.6870732079443385E-05
   0.8615309988100435E-05
   0.4953788725906637E-05
   0.4471478140366921E-05
   0.4681574754053937E-05
   0.9775866942766413E-05
   0.7369647716992590E-05
   0.3311153957865859E-05
   0.5276153088766869E-05
   0.8461934590620273E-05
   0.1512299757713514E-04
   0.3487771991137747E-05
   0.2925089989319710E-05
   0.3384357355939901E-04
   0.3621154542362696E-04
   0.1697451783814529E-04
   0.7834288679717343E-05
   0.1922762336056888E-04
   0.1194353155806009E-04
   0.2796091531913344E-04
   0.9157418201398496E-05
   0.2347478176795773E-04
   0.5989703381446839E-05
   0.4477596370921363E-05
   0.1070000380916059E-04
   0.7353796367975776E-05
   0.5239362568123623E-05
   0.8225818699907630E-05
   0.7407790363433682E-05
   0.7419402131502631E-05
   0.7729158360333312E-05
   0.2773000246403257E-05
  -0.1037940331446322E-04
   0.1101909189493741E-04
   0.1069714543030271E-04
   0.3497685430626689E-04
   0.1236544697448413E-04
   0.7358465958058475E-05
  -0.2240382635631608E-05
   0.5898153881899479E-05
   0.4494554880409221E-05
   0.4375986361444816E-05
   0.5757870850798483E-05
   0.7786151016185147E-05
   0.6849675793405801E-05
  -0.1631809436746743E-04
   0.1723620002324680E-05
   0.5032171417298715E-05
   0.5493172808723869E-05
   0.6023861150734203E-05
   0.9086811665962717E-05
   0.2159158921592831E-04
   0.2316745911408325E-04
SCALARS p double 1
LOOKUP_TABLE default
   0.1000044138712912E+01
   0.1000034468889704E+01
   0.9999568898761346E+00
   0.1000002249412901E+01
   0.1000031376727463E+01
   0.1000047123378459E+01
   0.9999805013235036E+00
   0.1000005841658228E+01
   0.1000011085472613E+01
   0.1000008836650995E+01
   0.9999917302073529E+00
   0.9999914059669621E+00
   0.1000084167815135E+01
   0.1000114968796687E+01
   0.1000079769801330E+01
   0.1000052721152768E+01
   0.1000083797459044E+01
   0.9999771994756603E+00
   0.9999789430456698E+00
   0.1000054241379954E+01
   0.1000049890457066E+01
   0.1000044263633170E+01
   0.1000042313793686E+01
   0.9999916957223618E+00
   0.9999378598502354E+00
   0.9999874114114943E+00
   0.9999952502086183E+00
   0.9999809531188625E+00
   0.9999277877856684E+00
   0.1000010103355539E+01
   0.9999786514311568E+00
   0.1000021881212618E+01
   0.1000030978320550E+01
   0.1000020455899240E+01
   0.1000014124037646E+01
   0.1000010871817375E+01
   0.1000009120347162E+01
   0.1000012241976607E+01
   0.1000014516036272E+01
   0.1000014932264795E+01
   0.1000013208788507E+01
   0.1000016704469031E+01
   0.1000021952503498E+01
   0.1000033718366380E+01
   0.1000027776567920E+01
   0.1000011754180645E+01
   0.1000011865445213E+01
   0.1000016332209007E+01
   0.1000018587738824E+01
   0.1000018932983090E+01
   0.1000019834403899E+01
   0.1000015731939273E+01
   0.1000013089280703E+01
   0.1000014214108030E+01
   0.1000013877854476E+01
   0.1000012619032740E+01
   0.1000012890470387E+01
   0.1000010615697859E+01
   0.1000008635080996E+01
   0.1000017131027637E+01
   0.1000015490637705E+01
   0.1000008905408083E+01
   0.1000008946171730E+01
   0.1000008676350391E+01
   0.1000009727133944E+01
   0.1000011206683243E+01
   0.1000015809494066E+01
   0.1000022275174577E+01
   0.1000020994294309E+01
   0.1000009537780153E+01
   0.1000009715531052E+01
   0.1000026772623005E+01
   0.1000040895884510E+01
   0.1000037899429937E+01
   0.1000013097880295E+01
   0.1000018548375382E+01
   0.1000009118638126E+01
   0.1000014546939236E+01
   0.1000013676661988E+01
   0.1000011280608225E+01
   0.1000008978328089E+01
   0.1000017660591361E+01
   0.1000012859821918E+01
   0.1000020947387669E+01
   0.1000014434272341E+01
   0.1000012848399465E+01
   0.1000012806802878E+01
   0.1000013056592472E+01
   0.1000013379085258E+01
   0.1000015523253084E+01
   0.1000014942715996E+01
   0.1000012696991925E+01
   0.1000011748329578E+01
   0.1000014346393257E+01
   0.1000014353058143E+01
   0.1000012179739260E+01
   0.1000012228328089E+01
   0.1000011382124485E+01
   0.1000013818449144E+01
   0.1000014584855801E+01
   0.1000013684077835E+01
   0.1000015729354793E+01
   0.1000015550617872E+01
   0.1000013910184478E+01
   0.1000013455348066E+01
   0.1000014781581414E+01
   0.1000015288136056E+01
   0.1000014339933719E+01
   0.1000039532743556E+01
   0.1000023259289124E+01
   0.1000017298174082E+01
   0.1000015586158815E+01
   0.1000043239974618E+01
   0.1000037997679780E+01
   0.1000016456935291E+01
   0.1000016131994893E+01
   0.1000015253620942E+01
   0.1000019596068370E+01
   0.1000020785494602E+01
   0.1000048293677687E+01
   0.1000030856109148E+01
   0.1000030522585055E+01
   0.1000037953750868E+01