# vtk DataFile Version 2.0
FUN3D:global_image_vtk
ASCII
DATASET UNSTRUCTURED_GRID
POINTS 213 double
   -0.5474224527974483E-02    0.2504942126395249E+01    0.8082163479709807E-04
    0.1245420076927911E+01    0.2504942126395249E+01    0.1048423406333755E-03
    0.2497696590160995E+01    0.2504942126395249E+01    0.1104835811035898E-03
    0.3750592000219026E+01    0.2504942126395249E+01    0.1364569463548616E-03
    0.5003221893556912E+01    0.2504942126395249E+01    0.9695062306590234E-04
    0.5004677757729920E+01    0.1281291915009508E+01    0.1646229089325702E-03
    0.5004773233264879E+01    0.2775197973707481E-01    0.1907233958898103E-03
    0.5003582221826302E+01   -0.1225852858115238E+01    0.1617086140448244E-03
    0.5001953053134341E+01   -0.2496588894989582E+01    0.1087092391278544E-03
    0.3750349122005743E+01   -0.2496588894989582E+01    0.1468754894505531E-03
    0.2498611963539370E+01   -0.2496588894989582E+01    0.1014099588108464E-03
    0.1247176261509184E+01   -0.2496588894989582E+01    0.1118958292209694E-03
   -0.3383469652657636E-02   -0.2496588894989582E+01    0.8163625948968915E-04
   -0.4256789880244721E-02   -0.1225734173000734E+01    0.3518763781415367E-04
   -0.5251125685943395E-02    0.2619601496228399E-01    0.1043778534218632E-03
   -0.5675101163759827E-02    0.1278222243537384E+01    0.8322048501216326E-04
    0.9003214217916410E+00    0.1608980307793919E+01    0.8747981908400985E-04
    0.3983173228635223E+01   -0.1561211262265163E+01    0.1766748191494295E-03
    0.4035602579387200E+01    0.1486761266132127E+01    0.1716706614120900E-03
    0.1036614706197514E+01   -0.1455625787804053E+01    0.1057334496957486E-03
    0.1094353949885533E+01   -0.2964610398686504E+00    0.1265432266614875E-03
    0.7298409877475077E+00    0.6874691505187871E+00    0.1054287163688429E-03
    0.1617019123562922E+01    0.8553219978724499E+00    0.1534204508725068E-03
    0.2143200653243059E+01   -0.1627127869719470E+01    0.1616130186569410E-03
    0.4088840979724988E+01   -0.4351036111772547E+00    0.2724112872097695E-03
    0.2977917509313417E+01   -0.8334984944044713E+00    0.2255152481764045E-03
    0.3044093743998018E+01   -0.1814360085627647E+01    0.1621866746874113E-03
    0.3427867629114648E+01    0.3813911924771510E+00    0.2945982215774291E-03
    0.4313225907775387E+01    0.5489145452878156E+00    0.2316713278243532E-03
    0.1823033713305206E+01    0.1771265914472351E+01    0.1845256048548506E-03
    0.2806311649527161E+01    0.1358630605773757E+01    0.1947351430204159E-03
    0.1891861854168060E+01   -0.8481303814089863E+00    0.1680436315511780E-03
    0.2268769674863574E+01    0.7723810290791078E-01    0.2076744350430893E-03
    0.5000000000000000E+01    0.2504942126395249E+01    0.1250000000000000E+01
    0.5000000000000000E+01    0.2504942126395249E+01    0.2500000000000000E+01
    0.5000000000000000E+01    0.2504942126395249E+01    0.3750000000000000E+01
    0.5000000000000000E+01    0.2504942126395249E+01    0.5000000000000000E+01
    0.3750000000000000E+01    0.2504942126395249E+01    0.5000000000000000E+01
    0.2500000000000000E+01    0.2504942126395249E+01    0.5000000000000000E+01
    0.1250000000000000E+01    0.2504942126395249E+01    0.5000000000000000E+01
    0.0000000000000000E+00    0.2504942126395249E+01    0.5000000000000000E+01
    0.0000000000000000E+00    0.2504942126395249E+01    0.3750000000000000E+01
    0.0000000000000000E+00    0.2504942126395249E+01    0.2500000000000000E+01
    0.0000000000000000E+00    0.2504942126395249E+01    0.1250000000000000E+01
    0.9588960369888060E+00    0.2504942126395249E+01    0.9696533634708027E+00
    0.3981953152435456E+01    0.2504942126395249E+01    0.4070563994312796E+01
    0.4036122760749434E+01    0.2504942126395249E+01    0.1017568211218936E+01
    0.9637572721113067E+00    0.2504942126395249E+01    0.3973598325903539E+01
    0.1546540225216465E+01    0.2504942126395249E+01    0.2931570546603169E+01
    0.6973799590153461E+00    0.2504942126395249E+01    0.3070320151810756E+01
    0.8903742902441725E+00    0.2504942126395249E+01    0.2056562651378696E+01
    0.2183042038777829E+01    0.2504942126395249E+01    0.3960694659634122E+01
    0.3855845055166628E+01    0.2504942126395249E+01    0.2933250909190150E+01
    0.3152611483937385E+01    0.2504942126395249E+01    0.3637668660428784E+01
    0.3103307439056093E+01    0.2504942126395249E+01    0.4332607953804898E+01
    0.3266711423522338E+01    0.2504942126395249E+01    0.1889657173291478E+01
    0.4232537818756437E+01    0.2504942126395249E+01    0.1918627332151838E+01
    0.1905523024840066E+01    0.2504942126395249E+01    0.7226299060056600E+00
    0.2879768362524973E+01    0.2504942126395249E+01    0.9080952800841881E+00
    0.2012711742452715E+01    0.2504942126395249E+01    0.1767083037650773E+01
    0.2669681670297050E+01    0.2504942126395249E+01    0.2853394772361392E+01
    0.5000000000000000E+01    0.1250000000000000E+01    0.5000000000000000E+01
    0.5000000000000000E+01    0.0000000000000000E+00    0.5000000000000000E+01
    0.5000000000000000E+01   -0.1250000000000000E+01    0.5000000000000000E+01
    0.5000000000000000E+01   -0.2496588894989582E+01    0.5000000000000000E+01
    0.5000000000000000E+01   -0.2496588894989582E+01    0.3750000000000000E+01
    0.5000000000000000E+01   -0.2496588894989582E+01    0.2500000000000000E+01
    0.5000000000000000E+01   -0.2496588894989582E+01    0.1250000000000000E+01
    0.5000000000000000E+01    0.1578994732800803E+01    0.9058375365086910E+00
    0.5000000000000000E+01   -0.1583989954232354E+01    0.3982050490726493E+01
    0.5000000000000000E+01    0.1453322699199022E+01    0.4033849428301197E+01
    0.5000000000000000E+01   -0.1479596339503735E+01    0.1040505887381675E+01
    0.5000000000000000E+01   -0.3227322616384110E+00    0.1099454400140349E+01
    0.5000000000000000E+01    0.6593508822075582E+00    0.7354504170366591E+00
    0.5000000000000000E+01    0.8256214013940779E+00    0.1622302608453282E+01
    0.5000000000000000E+01   -0.1650070333782557E+01    0.2145871574390382E+01
    0.5000000000000000E+01   -0.4612828702537229E+00    0.4086422318222992E+01
    0.5000000000000000E+01   -0.8579242121530853E+00    0.2979540174134984E+01
    0.5000000000000000E+01   -0.1836846154397680E+01    0.3045064261640043E+01
    0.5000000000000000E+01    0.3508002863614053E+00    0.3428197553792836E+01
    0.5000000000000000E+01    0.5185680230613409E+00    0.4309693860063405E+01
    0.5000000000000000E+01    0.1738996113203182E+01    0.1827272193562204E+01
    0.5000000000000000E+01    0.1325493893339706E+01    0.2808563282768077E+01
    0.5000000000000000E+01   -0.8731419609589618E+00    0.1895995683864404E+01
    0.5000000000000000E+01    0.4906150219227333E-01    0.2273179336307740E+01
    0.0000000000000000E+00    0.1250000000000000E+01    0.5000000000000000E+01
    0.0000000000000000E+00    0.0000000000000000E+00    0.5000000000000000E+01
    0.0000000000000000E+00   -0.1250000000000000E+01    0.5000000000000000E+01
    0.0000000000000000E+00   -0.2496588894989582E+01    0.5000000000000000E+01
    0.1250000000000000E+01   -0.2496588894989582E+01    0.5000000000000000E+01
    0.2500000000000000E+01   -0.2496588894989582E+01    0.5000000000000000E+01
    0.3750000000000000E+01   -0.2496588894989582E+01    0.5000000000000000E+01
    0.4042003247744892E+01    0.1558308132739014E+01    0.5000000000000000E+01
    0.9304122287900499E+00   -0.1548001304379777E+01    0.5000000000000000E+01
    0.1037243024609388E+01    0.1462892710085612E+01    0.5000000000000000E+01
    0.3946240828834967E+01   -0.1445243809615570E+01    0.5000000000000000E+01
    0.4092527262848217E+01   -0.3455338993778935E+00    0.5000000000000000E+01
    0.4293103109154542E+01    0.6277660831404320E+00    0.5000000000000000E+01
    0.3241512314643519E+01    0.7429886854239611E+00    0.5000000000000000E+01
    0.2844289952419609E+01   -0.1588117879734118E+01    0.5000000000000000E+01
    0.7159905765450471E+00   -0.6002320124191652E+00    0.5000000000000000E+01
    0.1754341919796891E+01   -0.7398147869923652E+00    0.5000000000000000E+01
    0.1870296826774691E+01   -0.1788622905643739E+01    0.5000000000000000E+01
    0.9220614901912976E+00    0.3083720183248586E+00    0.5000000000000000E+01
    0.3101523624086016E+01    0.1777901774806180E+01    0.5000000000000000E+01
    0.2192512063922564E+01    0.1576861561598471E+01    0.5000000000000000E+01
    0.2024793420196460E+01    0.4773861992750707E+00    0.5000000000000000E+01
    0.2990627757741975E+01   -0.4878110785814084E+00    0.5000000000000000E+01
    0.0000000000000000E+00   -0.2496588894989582E+01    0.1250000000000000E+01
    0.0000000000000000E+00   -0.2496588894989582E+01    0.2500000000000000E+01
    0.0000000000000000E+00   -0.2496588894989582E+01    0.3750000000000000E+01
    0.0000000000000000E+00    0.1558308132739014E+01    0.4042003247744892E+01
    0.0000000000000000E+00   -0.1548001304379777E+01    0.9304122287900499E+00
    0.0000000000000000E+00    0.1462892710085612E+01    0.1037243024609388E+01
    0.0000000000000000E+00   -0.1445243809615570E+01    0.3946240828834967E+01
    0.0000000000000000E+00   -0.3455338993778935E+00    0.4092527262848217E+01
    0.0000000000000000E+00    0.6277660831404320E+00    0.4293103109154542E+01
    0.0000000000000000E+00    0.7429886854239611E+00    0.3241512314643519E+01
    0.0000000000000000E+00   -0.1588117879734118E+01    0.2844289952419609E+01
    0.0000000000000000E+00   -0.6002320124191652E+00    0.7159905765450471E+00
    0.0000000000000000E+00   -0.7398147869923652E+00    0.1754341919796891E+01
    0.0000000000000000E+00   -0.1788622905643739E+01    0.1870296826774691E+01
    0.0000000000000000E+00    0.3083720183248586E+00    0.9220614901912976E+00
    0.0000000000000000E+00    0.1777901774806180E+01    0.3101523624086016E+01
    0.0000000000000000E+00    0.1576861561598471E+01    0.2192512063922564E+01
[...]
POINT_DATA 213
SCALARS u double 1
LOOKUP_TABLE default
   0.9999813285793404E+00
   0.1000027640358762E+01
   0.1000058943644606E+01
   0.1000048926373405E+01
   0.1000014643260954E+01
   0.1000011000748475E+01
   0.1000014249002221E+01
   0.1000016438013334E+01
   0.1000019833392470E+01
   0.1000055557632129E+01
   0.1000053079819582E+01
   0.1000036537397602E+01
   0.9999937857879011E+00
   0.9999922461439944E+00
   0.9999886171466362E+00
   0.9999837433418381E+00
   0.1000009964706724E+01
   0.1000062909742203E+01
   0.1000053208521712E+01
   0.1000034742537931E+01
   0.1000020883326477E+01
   0.1000002606898382E+01
   0.1000037833947686E+01
   0.1000057341210879E+01
   0.1000066632417925E+01
   0.1000076968798076E+01
   0.1000065297139027E+01
   0.1000081079960408E+01
   0.1000056211149223E+01
   0.1000050763566178E+01
   0.1000061518123546E+01
   0.1000052593002361E+01
   0.1000063322663205E+01
   0.1000008452636225E+01
   0.1000005120103632E+01
   0.1000002810117379E+01
   0.1000001899328409E+01
   0.9999972116159745E+00
   0.9999954334020645E+00
   0.9999951251373436E+00
   0.9999969053539384E+00
   0.9999965869287164E+00
   0.9999953177498629E+00
   0.9999924367143660E+00
   0.1000001110773140E+01
   0.9999994241391484E+00
   0.1000024128593836E+01
   0.9999961478386667E+00
   0.9999977223945202E+00
   0.9999964670489511E+00
   0.9999978963392341E+00
   0.9999966118450567E+00
   0.1000002925924003E+01
   0.9999986848844561E+00
   0.9999970692390026E+00
   0.1000012795316696E+01
   0.1000010395294717E+01
   0.1000026877511584E+01
   0.1000034025632372E+01
   0.1000007193392928E+01
   0.1000000989160204E+01
   0.1000002092504144E+01
   0.1000002117887259E+01
   0.1000001809379135E+01
   0.1000002016845179E+01
   0.1000002838591453E+01
   0.1000005390438580E+01
   0.1000009998681040E+01
   0.1000011376076955E+01
   0.1000002732980973E+01
   0.1000002610763208E+01
   0.1000011970648578E+01
   0.1000009508123276E+01
   0.1000009486644904E+01
   0.1000009816368299E+01
   0.1000006593935905E+01
   0.1000002616644813E+01
   0.1000004384885325E+01
   0.1000003994738431E+01
   0.1000003218268535E+01
   0.1000002619001763E+01
   0.1000006794091251E+01
   0.1000004415296235E+01
   0.1000008916964259E+01
   0.1000006899557980E+01
   0.9999972416030244E+00
   0.9999972771317359E+00
   0.9999971071983265E+00
   0.9999968165842908E+00
   0.9999950207951757E+00
   0.9999953944680855E+00
   0.9999976002476785E+00
   0.9999978680438520E+00
   0.9999954604285020E+00
   0.9999953922828434E+00
   0.9999979544556264E+00
   0.9999981135579522E+00
   0.9999987758760305E+00
   0.9999957679757984E+00
   0.9999957319063655E+00
   0.9999959193408036E+00
   0.9999948729824386E+00
   0.9999949504363309E+00
   0.9999956592420828E+00
   0.9999958704927562E+00
   0.9999951159745374E+00
   0.9999948158420561E+00
   0.9999956355747708E+00
   0.9999919301448794E+00
   0.9999949198211185E+00
   0.9999962705653198E+00
   0.9999965661826569E+00
   0.9999869214806756E+00
   0.9999897077965327E+00
   0.9999963249393710E+00
   0.9999966536173934E+00
   0.9999968689368264E+00
   0.9999959083319973E+00
   0.9999946268268202E+00
   0.9999877226790592E+00
   0.9999917372180532E+00
   0.9999941695820045E+00
   0.9999879986309511E+00
   0.9999960280103773E+00
   0.9999943559358045E+00
   0.9999935700539676E+00
   0.9999952217140711E+00
   0.1000008634879705E+01
   0.9999997844628281E+00
   0.1000029324804040E+01
   0.9999961481911578E+00
   0.9999980452593451E+00
   0.9999962871027961E+00
   0.9999986622998562E+00
   0.9999968299997158E+00
   0.1000003038899201E+01
   0.9999993174832059E+00
   0.9999974920983086E+00
   0.1000013906366155E+01
   0.1000011715628137E+01
   0.1000033140536393E+01
   0.1000035149933719E+01
   0.1000009754104123E+01
   0.1000001945957485E+01
   0.1000001498530966E+01
   0.9999970113142020E+00
   0.9999978420139621E+00
   0.1000001884907268E+01
   0.9999954672545228E+00
   0.9999973584480636E+00
   0.1000005059840130E+01
   0.9999958291370328E+00
   0.9999964864280222E+00
   0.9999959577741128E+00
   0.1000001030415909E+01
   0.1000006725263089E+01
   0.9999957355640385E+00
   0.9999997074287386E+00
   0.1000011259232586E+01
   0.1000003977461117E+01
   0.9999999334714517E+00
   0.1000006965081775E+01
   0.9999965160908134E+00
   0.9999960222391109E+00
   0.9999976519688293E+00
   0.1000004320388850E+01
   0.1000000066681465E+01
   0.9999957831822146E+00
   0.9999961373712944E+00
   0.1000000754164142E+01
   0.1000011210525178E+01
   0.9999956757236310E+00
   0.9999961250227962E+00
   0.1000032086509080E+01
   0.1000025046248128E+01
   0.1000014619244619E+01
   0.1000006197851190E+01
   0.1000026393177318E+01
   0.1000010674692872E+01
   0.1000006504389105E+01
   0.9999970004200730E+00
   0.1000004373832815E+01
   0.9999994165043972E+00
   0.9999968300458699E+00
   0.1000008611890470E+01
   0.1000005434967626E+01
   0.1000018035304366E+01
   0.1000006722268371E+01
   0.1000001544676503E+01
   0.1000000954622070E+01
   0.1000002081709332E+01
   0.1000017296245845E+01
   0.1000025186160929E+01
   0.1000021682455331E+01
   0.1000012152870426E+01
   0.1000040693715014E+01
   0.1000027638077251E+01
   0.1000020229439197E+01
   0.1000026399883474E+01
   0.1000052793432979E+01
   0.9999967159874528E+00
   0.9999958050041635E+00
   0.9999984778578429E+00
   0.1000001547969739E+01
   0.1000045626797722E+01
   0.1000045908572304E+01
   0.1000043095234959E+01
   0.9999970250577445E+00
   0.9999988945339358E+00
   0.1000000449624354E+01
   0.1000007930743335E+01
   0.1000022504945461E+01
   0.1000050527140549E+01
SCALARS v double 1
LOOKUP_TABLE default
   0.0000000000000000E+00
   0.0000000000000000E+00
   0.0000000000000000E+00
   0.0000000000000000E+00
   0.0000000000000000E+00
  -0.1532208887542416E-04
  -0.3662261809810176E-05
   0.1326017230046127E-04
   0.0000000000000000E+00
   0.0000000000000000E+00
   0.0000000000000000E+00
   0.0000000000000000E+00
   0.0000000000000000E+00
   0.1973175018662489E-06
   0.7750507890372476E-05
   0.1798257121891488E-05
   0.5609109891958069E-06
   0.1258481786413146E-04
  -0.7258672283389218E-05
  -0.1174430836412411E-04
   0.2781097842494543E-05
   0.2710809637024348E-05
   0.6546484899861523E-05
  -0.1001622459665058E-04
   0.8120414136419072E-05
  -0.3376982570696102E-05
  -0.8574769302175222E-06
   0.3541564987048521E-05
  -0.1194153356041947E-04
   0.1028915194955246E-04
   0.8929186775615558E-05
  -0.8951889954335780E-05
   0.2108255340329119E-05
   0.0000000000000000E+00
   0.0000000000000000E+00
   0.0000000000000000E+00
   0.0000000000000000E+00
   0.0000000000000000E+00
   0.0000000000000000E+00
   0.0000000000000000E+00
   0.0000000000000000E+00
   0.0000000000000000E+00
   0.0000000000000000E+00
   0.0000000000000000E+00
   0.0000000000000000E+00
   0.0000000000000000E+00
   0.0000000000000000E+00
   0.0000000000000000E+00
   0.0000000000000000E+00
   0.0000000000000000E+00
   0.0000000000000000E+00
   0.0000000000000000E+00
   0.0000000000000000E+00
   0.0000000000000000E+00
   0.0000000000000000E+00
   0.0000000000000000E+00
   0.0000000000000000E+00
   0.0000000000000000E+00
   0.0000000000000000E+00
   0.0000000000000000E+00
   0.0000000000000000E+00
   0.4835723286807311E-06
   0.1623454945270502E-06
   0.7963752076044781E-08
   0.0000000000000000E+00
   0.0000000000000000E+00
   0.0000000000000000E+00
   0.0000000000000000E+00
  -0.2697720042541553E-05
   0.1298957033221717E-06
   0.7780016898580019E-06
   0.3853686355984582E-05
   0.2874338124433890E-05
  -0.4921474246052836E-05
   0.1721665941762503E-05
   0.3663917574841498E-07
   0.5334546571818029E-06
   0.5298251328223922E-06
  -0.2302882705279649E-06
   0.1521247360186186E-05
   0.7908745900260851E-06
   0.1074196674707581E-06
   0.1331315564273461E-05
   0.8837354064300400E-06
   0.2414459882502091E-05
  -0.1267364510283784E-06
   0.2787516660455101E-07
   0.1708215759895320E-06
   0.0000000000000000E+00
   0.0000000000000000E+00
   0.0000000000000000E+00
   0.0000000000000000E+00
   0.5133717931254771E-06
   0.2833435999190385E-06
  -0.2545444705636637E-06
  -0.1978906360025616E-06
  -0.5105157204781141E-07
   0.3682617997206994E-06
   0.2217102611026560E-06
  -0.3354294280285118E-08
   0.2615370070671823E-06
   0.1541885670019275E-06
   0.1756228409414420E-06
   0.1507464821657315E-06
   0.1715458843889982E-06
  -0.8936779735376293E-07
  -0.3226284921098359E-07
  -0.8515580488461581E-07
   0.0000000000000000E+00
   0.0000000000000000E+00
   0.0000000000000000E+00
   0.7704930205751673E-07
  -0.6911223776168305E-07
   0.1350811295283070E-05
  -0.1001205644875548E-06
  -0.7134362985991756E-07
  -0.4078387877965158E-08
  -0.1342327886445952E-06
  -0.4108188440479604E-07
   0.5884287203646280E-05
   0.1021551566467179E-05
   0.1668863185228440E-06
   0.3707003173261464E-05
   0.1804629301254264E-06
   0.2458315754857345E-06
  -0.3735855524417212E-06
  -0.7482564086351651E-06
   0.0000000000000000E+00
   0.0000000000000000E+00
   0.0000000000000000E+00
   0.0000000000000000E+00
   0.0000000000000000E+00
   0.0000000000000000E+00
   0.0000000000000000E+00
   0.0000000000000000E+00
   0.0000000000000000E+00
   0.0000000000000000E+00
   0.0000000000000000E+00
   0.0000000000000000E+00
   0.0000000000000000E+00
   0.0000000000000000E+00
   0.0000000000000000E+00
   0.0000000000000000E+00
   0.0000000000000000E+00
   0.1355852411587618E-05
  -0.1215547294380429E-06
   0.7852792216461230E-06
   0.1329519531584805E-05
   0.4165680482719903E-06
   0.1642757326020858E-05
   0.3205204473587093E-05
  -0.2261481155641031E-06
   0.8240087558246019E-07
   0.8889003957430153E-08
   0.1722302556542697E-05
   0.3512365008188610E-05
   0.2490232351023769E-07
   0.9239203487484582E-06
   0.1971348455124674E-05
   0.1483173463993864E-05
   0.1137003392655390E-05
   0.1935433276848005E-05
   0.2487713011946025E-06
   0.1542606798512709E-06
   0.5251600336681381E-06
   0.1304439002949624E-05
   0.4325997371937973E-06
  -0.1311697660945622E-06
   0.1992792992378794E-06
  -0.2250456292766872E-06
  -0.5585596490572310E-06
   0.3767596496960497E-07
  -0.7175582466100344E-07
   0.7056709818050667E-05
   0.1146254682863901E-05
   0.2099755951715838E-05
   0.1853026651792933E-05
   0.6190129524985519E-05
   0.3376055716096669E-05
   0.2405699169159473E-05
  -0.7878812771643024E-07
   0.7215238456529393E-06
   0.7110394042219201E-06
   0.2645723455965920E-06
  -0.1628320707453225E-06
  -0.5365953967687626E-06
   0.6426358888956977E-06
  -0.5210529637769881E-06
  -0.2879687416984789E-06
   0.4087505568615909E-06
  -0.5521330009959665E-06
   0.6016407535566100E-06
  -0.3932728823173969E-05
   0.3692910210015085E-05
  -0.2101112878941316E-06
  -0.4140225856871236E-05
  -0.1834133358772872E-05
   0.1429158381253890E-05
   0.4336720539909467E-05
   0.3578707492256124E-05
   0.2037265079229780E-07
  -0.1419537023235446E-06
   0.2851502159164858E-06
   0.1410178173383943E-05
   0.1225985226636441E-05
   0.3941626556169800E-06
   0.4104849474090027E-05
  -0.1523219273632971E-06
  -0.1556513737030639E-06
   0.8817365728175383E-06
  -0.1026869158435494E-05
  -0.3406250496283459E-05
   0.4443175698651191E-06
SCALARS w double 1
LOOKUP_TABLE default
   0.7685950322508685E-05
   0.3832558736814445E-04
   0.8216927396688749E-05
  -0.6028604597362603E-05
  -0.1698817916623335E-04
  -0.3107431979862947E-04
  -0.6926851398521160E-04
  -0.4449467686775035E-04
  -0.2588599505701842E-04
  -0.2229520893403859E-05
   0.1180953612451402E-04
   0.2367545821217598E-04
   0.2365602902348535E-04
   0.3598298844096327E-04
   0.1230037988504011E-04
   0.1143588250463531E-04
   0.4307013979773543E-04
  -0.1562707360111421E-04
  -0.1468288512044457E-04
   0.4752904896169198E-04
   0.4600642935692785E-04
   0.2885039625982323E-04
   0.5721598070797898E-04
   0.2572918185197364E-04
  -0.2806570913873908E-04
   0.3551246851974163E-04
   0.1430589296723034E-04
   0.2762936722815683E-04
  -0.4421106376651451E-04
   0.4164268499149697E-04
   0.2362204418087049E-04
   0.5497694500963792E-04
   0.6925937766082362E-04
  -0.1153232705927871E-05
   0.7430845356734973E-05
   0.7296385275949571E-05
   0.3327564366584292E-05
   0.3287586767591359E-05
   0.3832235945731768E-05
   0.3905942642463876E-05
   0.2545824957846693E-05
   0.4093695346843960E-06
   0.1425807209734319E-06
   0.1238510410646128E-05
   0.1277179569071911E-04
   0.5081661484423181E-05
  -0.5524772382320826E-05
   0.3244212367894739E-05
   0.4910271633742932E-05
   0.2508026505182039E-05
   0.5287982250276510E-05
   0.4700980752269572E-05
   0.5732952987241586E-05
   0.4986968525343997E-05
   0.4320817756269877E-05
   0.4914041993242185E-05
   0.3911966573853607E-05
   0.1900306974588260E-04
   0.3869031511473365E-05
   0.7916158667580754E-05
   0.5422769149208905E-05
   0.3111660270106012E-05
   0.3011388819000169E-05
   0.3167588718480658E-05
   0.3312024774336950E-05
   0.8291671972218536E-05
   0.9637994502825631E-05
  -0.1199600701878327E-05
  -0.7148666077340940E-05
   0.7536998129144725E-05
   0.6879071793385512E-05
  -0.9132374641796218E-05
  -0.1722568984983310E-04
  -0.2681068155794907E-04
   0.2245994733226437E-05
   0.9114598930749434E-05
   0.7506878065825659E-05
   0.1153079083074610E-04
   0.1035291925457443E-04
   0.1011316358323277E-04
   0.6520437692302905E-05
   0.4437980778897938E-05
   0.8694233939079864E-05
   0.8376810066027929E-05
   0.1009815763991353E-04
   0.2638406310508212E-05
   0.2453956777835027E-05
   0.2357063839844479E-05
   0.2428450192104813E-05
   0.3932716391640543E-05
   0.3900492647390039E-05
   0.3488411933430048E-05
   0.3139785252965391E-05
   0.3802658777484764E-05
   0.3695188496954041E-05
   0.3422627954992090E-05
   0.3077635445022143E-05
   0.2915244398040173E-05
   0.3531165130917458E-05
   0.3872234020880902E-05
   0.3721621059142431E-05
   0.3916491322318747E-05
   0.3956216577758292E-05
   0.3819805584939062E-05
   0.3630045845070823E-05
   0.3994089274201308E-05
   0.3922881282943962E-05
   0.3704361808147045E-05
   0.6110906198296127E-05
   0.1662537848377886E-06
   0.8276623773033292E-07
   0.9020454252612803E-06
   0.1184238805606879E-04
   0.1318770672206706E-05
   0.7133634178905926E-06
   0.8731022522580675E-06
   0.1034090385452030E-05
   0.6205491845960193E-07
  -0.3979245261997497E-06
   0.1031928131455357E-04
  -0.1287359409447176E-05
   0.1265220909528748E-05
   0.9074306480351465E-07
   0.2151387708430880E-06
   0.5053293810967533E-06
  -0.4855121674874465E-06
  -0.1461051670229053E-06
   0.1978932464545544E-04
   0.5517471215861557E-05
   0.4676647116486321E-06
   0.3462706118969886E-05
   0.6278098053162946E-05
   0.3154109205464403E-05
   0.7342371588769707E-05
   0.4981398815110771E-05
   0.6576466962058222E-05
   0.5820525986644637E-05
   0.4858054849599159E-05
   0.6728382016337175E-05
   0.5931198640030199E-05
   0.1788104130902920E-04
   0.9254008322297986E-05
   0.1080800258457325E-04
   0.6622567844540766E-05
   0.7615516623085709E-05
   0.4960592109287548E-05
   0.5729216030346161E-05
   0.1057061602543060E-04
   0.4249229592431246E-05
   0.1031716130343337E-04
   0.1549336663895128E-04
   0.2059098142652104E-05
   0.4121439014087727E-05
   0.2581386615605420E-05
   0.8024192958371659E-05
   0.2252416930842347E-04
   0.4105074548309510E-05
   0.6066589636865657E-05
   0.9664107335420878E-05
   0.6274336571304458E-05
   0.6870744740223317E-05
   0.8615141295607665E-05
   0.4953908185773014E-05
   0.4471594370051219E-05
   0.4681600298563203E-05
   0.9775798328601805E-05
   0.7369823033485143E-05
   0.3311241593701972E-05
   0.5276139434880210E-05
   0.8461928930602667E-05
   0.1512305467684786E-04
   0.3487809559429873E-05
   0.2925067111146881E-05
   0.3384353700298060E-04
   0.3621151842526271E-04
   0.1697457298345557E-04
   0.7834306002199370E-05
   0.1922765264345205E-04
   0.1194353884983085E-04
   0.2796086040394957E-04
   0.9157368363512814E-05
   0.2347471372990137E-04
   0.5989611133660533E-05
   0.4477680486741321E-05
   0.1069990257772623E-04
   0.7353791335114776E-05
   0.5239380298837745E-05
   0.8225752640474692E-05
   0.7407723263742230E-05
   0.7419400672668747E-05
   0.7729250849537272E-05
   0.2773012753560157E-05
  -0.1037936229512460E-04
   0.1101904703076288E-04
   0.1069719189574231E-04
   0.3497688067338763E-04
   0.1236544705527540E-04
   0.7358330757761636E-05
  -0.2240437733912160E-05
   0.5898123653877821E-05
   0.4494571609690687E-05
   0.4376112407626473E-05
   0.5757938060939296E-05
   0.7785991169738637E-05
   0.6849625578038763E-05
  -0.1631818922185519E-04
   0.1723656689462967E-05
   0.5032303762131312E-05
   0.5493227993150904E-05
   0.6023786607653980E-05
   0.9086834052953924E-05
   0.2159160787319740E-04
   0.2316740623979621E-04
SCALARS p double 1
LOOKUP_TABLE default
   0.1000044138743567E+01
   0.1000034468904605E+01
   0.9999568897878305E+00
   0.1000002249489699E+01
   0.1000031376730943E+01
   0.1000047123406412E+01
   0.9999805014120819E+00
   0.1000005841690943E+01
   0.1000011085539746E+01
   0.1000008836646445E+01
   0.9999917302034880E+00
   0.9999914058451764E+00
   0.1000084167779333E+01
   0.1000114968999803E+01
   0.1000079769841037E+01
   0.1000052721099483E+01
   0.1000083797373199E+01
   0.9999771993647725E+00
   0.9999789430318022E+00
   0.1000054241439394E+01
   0.1000049890374388E+01
   0.1000044263614866E+01
   0.1000042313844800E+01
   0.9999916956541127E+00
   0.9999378598702231E+00
   0.9999874112926800E+00
   0.9999952501604162E+00
   0.9999809530993353E+00
   0.9999277877649180E+00
   0.1000010103391126E+01
   0.9999786513560261E+00
   0.1000021881166777E+01
   0.1000030978245009E+01
   0.1000020455857023E+01
   0.1000014123979273E+01
   0.1000010871644860E+01
   0.1000009121091000E+01
   0.1000012242278187E+01
   0.1000014515986404E+01
   0.1000014932151514E+01
   0.1000013208724567E+01
   0.1000016704383045E+01
   0.1000021952518214E+01
   0.1000033718450244E+01
   0.1000027776689015E+01
   0.1000011754071208E+01
   0.1000011865445302E+01
   0.1000016332211850E+01
   0.1000018587680319E+01
   0.1000018932963719E+01
   0.1000019834372948E+01
   0.1000015731931220E+01
   0.1000013089129760E+01
   0.1000014214029209E+01
   0.1000013877801517E+01
   0.1000012618922051E+01
   0.1000012890675503E+01
   0.1000010615781902E+01
   0.1000008635249127E+01
   0.1000017130942654E+01
   0.1000015490606062E+01
   0.1000008905885128E+01
   0.1000008946522364E+01
   0.1000008676609021E+01
   0.1000009727489504E+01
   0.1000011206876991E+01
   0.1000015809321270E+01
   0.1000022274906049E+01
   0.1000020994313811E+01
   0.1000009538060630E+01
   0.1000009715529218E+01
   0.1000026772538222E+01
   0.1000040895888256E+01
   0.1000037899350002E+01
   0.1000013097897038E+01
   0.1000018548159062E+01
   0.1000009118785325E+01
   0.1000014546918021E+01
   0.1000013676638960E+01
   0.1000011280628502E+01
   0.1000008978357296E+01
   0.1000017660624451E+01
   0.1000012859859765E+01
   0.1000020947315083E+01
   0.1000014434121262E+01
   0.1000012848365272E+01
   0.1000012806719221E+01
   0.1000013056515594E+01
   0.1000013378995517E+01
   0.1000015523188055E+01
   0.1000014942676159E+01
   0.1000012697005096E+01
   0.1000011748801954E+01
   0.1000014346237333E+01
   0.1000014352923777E+01
   0.1000012179853029E+01
   0.1000012228438055E+01
   0.1000011382530255E+01
   0.1000013818441759E+01
   0.1000014584782022E+01
   0.1000013683936875E+01
   0.1000015729208362E+01
   0.1000015550547196E+01
   0.1000013910073152E+01
   0.1000013455337180E+01
   0.1000014781485412E+01
   0.1000015288089359E+01
   0.1000014339844372E+01
   0.1000039532840858E+01
   0.1000023259290815E+01
   0.1000017298214737E+01
   0.1000015586152099E+01
   0.1000043239853594E+01
   0.1000037997738659E+01
   0.1000016456932138E+01
   0.1000016131956969E+01
   0.1000015253579659E+01
   0.1000019596015378E+01
   0.1000020785554885E+01
   0.1000048293609304E+01
   0.1000030856088525E+01
   0.1000030522596081E+01
   0.1000037953750185E+01