title="tecplot geometry and solution file"
variables = x y z mach temperature lambda1 lambda2 lambda3 lambda4 lambda5
zone t="boundary 1 bc-1", solutiontime= 0.6000000E+02, strandid=1001, i=32, j=46, f=feblock
  0.000000000000E+00  0.000000000000E+00  0.000000000000E+00  0.000000000000E+00  0.000000000000E+00  0.000000000000E+00  0.000000000000E+00
  0.000000000000E+00  0.000000000000E+00  0.000000000000E+00  0.000000000000E+00  0.000000000000E+00  0.000000000000E+00  0.000000000000E+00
  0.000000000000E+00  0.000000000000E+00  0.000000000000E+00  0.000000000000E+00  0.000000000000E+00  0.000000000000E+00  0.000000000000E+00
  0.000000000000E+00  0.000000000000E+00  0.000000000000E+00  0.000000000000E+00  0.000000000000E+00  0.000000000000E+00  0.000000000000E+00
  0.000000000000E+00  0.000000000000E+00  0.000000000000E+00  0.000000000000E+00
  0.250000000000E+01  0.250000000000E+01  0.125000000000E+01  0.146289271009E+01  0.157686156160E+01  0.308372018325E+00  0.000000000000E+00
 -0.125000000000E+01 -0.600232012419E+00  0.250000000000E+01  0.477386199275E+00  0.742988685424E+00 -0.739814786992E+00  0.177790177481E+01
  0.155830813274E+01  0.250000000000E+01 -0.250000000000E+01 -0.154800130438E+01 -0.487811078581E+00  0.250000000000E+01  0.627766083140E+00
 -0.345533899378E+00 -0.178862290564E+01 -0.158811787973E+01  0.125000000000E+01 -0.250000000000E+01 -0.144524380962E+01  0.000000000000E+00
 -0.125000000000E+01 -0.250000000000E+01 -0.250000000000E+01 -0.250000000000E+01
  0.000000000000E+00  0.125000000000E+01  0.000000000000E+00  0.103724302461E+01  0.219251206392E+01  0.922061490191E+00  0.000000000000E+00
  0.000000000000E+00  0.715990576545E+00  0.250000000000E+01  0.202479342020E+01  0.324151231464E+01  0.175434191980E+01  0.310152362409E+01
  0.404200324774E+01  0.375000000000E+01  0.000000000000E+00  0.930412228790E+00  0.299062775774E+01  0.500000000000E+01  0.429310310915E+01
  0.409252726285E+01  0.187029682677E+01  0.284428995242E+01  0.500000000000E+01  0.125000000000E+01  0.394624082883E+01  0.500000000000E+01
  0.500000000000E+01  0.250000000000E+01  0.375000000000E+01  0.500000000000E+01
  0.000000000000E+00  0.441239785988E+00  0.000000000000E+00  0.475215274863E+00  0.460125469115E+00  0.468829033016E+00  0.000000000000E+00
  0.000000000000E+00  0.402304816650E+00  0.469816606844E+00  0.464412782143E+00  0.478715406528E+00  0.489298660859E+00  0.483069730103E+00
  0.487930932807E+00  0.488962540251E+00  0.000000000000E+00  0.464777175811E+00  0.473797112853E+00  0.495347171760E+00  0.490266841402E+00
  0.486286962460E+00  0.445719479485E+00  0.464383763709E+00  0.496127919189E+00  0.443625026347E+00  0.486965334975E+00  0.497246761305E+00
  0.496059785041E+00  0.467733890136E+00  0.488212950097E+00  0.495098812149E+00
  0.100000000000E+01  0.102982613692E+01  0.100000000000E+01  0.104247134045E+01  0.101190025901E+01  0.102520692329E+01  0.100000000000E+01
  0.100000000000E+01  0.103891294613E+01  0.100826231153E+01  0.101252764203E+01  0.100300522166E+01  0.102702698129E+01  0.100605519113E+01
  0.100244372949E+01  0.100355626855E+01  0.100000000000E+01  0.103239734230E+01  0.100459494933E+01  0.100179316439E+01  0.100260278989E+01
  0.100234941843E+01  0.101657094887E+01  0.100617510648E+01  0.100168826201E+01  0.104043151483E+01  0.100303347612E+01  0.100118709692E+01
  0.100134152965E+01  0.100976739746E+01  0.100405336562E+01  0.100176093040E+01
 -0.110424838239E-03 -0.840413280032E-03  0.300650823515E-04 -0.909372574592E-03 -0.117106971210E-03  0.841621851114E-03  0.219684927529E-03
  0.131206454221E-03  0.184340544772E-02  0.125509490266E-04 -0.398302284476E-03  0.130174905845E-03 -0.164357979371E-03  0.107642699051E-03
  0.800168427064E-04  0.105732960497E-03  0.438187914157E-04 -0.376866230234E-04 -0.156660104264E-04 -0.125356655744E-03  0.547637142116E-04
  0.730074255881E-04 -0.241988585994E-03  0.342540441441E-05 -0.124133398127E-03 -0.560293018593E-03  0.534731750012E-04 -0.139986593763E-03
 -0.130342377301E-03 -0.694302561087E-04  0.876839654506E-04 -0.110634399836E-03
 -0.239691342432E-04 -0.138410280873E-03 -0.221529114440E-04 -0.141770903435E-03 -0.141814797771E-04  0.132258972063E-03 -0.258837040016E-06
 -0.355577012056E-05  0.266130133311E-03  0.571529118849E-05 -0.522525600527E-04  0.260907218571E-04 -0.217785524251E-04  0.244161044848E-04
  0.145369654393E-04  0.216305676217E-04  0.150103279625E-05 -0.213906279356E-04  0.623777663763E-05 -0.242994376146E-04  0.101095135187E-04
  0.161483947992E-04 -0.331380184844E-04  0.971050202842E-05 -0.251414330717E-04 -0.854173989228E-04  0.134009034657E-04 -0.306846509467E-04
 -0.308582604897E-04 -0.990119424232E-06  0.195472070468E-04 -0.280876918003E-04
 -0.163781948354E-04 -0.272439012866E-05 -0.151919368897E-04  0.251049548956E-04  0.175136965005E-04  0.266994127826E-04 -0.391764484431E-05
 -0.507237899539E-05 -0.317436532263E-04 -0.726417793893E-07  0.226087651979E-04  0.120538283635E-04 -0.242804710489E-04  0.911638069498E-05
  0.190936699613E-05 -0.620489530608E-06  0.635398481086E-05 -0.467820080934E-04  0.744247688309E-05 -0.804394630024E-07  0.750900986360E-06
  0.109594162515E-05 -0.171975101980E-04 -0.102294746893E-04  0.216222169957E-05  0.934363747094E-06  0.103550229882E-05  0.206552082047E-05
  0.766583148851E-06 -0.120674005470E-05  0.569305503544E-06  0.320807798571E-06
  0.229386433444E-04  0.379853704781E-04 -0.256143998962E-05  0.318874118445E-04  0.138100500520E-04  0.119048745767E-03 -0.355153224619E-04
 -0.336149211140E-04  0.993446178565E-04  0.858535009076E-05  0.627688007168E-04  0.145801518174E-04  0.109226760176E-03  0.792140598856E-05
  0.694446138668E-05  0.467177373833E-05 -0.410488265048E-05 -0.290991022281E-05  0.253693999730E-04  0.325344334073E-05  0.690646099041E-05
  0.858533390846E-05  0.247911172134E-04  0.197952676743E-04  0.310665598161E-05 -0.446402346285E-05  0.618067691990E-05  0.208224889818E-05
  0.191373022369E-05  0.117659682130E-04  0.498875365269E-05  0.217525101870E-05
  0.724061283084E-04  0.341055974280E-03 -0.640195697784E-04  0.369106738558E-03  0.458243050058E-04 -0.361746412563E-03  0.758069720804E-04
 -0.753408507521E-05 -0.757058617784E-03 -0.744156622492E-05  0.160619007481E-03 -0.556718964854E-04  0.697083168942E-04 -0.463520276291E-04
 -0.344080252500E-04 -0.450996246652E-04 -0.739220182607E-05  0.337245272609E-04  0.371880229892E-05  0.516021982938E-04 -0.237902683250E-04
 -0.316287792137E-04  0.101302107381E-03 -0.358247871506E-05  0.512592472302E-04  0.230171527397E-03 -0.229951278272E-04  0.583852614130E-04
  0.547228038464E-04  0.282369563300E-04 -0.370315465756E-04  0.464777552377E-04
        12        19        11        11
        11         5        12        12
        10        14         5         5
        19        13        11        11
        19        24        13        13
        30        23        24        24
        19        12        22        22
        28        22        21        21
        11        13         6         6
         7         6         9         9
        15        12        14        14
        18        13        23        23
        15        25        21        21
        27        19        22        22
        18         8         9         9
        27        31        24        24
         4        11         6         6
         5        14        12        12
         4         2         5         5
        21        12        15        15
        14        16        15        15
        24        19        27        27
        22        29        27        27
        23        26        18        18
        17         8        18        18
         5        11         4         4
         6         3         4         4
        26        23        30        30
         5         2        10        10
        16        14        10        10
         3         6         7         7
        21        25        28        28
        29        22        28        28
         6        13         9         9
         2         4         1         1
        31        27        32        32
        25        15        20        20
        24        23        13        13
         8         7         9         9
        13        18         9         9
        31        30        24        24
        12        21        22        22
        29        32        27        27
         3         1         4         4
        26        17        18        18
        16        20        15        15
zone t="boundary 2 bc-2", solutiontime= 0.6000000E+02, strandid=1002, i=33, j=48, f=feblock
  0.500000000000E+01  0.375000000000E+01  0.250000000000E+01  0.288078410721E+01  0.125000000000E+01  0.190974100652E+01  0.326683758169E+01
  0.201431602454E+01  0.000000000000E+00  0.963108083381E+00  0.500000000000E+01  0.403552511878E+01  0.423153924130E+01  0.500000000000E+01
  0.385533350601E+01  0.500000000000E+01  0.398173246726E+01  0.315249557942E+01  0.267000324704E+01  0.154774304040E+01  0.218329375016E+01
  0.893127759452E+00  0.000000000000E+00  0.698517061619E+00  0.964171764089E+00  0.310324758057E+01  0.000000000000E+00  0.000000000000E+00
  0.125000000000E+01  0.500000000000E+01  0.375000000000E+01  0.250000000000E+01  0.000000000000E+00
 -0.250000000000E+01 -0.250000000000E+01 -0.250000000000E+01 -0.250000000000E+01 -0.250000000000E+01 -0.250000000000E+01 -0.250000000000E+01
 -0.250000000000E+01 -0.250000000000E+01 -0.250000000000E+01 -0.250000000000E+01 -0.250000000000E+01 -0.250000000000E+01 -0.250000000000E+01
 -0.250000000000E+01 -0.250000000000E+01 -0.250000000000E+01 -0.250000000000E+01 -0.250000000000E+01 -0.250000000000E+01 -0.250000000000E+01
 -0.250000000000E+01 -0.250000000000E+01 -0.250000000000E+01 -0.250000000000E+01 -0.250000000000E+01 -0.250000000000E+01 -0.250000000000E+01
 -0.250000000000E+01 -0.250000000000E+01 -0.250000000000E+01 -0.250000000000E+01 -0.250000000000E+01
  0.000000000000E+00  0.000000000000E+00  0.000000000000E+00  0.904659890645E+00  0.000000000000E+00  0.717002441913E+00  0.188609243358E+01
  0.176246431481E+01  0.000000000000E+00  0.961328577125E+00  0.125000000000E+01  0.101201586758E+01  0.191586535653E+01  0.250000000000E+01
  0.293121848150E+01  0.375000000000E+01  0.406975391361E+01  0.363585050272E+01  0.285047954584E+01  0.292817774674E+01  0.395907379566E+01
  0.205246550326E+01  0.125000000000E+01  0.306828197606E+01  0.397245519226E+01  0.433168271247E+01  0.250000000000E+01  0.375000000000E+01
  0.500000000000E+01  0.500000000000E+01  0.500000000000E+01  0.500000000000E+01  0.500000000000E+01
  0.000000000000E+00  0.000000000000E+00  0.000000000000E+00  0.380992830094E+00  0.000000000000E+00  0.343629568856E+00  0.585286648998E+00
  0.579372754272E+00  0.000000000000E+00  0.501053917142E+00  0.508462688610E+00  0.435375182283E+00  0.572640857456E+00  0.537001600598E+00
  0.568922324808E+00  0.514993445722E+00  0.508247282359E+00  0.527252917665E+00  0.567446475338E+00  0.531657240797E+00  0.505981537505E+00
  0.520795935457E+00  0.443625026347E+00  0.490664539735E+00  0.492156651997E+00  0.501391299454E+00  0.467733890136E+00  0.488212950097E+00
  0.490003707998E+00  0.491352331256E+00  0.486076199652E+00  0.490037473019E+00  0.495098812149E+00
  0.100000000000E+01  0.100000000000E+01  0.100000000000E+01  0.989541508141E+00  0.100000000000E+01  0.985528358061E+00  0.989838816567E+00
  0.991798621961E+00  0.100000000000E+01  0.984413495574E+00  0.985092479637E+00  0.984690921830E+00  0.990058397112E+00  0.100289587074E+01
  0.999854860768E+00  0.100485278088E+01  0.100121537341E+01  0.100055609297E+01  0.997896330314E+00  0.100349975551E+01  0.100058042726E+01
  0.101093198268E+01  0.104043151483E+01  0.100326450519E+01  0.100254472042E+01  0.100045565689E+01  0.100976739746E+01  0.100405336562E+01
  0.100192632421E+01  0.100045428384E+01  0.100058757388E+01  0.100109969524E+01  0.100176093040E+01
  0.143026990432E-03 -0.615646669082E-04 -0.226546690434E-03 -0.211349038846E-02  0.261192171280E-04  0.434498444956E-03  0.181087054622E-05
 -0.635516431176E-03  0.438187914157E-04 -0.447506959013E-03  0.107733304350E-03  0.289338355705E-03  0.317081348485E-04  0.654665602758E-04
  0.211581980463E-04  0.138044678786E-04  0.416772959784E-05  0.217456101446E-04  0.142336081852E-03  0.167471089796E-03  0.168085523674E-04
 -0.268482329802E-03 -0.560293018593E-03  0.762443482123E-04  0.520124846402E-04  0.947508152908E-06 -0.694302561087E-04  0.876839654506E-04
 -0.111944210982E-03  0.991581102362E-05 -0.956815344735E-05 -0.667392174978E-04 -0.110634399836E-03
 -0.371844709641E-04  0.568865030721E-04 -0.627567576132E-05 -0.295786433112E-04 -0.247711938444E-04  0.130111180893E-03  0.133054970443E-03
  0.140756166755E-04  0.150103279625E-05 -0.965966059480E-04 -0.352261290981E-04  0.167961919864E-03  0.314767128805E-04 -0.144324642523E-04
  0.213862697499E-04 -0.300192324365E-05  0.680639474779E-05  0.176015021498E-04  0.776343611359E-04  0.737488386973E-04  0.131679475920E-04
  0.787967764774E-05 -0.854173989228E-04  0.375677918916E-04  0.144631268292E-04  0.991649948814E-05 -0.990119424232E-06  0.195472070468E-04
 -0.186216565446E-04  0.891348097146E-06  0.306324680611E-05 -0.450090975849E-05 -0.280876918003E-04
  0.962488270825E-05  0.425262605704E-05 -0.117945024321E-04  0.232836753392E-04 -0.198854761370E-05  0.113544586281E-04  0.161752398428E-04
 -0.664056682535E-06  0.635398481086E-05 -0.123028417112E-04  0.792130365797E-05  0.413014369508E-04 -0.204372788601E-05 -0.110078400094E-06
 -0.864018227488E-06  0.293397574408E-06  0.509802719423E-06 -0.742379839555E-06 -0.353793479688E-05 -0.119409022441E-05  0.154726280721E-06
 -0.147725368821E-05  0.934363747094E-06 -0.515926287125E-06 -0.129385211328E-06  0.379049867998E-07 -0.120674005470E-05  0.569305503544E-06
  0.173184543341E-06  0.761615172446E-07 -0.143764217514E-06  0.104079998860E-06  0.320807798571E-06
  0.394689567151E-05  0.269711257309E-04  0.102461940155E-04  0.346572319991E-04 -0.471894986405E-05  0.111173785915E-03 -0.963565571271E-04
  0.103364160734E-04 -0.410488265048E-05  0.227662454635E-04 -0.481070133314E-04 -0.157582858255E-03 -0.376145141380E-04 -0.127598087347E-04
 -0.114769139886E-04 -0.446008238307E-05 -0.309343344550E-05  0.461876317451E-05 -0.502452551486E-05  0.167525945183E-04  0.852901772904E-05
  0.170069801493E-04 -0.446402346285E-05  0.149949373555E-04  0.113106732066E-04  0.388804859088E-05  0.117659682130E-04  0.498875365269E-05
  0.562881669531E-05 -0.995747181781E-06  0.117477096262E-05  0.397564443505E-05  0.217525101870E-05
 -0.483463781302E-04 -0.259735901031E-03  0.105227813477E-03  0.795027942861E-03  0.713722386822E-04 -0.248933475520E-03 -0.429518254694E-04
  0.226069866216E-03 -0.739220182607E-05  0.196696714274E-03 -0.188385651405E-04 -0.154403389494E-03 -0.200400305526E-04 -0.135353769435E-04
 -0.140519249972E-04 -0.299821937852E-05 -0.347471291899E-05 -0.139891013546E-04 -0.732815045815E-04 -0.814211390683E-04 -0.109780208275E-04
  0.997179944354E-04  0.230171527397E-03 -0.363468952475E-04 -0.239201860506E-04 -0.391245541304E-05  0.282369563300E-04 -0.370315465756E-04
  0.446997422037E-04 -0.361099844723E-05  0.247694694481E-05  0.248436466847E-04  0.464777552377E-04
        15         7        19        19
         8        20        19        19
        18        19        21        21
         7         4         8         8
         3         6         4         4
        19         7         8         8
        19        18        15        15
        14        13        15        15
         8        22        20        20
        27        24        22        22
        19        20        21        21
        32        26        21        21
        17        18        26        26
        17        16        15        15
        25        29        21        21
        12         7        13        13
        10         8         6         6
        25        20        24        24
         4         6         8         8
        12         2         4         4
        10        23        22        22
        26        31        17        17
        30        16        17        17
         4         7        12        12
        13        11        12        12
        21        20        25        25
        24        28        25        25
        22         8        10        10
         6         5        10        10
        31        26        32        32
         4         2         3         3
         5         6         3         3
        11        13        14        14
        22        23        27        27
        28        24        27        27
        15        13         7         7
         2        12         1         1
        29        25        33        33
        23        10         9         9
        21        26        18        18
        16        14        15        15
        18        17        15        15
        29        32        21        21
        22        24        20        20
        28        33        25        25
        11         1        12        12
        31        30        17        17
         5         9        10        10
zone t="boundary 3 bc-3", solutiontime= 0.6000000E+02, strandid=1003, i=33, j=48, f=feblock
  0.375000000000E+01  0.250000000000E+01  0.500000000000E+01  0.403552511878E+01  0.288078410721E+01  0.125000000000E+01  0.190974100652E+01
  0.500000000000E+01  0.326683758169E+01  0.423153924130E+01  0.201431602454E+01  0.000000000000E+00  0.963108083381E+00  0.500000000000E+01
  0.267000324704E+01  0.385533350601E+01  0.893127759452E+00  0.154774304040E+01  0.000000000000E+00  0.500000000000E+01  0.315249557942E+01
  0.218329375016E+01  0.398173246726E+01  0.000000000000E+00  0.698517061619E+00  0.964171764089E+00  0.125000000000E+01  0.000000000000E+00
  0.500000000000E+01  0.310324758057E+01  0.250000000000E+01  0.375000000000E+01  0.000000000000E+00
  0.250000000000E+01  0.250000000000E+01  0.250000000000E+01  0.250000000000E+01  0.250000000000E+01  0.250000000000E+01  0.250000000000E+01
  0.250000000000E+01  0.250000000000E+01  0.250000000000E+01  0.250000000000E+01  0.250000000000E+01  0.250000000000E+01  0.250000000000E+01
  0.250000000000E+01  0.250000000000E+01  0.250000000000E+01  0.250000000000E+01  0.250000000000E+01  0.250000000000E+01  0.250000000000E+01
  0.250000000000E+01  0.250000000000E+01  0.250000000000E+01  0.250000000000E+01  0.250000000000E+01  0.250000000000E+01  0.250000000000E+01
  0.250000000000E+01  0.250000000000E+01  0.250000000000E+01  0.250000000000E+01  0.250000000000E+01
  0.000000000000E+00  0.000000000000E+00  0.000000000000E+00  0.101201586758E+01  0.904659890645E+00  0.000000000000E+00  0.717002441913E+00
  0.125000000000E+01  0.188609243358E+01  0.191586535653E+01  0.176246431481E+01  0.000000000000E+00  0.961328577125E+00  0.250000000000E+01
  0.285047954584E+01  0.293121848150E+01  0.205246550326E+01  0.292817774674E+01  0.125000000000E+01  0.375000000000E+01  0.363585050272E+01
  0.395907379566E+01  0.406975391361E+01  0.250000000000E+01  0.306828197606E+01  0.397245519226E+01  0.500000000000E+01  0.375000000000E+01
  0.500000000000E+01  0.433168271247E+01  0.500000000000E+01  0.500000000000E+01  0.500000000000E+01
  0.000000000000E+00  0.000000000000E+00  0.000000000000E+00  0.443770331736E+00  0.402287171226E+00  0.000000000000E+00  0.377548518817E+00
  0.509235490256E+00  0.575832411882E+00  0.573708273050E+00  0.562553347591E+00  0.000000000000E+00  0.490560550365E+00  0.534526479803E+00
  0.556586999650E+00  0.564391422515E+00  0.522731054000E+00  0.522052377449E+00  0.441239785988E+00  0.517181547931E+00  0.524228814576E+00
  0.503688070658E+00  0.509488649002E+00  0.469816606844E+00  0.495615241225E+00  0.494484543267E+00  0.488563386034E+00  0.488962540251E+00
  0.492980764076E+00  0.499006129986E+00  0.486461965853E+00  0.484597695101E+00  0.495347171760E+00
  0.100000000000E+01  0.100000000000E+01  0.100000000000E+01  0.981544853085E+00  0.988777726367E+00  0.100000000000E+01  0.982474464092E+00
  0.984105346981E+00  0.990427594648E+00  0.990355238130E+00  0.994363068874E+00  0.100000000000E+01  0.988654724521E+00  0.100368325855E+01
  0.999768563775E+00  0.100118428120E+01  0.100834796419E+01  0.100252058950E+01  0.102982613692E+01  0.100443277913E+01  0.100199491686E+01
  0.100082030644E+01  0.100138167444E+01  0.100826231153E+01  0.100298756175E+01  0.100192362714E+01  0.100215241692E+01  0.100355626855E+01
  0.100047663613E+01  0.100056570035E+01  0.100126796473E+01  0.100066558632E+01  0.100179316439E+01
  0.335801223631E-05 -0.666510481942E-04  0.290584800328E-04 -0.853713215239E-03 -0.145944902158E-02 -0.157391993166E-03 -0.233906805103E-02
  0.143373124527E-03 -0.856782337195E-04  0.682113210361E-04 -0.235694753872E-03 -0.110424838239E-03 -0.143292173994E-02  0.276773821517E-04
  0.114657698888E-04  0.285417451915E-04 -0.162254066791E-03  0.857875736960E-04 -0.840413280032E-03  0.111533516768E-04  0.405188883553E-05
  0.621581216537E-05  0.682778253225E-05  0.125509490266E-04  0.781228704114E-04  0.231670494145E-04 -0.402876904310E-04  0.105732960497E-03
  0.889552377370E-05  0.556309526519E-05 -0.658321667041E-05  0.159018446627E-04 -0.125356655744E-03
  0.760218113157E-05  0.119175125656E-04 -0.872918086640E-05 -0.160731822707E-03 -0.180721642674E-03  0.104000850069E-04 -0.287044387472E-03
 -0.787044680823E-05 -0.183119782668E-05  0.350550467355E-05  0.424558620264E-04 -0.239691342432E-04 -0.141802508735E-03 -0.788790486618E-05
  0.159526441104E-04  0.607311673118E-05  0.243793626326E-04  0.392921124948E-04 -0.138410280873E-03 -0.298264142191E-05  0.848521155919E-05
  0.125939965922E-04  0.256579672716E-05  0.571529118849E-05  0.335645479896E-04  0.890048939332E-05  0.116011539000E-05  0.216305676217E-04
 -0.551583985980E-07  0.855813831748E-05  0.775747919803E-05  0.474128321484E-05 -0.242994376146E-04
 -0.150099153478E-06 -0.142812337049E-05  0.376483889170E-05  0.216905675643E-04  0.270337677496E-04 -0.390717571541E-05  0.212371343729E-04
  0.135536893439E-05  0.318448778784E-05  0.294028564462E-06  0.319304430209E-05 -0.163781948354E-04  0.316729484723E-05 -0.611463657081E-06
  0.463751545844E-06 -0.123663097852E-06  0.153311824801E-05  0.167629973124E-05 -0.272439012866E-05 -0.272359441810E-06 -0.439775551517E-06
 -0.104306405302E-05 -0.205633025756E-06 -0.726417793893E-07 -0.108533771045E-05 -0.119433306626E-05 -0.328782161868E-06 -0.620489530608E-06
 -0.547074955083E-07  0.348617584347E-07 -0.194506095280E-07  0.890192743956E-07 -0.804394630024E-07
  0.126956568415E-04  0.260246561226E-04  0.367414706668E-05 -0.804580138440E-05 -0.327134558251E-04  0.229939192725E-04  0.876559705895E-05
 -0.102296077928E-04 -0.388078004146E-04 -0.151799969353E-04 -0.550984091327E-04  0.229386433444E-04  0.449474270446E-05 -0.426522627469E-05
 -0.612471032101E-05 -0.968501832573E-05 -0.149390567329E-04  0.876566631145E-05  0.379853704781E-04 -0.291095456706E-05 -0.677339427009E-05
  0.149089560624E-05 -0.426586797958E-05  0.858535009076E-05  0.445722834360E-05  0.661472003726E-05  0.362945665083E-05  0.467177373833E-05
 -0.115985999400E-05 -0.323408579090E-05  0.178018929491E-05 -0.607070105725E-06  0.325344334073E-05
 -0.108411898413E-03 -0.197220684046E-03 -0.413015105720E-04  0.384824415724E-03  0.613146592663E-03 -0.271381108286E-04  0.977525224480E-03
 -0.459107789108E-04  0.311373688078E-04 -0.246631860887E-04  0.668259280795E-04  0.724061283084E-04  0.560621265665E-03 -0.471950504660E-05
 -0.944725138872E-05 -0.112649538674E-04  0.496963134676E-04 -0.443916125012E-04  0.341055974280E-03 -0.198812982780E-05 -0.422478308847E-05
 -0.662368782977E-05 -0.271132429073E-05 -0.744156622492E-05 -0.360257523346E-04 -0.119767033033E-04  0.138291895527E-04 -0.450996246652E-04
 -0.286126751225E-05 -0.435265563920E-05  0.106208082300E-06 -0.691446553916E-05  0.516021982938E-04
        15         9        16        16
        15        18        11        11
        22        15        21        21
        11         5         9         9
         5         7         2         2
        11         9        15        15
        16        21        15        15
        16        10        14        14
        18        17        11        11
        17        25        24        24
        22        18        15        15
        22        30        31        31
        30        21        23        23
        16        20        23        23
        22        27        26        26
        10         9         4         4
         7        11        13        13
        25        18        26        26
        11         7         5         5
         5         1         4         4
        17        19        13        13
        23        32        30        30
        23        20        29        29
         4         9         5         5
         4         8        10        10
        26        18        22        22
        26        28        25        25
        13        11        17        17
        13         6         7         7
        31        30        32        32
         2         1         5         5
         2         7         6         6
        14        10         8         8
        24        19        17        17
        24        25        28        28
         9        10        16        16
         3         4         1         1
        33        26        27        27
        12        13        19        19
        21        30        22        22
        16        14        20        20
        16        23        21        21
        22        31        27        27
        18        25        17        17
        26        33        28        28
         4         3         8         8
        23        29        32        32
        13        12         6         6
zone t="boundary 4 bc-4", solutiontime= 0.6000000E+02, strandid=1004, i=32, j=46, f=feblock
  0.125000000000E+01  0.219251206392E+01  0.103724302461E+01  0.500000000000E+01  0.250000000000E+01  0.375000000000E+01  0.404200324774E+01
  0.500000000000E+01  0.000000000000E+00  0.310152362409E+01  0.202479342020E+01  0.324151231464E+01  0.922061490191E+00  0.000000000000E+00
  0.299062775774E+01  0.394624082883E+01  0.500000000000E+01  0.409252726285E+01  0.500000000000E+01  0.429310310915E+01  0.175434191980E+01
  0.284428995242E+01  0.000000000000E+00  0.000000000000E+00  0.715990576545E+00  0.930412228790E+00  0.125000000000E+01  0.187029682677E+01
  0.500000000000E+01  0.375000000000E+01  0.250000000000E+01  0.000000000000E+00
  0.250000000000E+01  0.157686156160E+01  0.146289271009E+01  0.250000000000E+01  0.250000000000E+01  0.250000000000E+01  0.155830813274E+01
  0.125000000000E+01  0.250000000000E+01  0.177790177481E+01  0.477386199275E+00  0.742988685424E+00  0.308372018325E+00  0.125000000000E+01
 -0.487811078581E+00 -0.144524380962E+01 -0.125000000000E+01 -0.345533899378E+00  0.000000000000E+00  0.627766083140E+00 -0.739814786992E+00
 -0.158811787973E+01  0.000000000000E+00 -0.125000000000E+01 -0.600232012419E+00 -0.154800130438E+01 -0.250000000000E+01 -0.178862290564E+01
 -0.250000000000E+01 -0.250000000000E+01 -0.250000000000E+01 -0.250000000000E+01
  0.500000000000E+01  0.500000000000E+01  0.500000000000E+01  0.500000000000E+01  0.500000000000E+01  0.500000000000E+01  0.500000000000E+01
  0.500000000000E+01  0.500000000000E+01  0.500000000000E+01  0.500000000000E+01  0.500000000000E+01  0.500000000000E+01  0.500000000000E+01
  0.500000000000E+01  0.500000000000E+01  0.500000000000E+01  0.500000000000E+01  0.500000000000E+01  0.500000000000E+01  0.500000000000E+01
  0.500000000000E+01  0.500000000000E+01  0.500000000000E+01  0.500000000000E+01  0.500000000000E+01  0.500000000000E+01  0.500000000000E+01
  0.500000000000E+01  0.500000000000E+01  0.500000000000E+01  0.500000000000E+01
  0.488563386034E+00  0.488874141190E+00  0.490563798743E+00  0.492980764076E+00  0.486461965853E+00  0.484597695101E+00  0.485348527628E+00
  0.494163498173E+00  0.495347171760E+00  0.486529157407E+00  0.487821059839E+00  0.487069818832E+00  0.494046662670E+00  0.496127919189E+00
  0.487613312932E+00  0.483220341467E+00  0.492395407238E+00  0.487214673604E+00  0.494738901691E+00  0.487958971889E+00  0.489678292776E+00
  0.488030085049E+00  0.497246761305E+00  0.496059785041E+00  0.494951737622E+00  0.492801157110E+00  0.490003707998E+00  0.490006147673E+00
  0.491352331256E+00  0.486076199652E+00  0.490037473019E+00  0.495098812149E+00
  0.100215241692E+01  0.100152628230E+01  0.100178324505E+01  0.100047663613E+01  0.100126796473E+01  0.100066558632E+01  0.100025348584E+01
  0.100050386214E+01  0.100179316439E+01  0.100112346564E+01  0.100133022918E+01  0.100072416220E+01  0.100164344151E+01  0.100168826201E+01
  0.100096255089E+01  0.100000864863E+01  0.100082856799E+01  0.100022259985E+01  0.100062140260E+01  0.100023490461E+01  0.100174609907E+01
  0.100098833616E+01  0.100118709692E+01  0.100134152965E+01  0.100132615972E+01  0.100179851151E+01  0.100192632421E+01  0.100163723092E+01
  0.100045428384E+01  0.100058757388E+01  0.100109969524E+01  0.100176093040E+01
 -0.402876904310E-04 -0.273422912746E-04 -0.701098468711E-04  0.889552377370E-05 -0.658321667041E-05  0.159018446627E-04  0.129905174791E-04
  0.988111777207E-05 -0.125356655744E-03  0.111477043306E-04 -0.434597141975E-04  0.153246153104E-05 -0.107587750818E-03 -0.124133398127E-03
 -0.211194344158E-04 -0.136887148210E-05  0.127817986309E-04  0.622663247479E-05  0.846901930137E-05  0.109990891638E-04 -0.901945718613E-04
 -0.429306241045E-04 -0.139986593763E-03 -0.130342377301E-03 -0.145557956142E-03 -0.114665969345E-03 -0.111944210982E-03 -0.998474119983E-04
  0.991581102362E-05 -0.956815344735E-05 -0.667392174978E-04 -0.110634399836E-03