# vtk DataFile Version 2.0
FUN3D:global_image_vtk
ASCII
DATASET UNSTRUCTURED_GRID
POINTS 213 double
    0.0000000000000000E+00    0.2500000000000000E+01    0.0000000000000000E+00
    0.1250000000000000E+01    0.2500000000000000E+01    0.0000000000000000E+00
    0.2500000000000000E+01    0.2500000000000000E+01    0.0000000000000000E+00
    0.3750000000000000E+01    0.2500000000000000E+01    0.0000000000000000E+00
    0.5000000000000000E+01    0.2500000000000000E+01    0.0000000000000000E+00
    0.5000000000000000E+01    0.1250000000000000E+01    0.0000000000000000E+00
    0.5000000000000000E+01    0.0000000000000000E+00    0.0000000000000000E+00
    0.5000000000000000E+01   -0.1250000000000000E+01    0.0000000000000000E+00
    0.5000000000000000E+01   -0.2500000000000000E+01    0.0000000000000000E+00
    0.3750000000000000E+01   -0.2500000000000000E+01    0.0000000000000000E+00
    0.2500000000000000E+01   -0.2500000000000000E+01    0.0000000000000000E+00
    0.1250000000000000E+01   -0.2500000000000000E+01    0.0000000000000000E+00
    0.0000000000000000E+00   -0.2500000000000000E+01    0.0000000000000000E+00
    0.0000000000000000E+00   -0.1250000000000000E+01    0.0000000000000000E+00
    0.0000000000000000E+00    0.0000000000000000E+00    0.0000000000000000E+00
    0.0000000000000000E+00    0.1250000000000000E+01    0.0000000000000000E+00
    0.9058375365086910E+00    0.1578994732800803E+01    0.0000000000000000E+00
    0.3982050490726493E+01   -0.1583989954232354E+01    0.0000000000000000E+00
    0.4033849428301197E+01    0.1453322699199022E+01    0.0000000000000000E+00
    0.1040505887381675E+01   -0.1479596339503735E+01    0.0000000000000000E+00
    0.1099454400140349E+01   -0.3227322616384110E+00    0.0000000000000000E+00
    0.7354504170366591E+00    0.6593508822075582E+00    0.0000000000000000E+00
    0.1622302608453282E+01    0.8256214013940779E+00    0.0000000000000000E+00
    0.2145871574390382E+01   -0.1650070333782557E+01    0.0000000000000000E+00
    0.4086422318222992E+01   -0.4612828702537229E+00    0.0000000000000000E+00
    0.2979540174134984E+01   -0.8579242121530853E+00    0.0000000000000000E+00
    0.3045064261640043E+01   -0.1836846154397680E+01    0.0000000000000000E+00
    0.3428197553792836E+01    0.3508002863614053E+00    0.0000000000000000E+00
    0.4309693860063405E+01    0.5185680230613409E+00    0.0000000000000000E+00
    0.1827272193562204E+01    0.1738996113203182E+01    0.0000000000000000E+00
    0.2808563282768077E+01    0.1325493893339706E+01    0.0000000000000000E+00
    0.1895995683864404E+01   -0.8731419609589618E+00    0.0000000000000000E+00
    0.2273179336307740E+01    0.4906150219227333E-01    0.0000000000000000E+00
    0.5000000000000000E+01    0.2500000000000000E+01    0.1250000000000000E+01
    0.5000000000000000E+01    0.2500000000000000E+01    0.2500000000000000E+01
    0.5000000000000000E+01    0.2500000000000000E+01    0.3750000000000000E+01
    0.5000000000000000E+01    0.2500000000000000E+01    0.5000000000000000E+01
    0.3750000000000000E+01    0.2500000000000000E+01    0.5000000000000000E+01
    0.2500000000000000E+01    0.2500000000000000E+01    0.5000000000000000E+01
    0.1250000000000000E+01    0.2500000000000000E+01    0.5000000000000000E+01
    0.0000000000000000E+00    0.2500000000000000E+01    0.5000000000000000E+01
    0.0000000000000000E+00    0.2500000000000000E+01    0.3750000000000000E+01
    0.0000000000000000E+00    0.2500000000000000E+01    0.2500000000000000E+01
    0.0000000000000000E+00    0.2500000000000000E+01    0.1250000000000000E+01
    0.9631080833812172E+00    0.2500000000000000E+01    0.9613285771248219E+00
    0.3981732467264904E+01    0.2500000000000000E+01    0.4069753913607991E+01
    0.4035525118777670E+01    0.2500000000000000E+01    0.1012015867579395E+01
    0.9641717640894248E+00    0.2500000000000000E+01    0.3972455192261839E+01
    0.1547743040396780E+01    0.2500000000000000E+01    0.2928177746738678E+01
    0.6985170616192014E+00    0.2500000000000000E+01    0.3068281976055466E+01
    0.8931277594515110E+00    0.2500000000000000E+01    0.2052465503257726E+01
    0.2183293750162785E+01    0.2500000000000000E+01    0.3959073795658649E+01
    0.3855333506014705E+01    0.2500000000000000E+01    0.2931218481500625E+01
    0.3152495579421047E+01    0.2500000000000000E+01    0.3635850502723324E+01
    0.3103247580566054E+01    0.2500000000000000E+01    0.4331682712472464E+01
    0.3266837581688852E+01    0.2500000000000000E+01    0.1886092433583972E+01
    0.4231539241296245E+01    0.2500000000000000E+01    0.1915865356532799E+01
    0.1909741006522088E+01    0.2500000000000000E+01    0.7170024419130505E+00
    0.2880784107213163E+01    0.2500000000000000E+01    0.9046598906449592E+00
    0.2014316024535771E+01    0.2500000000000000E+01    0.1762464314805728E+01
    0.2670003247036656E+01    0.2500000000000000E+01    0.2850479545835163E+01
    0.5000000000000000E+01    0.1250000000000000E+01    0.5000000000000000E+01
    0.5000000000000000E+01    0.0000000000000000E+00    0.5000000000000000E+01
    0.5000000000000000E+01   -0.1250000000000000E+01    0.5000000000000000E+01
    0.5000000000000000E+01   -0.2500000000000000E+01    0.5000000000000000E+01
    0.5000000000000000E+01   -0.2500000000000000E+01    0.3750000000000000E+01
    0.5000000000000000E+01   -0.2500000000000000E+01    0.2500000000000000E+01
    0.5000000000000000E+01   -0.2500000000000000E+01    0.1250000000000000E+01
    0.5000000000000000E+01    0.1578994732800803E+01    0.9058375365086910E+00
    0.5000000000000000E+01   -0.1583989954232354E+01    0.3982050490726493E+01
    0.5000000000000000E+01    0.1453322699199022E+01    0.4033849428301197E+01
    0.5000000000000000E+01   -0.1479596339503735E+01    0.1040505887381675E+01
    0.5000000000000000E+01   -0.3227322616384110E+00    0.1099454400140349E+01
    0.5000000000000000E+01    0.6593508822075582E+00    0.7354504170366591E+00
    0.5000000000000000E+01    0.8256214013940779E+00    0.1622302608453282E+01
    0.5000000000000000E+01   -0.1650070333782557E+01    0.2145871574390382E+01
    0.5000000000000000E+01   -0.4612828702537229E+00    0.4086422318222992E+01
    0.5000000000000000E+01   -0.8579242121530853E+00    0.2979540174134984E+01
    0.5000000000000000E+01   -0.1836846154397680E+01    0.3045064261640043E+01
    0.5000000000000000E+01    0.3508002863614053E+00    0.3428197553792836E+01
    0.5000000000000000E+01    0.5185680230613409E+00    0.4309693860063405E+01
    0.5000000000000000E+01    0.1738996113203182E+01    0.1827272193562204E+01
    0.5000000000000000E+01    0.1325493893339706E+01    0.2808563282768077E+01
    0.5000000000000000E+01   -0.8731419609589618E+00    0.1895995683864404E+01
    0.5000000000000000E+01    0.4906150219227333E-01    0.2273179336307740E+01
    0.0000000000000000E+00    0.1250000000000000E+01    0.5000000000000000E+01
    0.0000000000000000E+00    0.0000000000000000E+00    0.5000000000000000E+01
    0.0000000000000000E+00   -0.1250000000000000E+01    0.5000000000000000E+01
    0.0000000000000000E+00   -0.2500000000000000E+01    0.5000000000000000E+01
    0.1250000000000000E+01   -0.2500000000000000E+01    0.5000000000000000E+01
    0.2500000000000000E+01   -0.2500000000000000E+01    0.5000000000000000E+01
    0.3750000000000000E+01   -0.2500000000000000E+01    0.5000000000000000E+01
    0.4042003247744892E+01    0.1558308132739014E+01    0.5000000000000000E+01
    0.9304122287900499E+00   -0.1548001304379777E+01    0.5000000000000000E+01
    0.1037243024609388E+01    0.1462892710085612E+01    0.5000000000000000E+01
    0.3946240828834967E+01   -0.1445243809615570E+01    0.5000000000000000E+01
    0.4092527262848217E+01   -0.3455338993778935E+00    0.5000000000000000E+01
    0.4293103109154542E+01    0.6277660831404320E+00    0.5000000000000000E+01
    0.3241512314643519E+01    0.7429886854239611E+00    0.5000000000000000E+01
    0.2844289952419609E+01   -0.1588117879734118E+01    0.5000000000000000E+01
    0.7159905765450471E+00   -0.6002320124191652E+00    0.5000000000000000E+01
    0.1754341919796891E+01   -0.7398147869923652E+00    0.5000000000000000E+01
    0.1870296826774691E+01   -0.1788622905643739E+01    0.5000000000000000E+01
    0.9220614901912976E+00    0.3083720183248586E+00    0.5000000000000000E+01
    0.3101523624086016E+01    0.1777901774806180E+01    0.5000000000000000E+01
    0.2192512063922564E+01    0.1576861561598471E+01    0.5000000000000000E+01
    0.2024793420196460E+01    0.4773861992750707E+00    0.5000000000000000E+01
    0.2990627757741975E+01   -0.4878110785814084E+00    0.5000000000000000E+01
    0.0000000000000000E+00   -0.2500000000000000E+01    0.1250000000000000E+01
    0.0000000000000000E+00   -0.2500000000000000E+01    0.2500000000000000E+01
    0.0000000000000000E+00   -0.2500000000000000E+01    0.3750000000000000E+01
    0.0000000000000000E+00    0.1558308132739014E+01    0.4042003247744892E+01
    0.0000000000000000E+00   -0.1548001304379777E+01    0.9304122287900499E+00
    0.0000000000000000E+00    0.1462892710085612E+01    0.1037243024609388E+01
    0.0000000000000000E+00   -0.1445243809615570E+01    0.3946240828834967E+01
    0.0000000000000000E+00   -0.3455338993778935E+00    0.4092527262848217E+01
    0.0000000000000000E+00    0.6277660831404320E+00    0.4293103109154542E+01
    0.0000000000000000E+00    0.7429886854239611E+00    0.3241512314643519E+01
    0.0000000000000000E+00   -0.1588117879734118E+01    0.2844289952419609E+01
    0.0000000000000000E+00   -0.6002320124191652E+00    0.7159905765450471E+00
    0.0000000000000000E+00   -0.7398147869923652E+00    0.1754341919796891E+01
    0.0000000000000000E+00   -0.1788622905643739E+01    0.1870296826774691E+01
    0.0000000000000000E+00    0.3083720183248586E+00    0.9220614901912976E+00
    0.0000000000000000E+00    0.1777901774806180E+01    0.3101523624086016E+01
    0.0000000000000000E+00    0.1576861561598471E+01    0.2192512063922564E+01
[...]
POINT_DATA 213
SCALARS rho double 1
LOOKUP_TABLE default
   0.1344271449753191E+01
   0.9569758915601559E+00
   0.9462964201096645E+00
   0.9418612719438280E+00
   0.8437304901315752E+00
   0.7738004326125690E+00
   0.7629818923605938E+00
   0.7664577919383627E+00
   0.8307874046208414E+00
   0.9352972565224688E+00
   0.9342219822071947E+00
   0.9617195286478801E+00
   0.1449457451818056E+01
   0.1494090644666789E+01
   0.1644667277210676E+01
   0.1425832049577098E+01
   0.1009014435357551E+01
   0.9508810865041355E+00
   0.9436508502330021E+00
   0.9581561034575001E+00
   0.9415852462593897E+00
   0.1036377240652666E+01
   0.9256161101142366E+00
   0.9322349872572973E+00
   0.9537479579735085E+00
   0.9518769567264650E+00
   0.9348583129288170E+00
   0.9564028420029413E+00
   0.9376098403645599E+00
   0.9300661525951609E+00
   0.9445157493575822E+00
   0.8863506519364573E+00
   0.9423579969901408E+00
   0.9635003083156441E+00
   0.1008299039486565E+01
   0.1006735291823979E+01
   0.1001964617672338E+01
   0.1003219581578457E+01
   0.1004132054006708E+01
   0.1005228602963308E+01
   0.1004260408273660E+01
   0.1008308190008206E+01
   0.1023893138005442E+01
   0.1063553956100278E+01
   0.1019182513309205E+01
   0.1001780766435492E+01
   0.9643309943818158E+00
   0.1005283709015931E+01
   0.1000721163311459E+01
   0.1008742083845055E+01
   0.1008078083676605E+01
   0.1002349807143782E+01
   0.9979986848156034E+00
   0.1000583560962851E+01
   0.1001620123683642E+01
   0.9826893073698606E+00
   0.9842439642966658E+00
   0.9833314037059708E+00
   0.9788207413554987E+00
   0.9902638161478303E+00
   0.9934561553348957E+00
   0.1002011751749303E+01
   0.1002134465741609E+01
   0.1002276326556719E+01
   0.1001794758398387E+01
   0.1009778638905410E+01
   0.1006429109021373E+01
   0.9558786961329179E+00
   0.9249398412614426E+00
   0.1007036755536456E+01
   0.1004504925173333E+01
   0.9143642077183991E+00
   0.9089667861179889E+00
   0.8751688903285985E+00
   0.9767271885420266E+00
   0.1000452621146783E+01
   0.1005831087461678E+01
   0.1012882803218260E+01
   0.1011618951277404E+01
   0.1010438648575367E+01
   0.1005468280912126E+01
   0.9907612679626931E+00
   0.1005140325681153E+01
   0.9860567246266770E+00
   0.1005609737634739E+01
   0.1004248005738948E+01
   0.1002888437722914E+01
   0.1003345420480017E+01
   0.1003992731905478E+01
   0.1005101716207134E+01
   0.1003211645202354E+01
   0.1002663160005017E+01
   0.1002586231523293E+01
   0.1004060870979671E+01
   0.1004320346070384E+01
   0.1001641920431550E+01
   0.1002273116065838E+01
   0.1002543475707083E+01
   0.1003469520887575E+01
   0.1003372640316290E+01
   0.1003232230077968E+01
   0.1004423863502289E+01
   0.1004313070889026E+01
   0.1003659849436664E+01
   0.1003723103984602E+01
   0.1004329726484350E+01
   0.1004465021932355E+01
   0.1003623375376199E+01
   0.1064422801069342E+01
   0.1028473621467354E+01
   0.1009586657368591E+01
   0.1006638837516138E+01
   0.1163935522443169E+01
   0.1086087969845804E+01
   0.1007893419315887E+01
   0.1007245533349926E+01
   0.1006798074181838E+01
   0.1013018287015952E+01
   0.1019384609579108E+01
   0.1235203670053184E+01
   0.1032529466779422E+01
   0.1046681191679461E+01
   0.1200953642615311E+01
   0.1014718916079972E+01
   0.1032291153311155E+01
   0.1028095236797480E+01
   0.1014628639884076E+01
   0.1029216893279762E+01
   0.1001994816414489E+01
   0.9606929197413338E+00
   0.1006852582844729E+01
   0.1001327193363637E+01
   0.1010821905423174E+01
   0.1012246098915456E+01
   0.1000946006966975E+01
   0.9979121234097599E+00
   0.9980632372999955E+00
   0.1001184143412858E+01
   0.9841362012039225E+00
   0.9814879615682613E+00
   0.9648483322500312E+00
   0.9680877129803701E+00
   0.9914124472252527E+00
   0.9910858388774806E+00
   0.9925545095958942E+00
   0.1001727533897144E+01
   0.9993409402236448E+00
   0.9941410835194122E+00
   0.1007038753607650E+01
   0.1022539494141322E+01
   0.1001088098530401E+01
   0.1008798496304833E+01
   0.1004773846131792E+01
   0.1009050237493978E+01
   0.9966470332462772E+00
   0.1004988557997843E+01
   0.1003325535218381E+01
   0.9949431085525882E+00
   0.9832680782203412E+00
   0.9943957455158007E+00
   0.9973420656358210E+00
   0.9932190085608905E+00
   0.1001306487178217E+01
   0.1003001636987875E+01
   0.1002183579670267E+01
   0.9947078545023084E+00
   0.9937965521504502E+00
   0.1004867865564522E+01
   0.1020077607451387E+01
   0.1005364552435822E+01
   0.9816998152738787E+00
   0.1004973031277085E+01
   0.1012382323451245E+01
   0.9871424296375828E+00
   0.9551513534802893E+00
   0.9865075700380994E+00
   0.9864532950177387E+00
   0.9918946944239958E+00
   0.9933508198446973E+00
   0.9954406190013408E+00
   0.1037336789730609E+01
   0.1033536797993111E+01
   0.1001443320817184E+01
   0.1001930499801366E+01
   0.9912478515957924E+00
   0.9910920509431415E+00
   0.9648489990824636E+00
   0.9933282604844497E+00
   0.1006058638640035E+01
   0.1001954027117099E+01
   0.9908735804794686E+00
   0.9740945213571476E+00
   0.9418802142143675E+00
   0.9819379692194189E+00
   0.9794803560685330E+00
   0.9704172061886122E+00
   0.9720478947092441E+00
   0.9557351703073120E+00
   0.9496731213601882E+00
   0.9528673572357055E+00
   0.1002659534063880E+01
   0.1002471631971364E+01
   0.1000509329303213E+01
   0.1001677321739061E+01
   0.9607931434941045E+00
   0.9491625507091727E+00
   0.9584503069137834E+00
   0.1001121207788341E+01
   0.1000496140593026E+01
   0.1001156644190099E+01
   0.9807376183730041E+00
   0.9806000808958353E+00
   0.9628476109243194E+00
SCALARS u double 1
LOOKUP_TABLE default
   0.0000000000000000E+00
   0.0000000000000000E+00
   0.0000000000000000E+00
   0.0000000000000000E+00
   0.0000000000000000E+00
   0.0000000000000000E+00
   0.0000000000000000E+00
   0.0000000000000000E+00
   0.0000000000000000E+00
   0.0000000000000000E+00
   0.0000000000000000E+00
   0.0000000000000000E+00
   0.0000000000000000E+00
   0.0000000000000000E+00
   0.0000000000000000E+00
   0.0000000000000000E+00
   0.0000000000000000E+00
   0.0000000000000000E+00
   0.0000000000000000E+00
   0.0000000000000000E+00
   0.0000000000000000E+00
   0.0000000000000000E+00
   0.0000000000000000E+00
   0.0000000000000000E+00
   0.0000000000000000E+00
   0.0000000000000000E+00
   0.0000000000000000E+00
   0.0000000000000000E+00
   0.0000000000000000E+00
   0.0000000000000000E+00
   0.0000000000000000E+00
   0.0000000000000000E+00
   0.0000000000000000E+00
   0.4950176832282542E+00
   0.5338221300964660E+00
   0.5183269247542647E+00
   0.4930649880361267E+00
   0.4847578719837309E+00
   0.4867666423892472E+00
   0.4890763583174495E+00
   0.4957848880171617E+00
   0.4898301883785763E+00
   0.4717388493399116E+00
   0.4454814153543515E+00
   0.4833907048906836E+00
   0.5098397461692884E+00
   0.4390712699906091E+00
   0.4949403964608378E+00
   0.5225330362412453E+00
   0.4962454545615190E+00
   0.5226154963537388E+00
   0.5038881742787400E+00
   0.5646883608880103E+00
   0.5247509156484452E+00
   0.4991466119124567E+00
   0.5730561900853014E+00
   0.5696051095960804E+00
   0.3737941449717780E+00
   0.3998658124525592E+00
   0.5599326587326181E+00
   0.5564587630418900E+00
   0.4942627333420627E+00
   0.4948659466749544E+00
   0.4925735874465345E+00
   0.4914269544061712E+00
   0.5162356851513015E+00
   0.5361798306000838E+00
   0.4947413355849329E+00
   0.4524112202370338E+00
   0.5128777326138632E+00
   0.5117942040691178E+00
   0.4783517504046250E+00
   0.4931696655319396E+00
   0.4603173591907228E+00
   0.5244892720162003E+00
   0.5297434248143652E+00
   0.5129579301213985E+00
   0.5328358320382413E+00
   0.5308941037946353E+00
   0.5309856170962324E+00
   0.5063656735746039E+00
   0.5282461955493710E+00
   0.5410312730985795E+00
   0.5361261481139385E+00
   0.5374105276903276E+00
   0.4965364818528988E+00
   0.4975340903808871E+00
   0.4963842644337686E+00
   0.4955220267354268E+00
   0.4904581830632920E+00
   0.4903044384879994E+00
   0.4862182764014441E+00
   0.4854049562043796E+00
   0.4932164387733043E+00
   0.4909833312117765E+00
   0.4832194696587617E+00
   0.4872622778026056E+00
   0.4880124910941226E+00
   0.4872445931980090E+00
   0.4882696669018604E+00
   0.4952597556301785E+00
   0.4900967167428607E+00
   0.4904000090213635E+00
   0.4944232925374620E+00
   0.4868002480939914E+00
   0.4892385983769509E+00
   0.4881393369650905E+00
   0.4878457828925680E+00
   0.4446866578962620E+00
   0.4700028779624275E+00
   0.4891999056173390E+00
   0.4885247843456896E+00
   0.4506533042834529E+00
   0.4687378565423262E+00
   0.4877010456443288E+00
   0.4868353683036862E+00
   0.4908994715753101E+00
   0.4793551576244883E+00
   0.4658071746423899E+00
   0.3792725225377501E+00
   0.4901596529932545E+00
   0.4486686689541780E+00
   0.4436137388858130E+00
   0.4845147240840089E+00
   0.4621822644792002E+00
   0.4665749533939678E+00
   0.4748140298832188E+00
   0.4894494216249332E+00
   0.5085556973710379E+00
   0.4315073868749710E+00
   0.4927349360741965E+00
   0.5318289234092729E+00
   0.4913399195703765E+00
   0.5207019993055854E+00
   0.5060964599208317E+00
   0.5688797395565474E+00
   0.5273992817962877E+00
   0.5015044841276917E+00
   0.5821790085838835E+00
   0.5689618251179700E+00
   0.3406394441864252E+00
   0.3789869409765750E+00
   0.5751958206979531E+00
   0.5666485493446893E+00
   0.5704108783053718E+00
   0.5291056376045727E+00
   0.5451902710866874E+00
   0.5718804315097333E+00
   0.5389079125546873E+00
   0.5475507504509227E+00
   0.5821713868894937E+00
   0.4925601784074009E+00
   0.5042157545864122E+00
   0.4961735435737584E+00
   0.5565207962980233E+00
   0.4758845213289102E+00
   0.4950268383126076E+00
   0.5498525443193172E+00
   0.5891202295867127E+00
   0.5841957609049969E+00
   0.5469097664425271E+00
   0.5805417617832138E+00
   0.5106251438100418E+00
   0.5030200512661929E+00
   0.5033624679521083E+00
   0.5676446096765645E+00
   0.5563943082693957E+00
   0.4947255972930362E+00
   0.5505243828643811E+00
   0.5510857281513338E+00
   0.5657350949584875E+00
   0.4920070017245957E+00
   0.4927299096225649E+00
   0.3865140567368018E+00
   0.3687754531644155E+00
   0.5574921716598051E+00
   0.5763755545329757E+00
   0.4194304389881989E+00
   0.5824843240083563E+00
   0.4265209611406172E+00
   0.5392799843639204E+00
   0.5012032759595241E+00
   0.5119513208045410E+00
   0.5049119463229248E+00
   0.5751974973840930E+00
   0.5876371360447912E+00
   0.5379907803827011E+00
   0.5677472540375594E+00
   0.5351248667031233E+00
   0.5338056379794841E+00
   0.5580313798463969E+00
   0.5512707859810817E+00
   0.4261852750132524E+00
   0.5273356176555118E+00
   0.5795712528833775E+00
   0.3318687130694811E+00
   0.4760283322076721E+00
   0.5446196251992739E+00
   0.4798331895836257E+00
   0.3005293504309346E+00
   0.5031051137904977E+00
   0.5017115977287485E+00
   0.5129033210837799E+00
   0.5414840108541046E+00
   0.3437603851159989E+00
   0.3397710711447527E+00
   0.3189928566162813E+00
   0.5065936051692728E+00
   0.5123483779929490E+00
   0.5330313519368599E+00
   0.5879310000413611E+00
   0.4644180532730360E+00
   0.3531270505695130E+00
SCALARS v double 1
LOOKUP_TABLE default
   0.0000000000000000E+00
   0.0000000000000000E+00
   0.0000000000000000E+00
   0.0000000000000000E+00
   0.0000000000000000E+00
   0.0000000000000000E+00
   0.0000000000000000E+00
   0.0000000000000000E+00
   0.0000000000000000E+00
   0.0000000000000000E+00
   0.0000000000000000E+00
   0.0000000000000000E+00
   0.0000000000000000E+00
   0.0000000000000000E+00
   0.0000000000000000E+00
   0.0000000000000000E+00
   0.0000000000000000E+00
   0.0000000000000000E+00
   0.0000000000000000E+00
   0.0000000000000000E+00
   0.0000000000000000E+00
   0.0000000000000000E+00
   0.0000000000000000E+00
   0.0000000000000000E+00
   0.0000000000000000E+00
   0.0000000000000000E+00
   0.0000000000000000E+00
   0.0000000000000000E+00
   0.0000000000000000E+00
   0.0000000000000000E+00
   0.0000000000000000E+00
   0.0000000000000000E+00
   0.0000000000000000E+00
   0.0000000000000000E+00
   0.0000000000000000E+00
   0.0000000000000000E+00
   0.0000000000000000E+00
   0.0000000000000000E+00
   0.0000000000000000E+00
   0.0000000000000000E+00
   0.0000000000000000E+00
   0.0000000000000000E+00
   0.0000000000000000E+00
   0.0000000000000000E+00
   0.0000000000000000E+00
   0.0000000000000000E+00
   0.0000000000000000E+00
   0.0000000000000000E+00
   0.0000000000000000E+00
   0.0000000000000000E+00
   0.0000000000000000E+00
   0.0000000000000000E+00
   0.0000000000000000E+00
   0.0000000000000000E+00
   0.0000000000000000E+00
   0.0000000000000000E+00
   0.0000000000000000E+00
   0.0000000000000000E+00
   0.0000000000000000E+00
   0.0000000000000000E+00
   0.0000000000000000E+00
   0.7970254989338527E-03
  -0.1329294638742948E-02
  -0.1332592722201439E-02
   0.0000000000000000E+00
   0.0000000000000000E+00
   0.0000000000000000E+00
   0.0000000000000000E+00
  -0.1922562575804634E-01
   0.4770618164173141E-03
   0.2183360164284248E-02
   0.1427333018200695E-01
  -0.6488282114494781E-02
  -0.7821623097195576E-02
  -0.1327725063895810E-01
   0.4914481806214049E-02
   0.6907121700073439E-03
   0.3434418434932082E-02
   0.1920847393082300E-02
   0.3147960208438415E-02
   0.1704778353854666E-02
  -0.7316187411802300E-02
  -0.7701903579045341E-04
   0.4468738039599538E-02
  -0.4387156502982382E-03
  -0.6383742874424545E-04
  -0.1963394593219395E-03
   0.8071268044688417E-03
   0.0000000000000000E+00
   0.0000000000000000E+00
   0.0000000000000000E+00
   0.0000000000000000E+00
   0.4257020617264169E-03
   0.1616304637620328E-02
  -0.1297550944286831E-02
  -0.1022774940122822E-02
  -0.2134342356993314E-02
  -0.1064012604217546E-02
  -0.8200064048662866E-03
  -0.7617032824894448E-03
   0.5202259335853590E-04
  -0.6244091776587703E-03
   0.7916469215695488E-03
  -0.1745238507404959E-02
   0.2747128728839955E-03
  -0.8939747006665097E-04
  -0.9424310089163626E-03
  -0.1100227506100468E-02
   0.0000000000000000E+00
   0.0000000000000000E+00
   0.0000000000000000E+00
  -0.1061759102994837E-02
  -0.7641128904621610E-02
   0.1860854760716795E-01
  -0.2834554246516530E-04
  -0.1383129153134591E-02
  -0.2035122973316540E-02
  -0.5666383184884850E-02
  -0.1585210203640050E-02
  -0.5947016501746416E-02
  -0.4160601919082859E-02
   0.1565614818627272E-02
   0.3329524835076366E-01
   0.3055141417014720E-04
  -0.2766884856859932E-02
   0.3566484724780666E-02
   0.3596189356161188E-03
   0.0000000000000000E+00
   0.0000000000000000E+00
   0.0000000000000000E+00
   0.0000000000000000E+00
   0.0000000000000000E+00
   0.0000000000000000E+00
   0.0000000000000000E+00
   0.0000000000000000E+00
   0.0000000000000000E+00
   0.0000000000000000E+00
   0.0000000000000000E+00
   0.0000000000000000E+00
   0.0000000000000000E+00
   0.0000000000000000E+00
   0.0000000000000000E+00
   0.0000000000000000E+00
   0.0000000000000000E+00
   0.5047032583285367E-02
   0.3230791960199974E-02
   0.8149134301741945E-02
   0.6168367002998216E-02
   0.1122928643467955E-01
   0.1429277503836163E-01
  -0.2038826776370425E-03
   0.5118221841735681E-02
   0.2914950551193929E-02
   0.3373611846855665E-02
   0.3728336444912558E-02
  -0.1465719873037400E-01
  -0.6159699932175886E-03
   0.6651630356920596E-02
   0.1542014247802494E-02
   0.1969646526377663E-02
   0.4266273537223576E-02
  -0.2790960952025709E-02
   0.1226887064722979E-02
   0.2819172490341100E-02
   0.1497449161783054E-02
   0.2575339044841566E-02
   0.2030646449729389E-02
   0.2118046074226981E-02
   0.8700410481656500E-02
  -0.3733396990513351E-02
   0.6241189122950745E-02
   0.2516488842855632E-04
  -0.3854044934800237E-03
  -0.1674679016035307E-01
  -0.4881976932548528E-02
  -0.4720000830866665E-02
   0.3445223057660364E-02
  -0.6135724119687652E-02
   0.9934520448261028E-04
  -0.3291372934760930E-01
  -0.3046196746030423E-02
   0.4722743213129134E-02
   0.9228367791021874E-03
   0.2112175228964760E-02
   0.4518755699266182E-02
   0.2720465291069632E-02
   0.3212576506024955E-02
   0.5200804227362521E-02
   0.1941838963606250E-02
   0.7315897372052531E-03
  -0.2555237779419109E-04
  -0.5374632818262720E-02
  -0.6959591105161964E-02
  -0.9443816325780085E-03
   0.1105268434219815E-02
  -0.2080554146077778E-02
  -0.3200035926529781E-02
  -0.2527833395612231E-02
  -0.4115193596887741E-02
  -0.7593954952759102E-02
  -0.1985686407968207E-02
   0.6240402798036707E-03
  -0.2239081898268120E-03
   0.1216949770987943E-02
  -0.3483958343531366E-02
   0.5229139875222282E-02
  -0.8487626030211600E-02
   0.2315169256287917E-04
  -0.3395192914024228E-03
   0.2542663549474388E-02
   0.1663457703095677E-02
   0.2021438734679098E-02
  -0.5620784022333316E-02
SCALARS w double 1
LOOKUP_TABLE default
   0.0000000000000000E+00
   0.0000000000000000E+00
   0.0000000000000000E+00
   0.0000000000000000E+00
   0.0000000000000000E+00
   0.0000000000000000E+00
   0.0000000000000000E+00
   0.0000000000000000E+00
   0.0000000000000000E+00
   0.0000000000000000E+00
   0.0000000000000000E+00
   0.0000000000000000E+00
   0.0000000000000000E+00
   0.0000000000000000E+00
   0.0000000000000000E+00
   0.0000000000000000E+00
   0.0000000000000000E+00
   0.0000000000000000E+00
   0.0000000000000000E+00
   0.0000000000000000E+00
   0.0000000000000000E+00
   0.0000000000000000E+00
   0.0000000000000000E+00
   0.0000000000000000E+00
   0.0000000000000000E+00
   0.0000000000000000E+00
   0.0000000000000000E+00
   0.0000000000000000E+00
   0.0000000000000000E+00
   0.0000000000000000E+00
   0.0000000000000000E+00
   0.0000000000000000E+00
   0.0000000000000000E+00
  -0.1007612286079630E+00
  -0.4249297112048996E-01
   0.7371986918582689E-03
   0.5725799903867802E-02
   0.5699058120041214E-03
   0.1609783184074534E-02
   0.3375073109805061E-02
   0.2371773684268097E-02
   0.4590624815927689E-03
   0.3518225895742120E-02
   0.4521817585372508E-01
   0.6522937826001698E-01
   0.8689297893878518E-03
  -0.2261151822603503E-01
   0.4316553589354972E-02
   0.1358734842990225E-01
   0.1039452556396256E-01
   0.4900548417219507E-01
   0.2437443601572195E-02
  -0.6509940967448947E-02
  -0.7012226536923280E-03
   0.3411017235915106E-03
   0.3904107440117635E-02
  -0.3893254288423144E-01
   0.1798168102931584E-01
   0.1119638178200850E-01
   0.3403773260373884E-01
   0.8438810307043533E-02
   0.4937312222540479E-02
   0.4970345555610633E-02
   0.4871517453671762E-02
   0.6027191754698038E-02
   0.2599191872133394E-02
  -0.4144429577987367E-01
  -0.9954261840825122E-01
  -0.1121678216500128E+00
   0.5070875111950074E-02
   0.4230770732369759E-02
  -0.1004732302043481E+00
  -0.9895252480992515E-01
  -0.9875450923713359E-01
  -0.9462509589600071E-01
  -0.6807133805997555E-01
   0.5154922236710532E-02
  -0.1935330736926648E-01
  -0.1575800280196802E-01
  -0.6002862303414854E-02
   0.6819057389524817E-02
  -0.8010050782789795E-01
  -0.2781092444221600E-01
  -0.8096457334848595E-01
  -0.5873277542064894E-01
   0.3083625721961892E-02
   0.2685146503898411E-02
   0.2640431215707538E-02
   0.3450191958620525E-02
   0.4007083860160128E-02
   0.1201214381484688E-02
  -0.1438845870484603E-03
   0.2039877286616904E-02
   0.4895693686251026E-02
   0.3857385676522106E-02
   0.1114202000602534E-02
   0.1182682053174660E-02
   0.1465296225905225E-02
  -0.1653632277771003E-04
   0.8996631801527724E-04
   0.4386667936414565E-02
   0.2715724320552790E-02
   0.2322755380518057E-02
   0.5010601114073126E-02
   0.1071689437530794E-02
   0.2712217804891728E-02
   0.2013964161920499E-02
   0.2879094695165000E-04
   0.8374614359109019E-01
   0.2793870736700056E-02
  -0.8346628025402166E-03
  -0.1492945278954130E-03
   0.1409540848822347E+00
   0.1239332959604009E+00
  -0.1219093282831932E-02
  -0.4381936066946471E-02
  -0.3043057648894542E-03
  -0.6512246786555407E-02
  -0.1949570292214324E-02
   0.1557630977406013E+00
   0.7489979215442701E-01
   0.2550174920084813E-01
   0.1656445124913106E+00