# vtk DataFile Version 2.0
FUN3D:global_image_vtk
ASCII
DATASET UNSTRUCTURED_GRID
POINTS 213 double
    0.0000000000000000E+00    0.2500000000000000E+01    0.0000000000000000E+00
    0.1250000000000000E+01    0.2500000000000000E+01    0.0000000000000000E+00
    0.2500000000000000E+01    0.2500000000000000E+01    0.0000000000000000E+00
    0.3750000000000000E+01    0.2500000000000000E+01    0.0000000000000000E+00
    0.5000000000000000E+01    0.2500000000000000E+01    0.0000000000000000E+00
    0.5000000000000000E+01    0.1250000000000000E+01    0.0000000000000000E+00
    0.5000000000000000E+01    0.0000000000000000E+00    0.0000000000000000E+00
    0.5000000000000000E+01   -0.1250000000000000E+01    0.0000000000000000E+00
    0.5000000000000000E+01   -0.2500000000000000E+01    0.0000000000000000E+00
    0.3750000000000000E+01   -0.2500000000000000E+01    0.0000000000000000E+00
    0.2500000000000000E+01   -0.2500000000000000E+01    0.0000000000000000E+00
    0.1250000000000000E+01   -0.2500000000000000E+01    0.0000000000000000E+00
    0.0000000000000000E+00   -0.2500000000000000E+01    0.0000000000000000E+00
    0.0000000000000000E+00   -0.1250000000000000E+01    0.0000000000000000E+00
    0.0000000000000000E+00    0.0000000000000000E+00    0.0000000000000000E+00
    0.0000000000000000E+00    0.1250000000000000E+01    0.0000000000000000E+00
    0.9058375365086910E+00    0.1578994732800803E+01    0.0000000000000000E+00
    0.3982050490726493E+01   -0.1583989954232354E+01    0.0000000000000000E+00
    0.4033849428301197E+01    0.1453322699199022E+01    0.0000000000000000E+00
    0.1040505887381675E+01   -0.1479596339503735E+01    0.0000000000000000E+00
    0.1099454400140349E+01   -0.3227322616384110E+00    0.0000000000000000E+00
    0.7354504170366591E+00    0.6593508822075582E+00    0.0000000000000000E+00
    0.1622302608453282E+01    0.8256214013940779E+00    0.0000000000000000E+00
    0.2145871574390382E+01   -0.1650070333782557E+01    0.0000000000000000E+00
    0.4086422318222992E+01   -0.4612828702537229E+00    0.0000000000000000E+00
    0.2979540174134984E+01   -0.8579242121530853E+00    0.0000000000000000E+00
    0.3045064261640043E+01   -0.1836846154397680E+01    0.0000000000000000E+00
    0.3428197553792836E+01    0.3508002863614053E+00    0.0000000000000000E+00
    0.4309693860063405E+01    0.5185680230613409E+00    0.0000000000000000E+00
    0.1827272193562204E+01    0.1738996113203182E+01    0.0000000000000000E+00
    0.2808563282768077E+01    0.1325493893339706E+01    0.0000000000000000E+00
    0.1895995683864404E+01   -0.8731419609589618E+00    0.0000000000000000E+00
    0.2273179336307740E+01    0.4906150219227333E-01    0.0000000000000000E+00
    0.5000000000000000E+01    0.2500000000000000E+01    0.1250000000000000E+01
    0.5000000000000000E+01    0.2500000000000000E+01    0.2500000000000000E+01
    0.5000000000000000E+01    0.2500000000000000E+01    0.3750000000000000E+01
    0.5000000000000000E+01    0.2500000000000000E+01    0.5000000000000000E+01
    0.3750000000000000E+01    0.2500000000000000E+01    0.5000000000000000E+01
    0.2500000000000000E+01    0.2500000000000000E+01    0.5000000000000000E+01
    0.1250000000000000E+01    0.2500000000000000E+01    0.5000000000000000E+01
    0.0000000000000000E+00    0.2500000000000000E+01    0.5000000000000000E+01
    0.0000000000000000E+00    0.2500000000000000E+01    0.3750000000000000E+01
    0.0000000000000000E+00    0.2500000000000000E+01    0.2500000000000000E+01
    0.0000000000000000E+00    0.2500000000000000E+01    0.1250000000000000E+01
    0.9631080833812172E+00    0.2500000000000000E+01    0.9613285771248219E+00
    0.3981732467264904E+01    0.2500000000000000E+01    0.4069753913607991E+01
    0.4035525118777670E+01    0.2500000000000000E+01    0.1012015867579395E+01
    0.9641717640894248E+00    0.2500000000000000E+01    0.3972455192261839E+01
    0.1547743040396780E+01    0.2500000000000000E+01    0.2928177746738678E+01
    0.6985170616192014E+00    0.2500000000000000E+01    0.3068281976055466E+01
    0.8931277594515110E+00    0.2500000000000000E+01    0.2052465503257726E+01
    0.2183293750162785E+01    0.2500000000000000E+01    0.3959073795658649E+01
    0.3855333506014705E+01    0.2500000000000000E+01    0.2931218481500625E+01
    0.3152495579421047E+01    0.2500000000000000E+01    0.3635850502723324E+01
    0.3103247580566054E+01    0.2500000000000000E+01    0.4331682712472464E+01
    0.3266837581688852E+01    0.2500000000000000E+01    0.1886092433583972E+01
    0.4231539241296245E+01    0.2500000000000000E+01    0.1915865356532799E+01
    0.1909741006522088E+01    0.2500000000000000E+01    0.7170024419130505E+00
    0.2880784107213163E+01    0.2500000000000000E+01    0.9046598906449592E+00
    0.2014316024535771E+01    0.2500000000000000E+01    0.1762464314805728E+01
    0.2670003247036656E+01    0.2500000000000000E+01    0.2850479545835163E+01
    0.5000000000000000E+01    0.1250000000000000E+01    0.5000000000000000E+01
    0.5000000000000000E+01    0.0000000000000000E+00    0.5000000000000000E+01
    0.5000000000000000E+01   -0.1250000000000000E+01    0.5000000000000000E+01
    0.5000000000000000E+01   -0.2500000000000000E+01    0.5000000000000000E+01
    0.5000000000000000E+01   -0.2500000000000000E+01    0.3750000000000000E+01
    0.5000000000000000E+01   -0.2500000000000000E+01    0.2500000000000000E+01
    0.5000000000000000E+01   -0.2500000000000000E+01    0.1250000000000000E+01
    0.5000000000000000E+01    0.1578994732800803E+01    0.9058375365086910E+00
    0.5000000000000000E+01   -0.1583989954232354E+01    0.3982050490726493E+01
    0.5000000000000000E+01    0.1453322699199022E+01    0.4033849428301197E+01
    0.5000000000000000E+01   -0.1479596339503735E+01    0.1040505887381675E+01
    0.5000000000000000E+01   -0.3227322616384110E+00    0.1099454400140349E+01
    0.5000000000000000E+01    0.6593508822075582E+00    0.7354504170366591E+00
    0.5000000000000000E+01    0.8256214013940779E+00    0.1622302608453282E+01
    0.5000000000000000E+01   -0.1650070333782557E+01    0.2145871574390382E+01
    0.5000000000000000E+01   -0.4612828702537229E+00    0.4086422318222992E+01
    0.5000000000000000E+01   -0.8579242121530853E+00    0.2979540174134984E+01
    0.5000000000000000E+01   -0.1836846154397680E+01    0.3045064261640043E+01
    0.5000000000000000E+01    0.3508002863614053E+00    0.3428197553792836E+01
    0.5000000000000000E+01    0.5185680230613409E+00    0.4309693860063405E+01
    0.5000000000000000E+01    0.1738996113203182E+01    0.1827272193562204E+01
    0.5000000000000000E+01    0.1325493893339706E+01    0.2808563282768077E+01
    0.5000000000000000E+01   -0.8731419609589618E+00    0.1895995683864404E+01
    0.5000000000000000E+01    0.4906150219227333E-01    0.2273179336307740E+01
    0.0000000000000000E+00    0.1250000000000000E+01    0.5000000000000000E+01
    0.0000000000000000E+00    0.0000000000000000E+00    0.5000000000000000E+01
    0.0000000000000000E+00   -0.1250000000000000E+01    0.5000000000000000E+01
    0.0000000000000000E+00   -0.2500000000000000E+01    0.5000000000000000E+01
    0.1250000000000000E+01   -0.2500000000000000E+01    0.5000000000000000E+01
    0.2500000000000000E+01   -0.2500000000000000E+01    0.5000000000000000E+01
    0.3750000000000000E+01   -0.2500000000000000E+01    0.5000000000000000E+01
    0.4042003247744892E+01    0.1558308132739014E+01    0.5000000000000000E+01
    0.9304122287900499E+00   -0.1548001304379777E+01    0.5000000000000000E+01
    0.1037243024609388E+01    0.1462892710085612E+01    0.5000000000000000E+01
    0.3946240828834967E+01   -0.1445243809615570E+01    0.5000000000000000E+01
    0.4092527262848217E+01   -0.3455338993778935E+00    0.5000000000000000E+01
    0.4293103109154542E+01    0.6277660831404320E+00    0.5000000000000000E+01
    0.3241512314643519E+01    0.7429886854239611E+00    0.5000000000000000E+01
    0.2844289952419609E+01   -0.1588117879734118E+01    0.5000000000000000E+01
    0.7159905765450471E+00   -0.6002320124191652E+00    0.5000000000000000E+01
    0.1754341919796891E+01   -0.7398147869923652E+00    0.5000000000000000E+01
    0.1870296826774691E+01   -0.1788622905643739E+01    0.5000000000000000E+01
    0.9220614901912976E+00    0.3083720183248586E+00    0.5000000000000000E+01
    0.3101523624086016E+01    0.1777901774806180E+01    0.5000000000000000E+01
    0.2192512063922564E+01    0.1576861561598471E+01    0.5000000000000000E+01
    0.2024793420196460E+01    0.4773861992750707E+00    0.5000000000000000E+01
    0.2990627757741975E+01   -0.4878110785814084E+00    0.5000000000000000E+01
    0.0000000000000000E+00   -0.2500000000000000E+01    0.1250000000000000E+01
    0.0000000000000000E+00   -0.2500000000000000E+01    0.2500000000000000E+01
    0.0000000000000000E+00   -0.2500000000000000E+01    0.3750000000000000E+01
    0.0000000000000000E+00    0.1558308132739014E+01    0.4042003247744892E+01
    0.0000000000000000E+00   -0.1548001304379777E+01    0.9304122287900499E+00
    0.0000000000000000E+00    0.1462892710085612E+01    0.1037243024609388E+01
    0.0000000000000000E+00   -0.1445243809615570E+01    0.3946240828834967E+01
    0.0000000000000000E+00   -0.3455338993778935E+00    0.4092527262848217E+01
    0.0000000000000000E+00    0.6277660831404320E+00    0.4293103109154542E+01
    0.0000000000000000E+00    0.7429886854239611E+00    0.3241512314643519E+01
    0.0000000000000000E+00   -0.1588117879734118E+01    0.2844289952419609E+01
    0.0000000000000000E+00   -0.6002320124191652E+00    0.7159905765450471E+00
    0.0000000000000000E+00   -0.7398147869923652E+00    0.1754341919796891E+01
    0.0000000000000000E+00   -0.1788622905643739E+01    0.1870296826774691E+01
    0.0000000000000000E+00    0.3083720183248586E+00    0.9220614901912976E+00
    0.0000000000000000E+00    0.1777901774806180E+01    0.3101523624086016E+01
    0.0000000000000000E+00    0.1576861561598471E+01    0.2192512063922564E+01
[...]
POINT_DATA 213
SCALARS rho double 1
LOOKUP_TABLE default
   0.1344271208743169E+01
   0.9569753658251852E+00
   0.9462958492651520E+00
   0.9418607970248467E+00
   0.8437304692397559E+00
   0.7737999653814979E+00
   0.7629813032726047E+00
   0.7664566247454856E+00
   0.8307870632238674E+00
   0.9352971456285770E+00
   0.9342214703379702E+00
   0.9617188898713199E+00
   0.1449457028262356E+01
   0.1494090139718458E+01
   0.1644666868332965E+01
   0.1425831830488499E+01
   0.1009013943392498E+01
   0.9508806827993834E+00
   0.9436506568398966E+00
   0.9581556332476590E+00
   0.9415847365055389E+00
   0.1036376813577935E+01
   0.9256155195308297E+00
   0.9322343768824559E+00
   0.9537476564352441E+00
   0.9518766725709598E+00
   0.9348579474685792E+00
   0.9564026853225743E+00
   0.9376096248982178E+00
   0.9300655883258443E+00
   0.9445152941574840E+00
   0.8863500475601875E+00
   0.9423576213017032E+00
   0.9635049396699046E+00
   0.1008297547025386E+01
   0.1006736524546101E+01
   0.1001962597801217E+01
   0.1003217542078204E+01
   0.1004131523326936E+01
   0.1005228017122322E+01
   0.1004260078681663E+01
   0.1008307819760822E+01
   0.1023892679907486E+01
   0.1063553379465346E+01
   0.1019182199002393E+01
   0.1001781828223952E+01
   0.9643370754698469E+00
   0.1005283223763631E+01
   0.1000720594839597E+01
   0.1008741628509914E+01
   0.1008077615448713E+01
   0.1002349081070992E+01
   0.9979976478334981E+00
   0.1000582805805209E+01
   0.1001619700097878E+01
   0.9826888157005510E+00
   0.9842444304112825E+00
   0.9833309163150784E+00
   0.9788228467488844E+00
   0.9902631161621154E+00
   0.9934556334018070E+00
   0.1002008567473648E+01
   0.1002131937673253E+01
   0.1002273868456554E+01
   0.1001792588461461E+01
   0.1009780380579418E+01
   0.1006428770860000E+01
   0.9558785334444699E+00
   0.9249414604341092E+00
   0.1007037222691421E+01
   0.1004506706961229E+01
   0.9143642040432448E+00
   0.9089674250232137E+00
   0.8751689923707681E+00
   0.9767263162276518E+00
   0.1000451720931536E+01
   0.1005832110593832E+01
   0.1012882859489586E+01
   0.1011619456396879E+01
   0.1010439651424228E+01
   0.1005469850623962E+01
   0.9907607348799611E+00
   0.1005139244633200E+01
   0.9860561064223065E+00
   0.1005608731304574E+01
   0.1004247665136318E+01
   0.1002888227907121E+01
   0.1003345233720857E+01
   0.1003992934909403E+01
   0.1005101252207390E+01
   0.1003211245594890E+01
   0.1002661000016799E+01
   0.1002582352603752E+01
   0.1004060478935643E+01
   0.1004319750397030E+01
   0.1001639798528715E+01
   0.1002269923934981E+01
   0.1002539699031923E+01
   0.1003467879762533E+01
   0.1003371755134113E+01
   0.1003231840627070E+01
   0.1004423356068628E+01
   0.1004312869666044E+01
   0.1003659577420928E+01
   0.1003722447189293E+01
   0.1004328701856377E+01
   0.1004464189868483E+01
   0.1003622266484556E+01
   0.1064422805944828E+01
   0.1028473136900194E+01
   0.1009586336869956E+01
   0.1006638479373200E+01
   0.1163935047973614E+01
   0.1086087624512972E+01
   0.1007893018435077E+01
   0.1007245102800848E+01
   0.1006797771305055E+01
   0.1013017832751433E+01
   0.1019384062990982E+01
   0.1235203388345518E+01
   0.1032529210204954E+01
   0.1046680598261595E+01
   0.1200953383362383E+01
   0.1014718475915084E+01
   0.1032290602161212E+01
   0.1028094683016189E+01
   0.1014628090073962E+01
   0.1029216450567787E+01
   0.1001995313676447E+01
   0.9606935935665737E+00
   0.1006852001752342E+01
   0.1001326718815617E+01
   0.1010821283857063E+01
   0.1012245682367289E+01
   0.1000945521310781E+01
   0.9979118584834785E+00
   0.9980626118553803E+00
   0.1001183410970716E+01
   0.9841357044296766E+00
   0.9814876453860873E+00
   0.9648480956372636E+00
   0.9680872737303219E+00
   0.9914121517588470E+00
   0.9910855269552072E+00
   0.9925540310557750E+00
   0.1001726950842996E+01
   0.9993404000609889E+00
   0.9941406545737030E+00
   0.1007038267324865E+01
   0.1022539075333250E+01
   0.1001087799077650E+01
   0.1008797957912882E+01
   0.1004773313297475E+01
   0.1009049752747409E+01
   0.9966466436349961E+00
   0.1004988210884524E+01
   0.1003325054138226E+01
   0.9949426557857309E+00
   0.9832678209903015E+00
   0.9943951204066467E+00
   0.9973415609540750E+00
   0.9932183039299599E+00
   0.1001305687267342E+01
   0.1003001012649299E+01
   0.1002183019128480E+01
   0.9947076969751588E+00
   0.9937961218915176E+00
   0.1004867357112860E+01
   0.1020077193971886E+01
   0.1005364189650243E+01
   0.9816994966178647E+00
   0.1004972507256654E+01
   0.1012381722037847E+01
   0.9871421276739233E+00
   0.9551509554450293E+00
   0.9865071477366550E+00
   0.9864529268572603E+00
   0.9918942187421221E+00
   0.9933504726848587E+00
   0.9954401745756141E+00
   0.1037336480991592E+01
   0.1033536385075521E+01
   0.1001443721315982E+01
   0.1001929835001909E+01
   0.9912472975837856E+00
   0.9910915033075600E+00
   0.9648483303146037E+00
   0.9933277824519058E+00
   0.1006058688374856E+01
   0.1001953965961506E+01
   0.9908730288906504E+00
   0.9740944811345109E+00
   0.9418804200712997E+00
   0.9819375028786557E+00
   0.9794798828403504E+00
   0.9704169889964778E+00
   0.9720473138963199E+00
   0.9557349865600557E+00
   0.9496732352109821E+00
   0.9528674744137938E+00
   0.1002658943400377E+01
   0.1002470941125969E+01
   0.1000509066320843E+01
   0.1001677410833049E+01
   0.9607925489756496E+00
   0.9491634586198607E+00
   0.9584505340032737E+00
   0.1001120983825322E+01
   0.1000495893937605E+01
   0.1001156198482140E+01
   0.9807373266177710E+00
   0.9805995713467754E+00
   0.9628478419959702E+00
SCALARS u double 1
LOOKUP_TABLE default
   0.0000000000000000E+00
   0.0000000000000000E+00
   0.0000000000000000E+00
   0.0000000000000000E+00
   0.0000000000000000E+00
   0.0000000000000000E+00
   0.0000000000000000E+00
   0.0000000000000000E+00
   0.0000000000000000E+00
   0.0000000000000000E+00
   0.0000000000000000E+00
   0.0000000000000000E+00
   0.0000000000000000E+00
   0.0000000000000000E+00
   0.0000000000000000E+00
   0.0000000000000000E+00
   0.0000000000000000E+00
   0.0000000000000000E+00
   0.0000000000000000E+00
   0.0000000000000000E+00
   0.0000000000000000E+00
   0.0000000000000000E+00
   0.0000000000000000E+00
   0.0000000000000000E+00
   0.0000000000000000E+00
   0.0000000000000000E+00
   0.0000000000000000E+00
   0.0000000000000000E+00
   0.0000000000000000E+00
   0.0000000000000000E+00
   0.0000000000000000E+00
   0.0000000000000000E+00
   0.0000000000000000E+00
   0.4950110135177453E+00
   0.5338225452507865E+00
   0.5183272202604152E+00
   0.4930668744961676E+00
   0.4847615483190378E+00
   0.4867708650422323E+00
   0.4890781397619771E+00
   0.4957852386269465E+00
   0.4898308252046913E+00
   0.4717392714041065E+00
   0.4454820090654920E+00
   0.4833909694084768E+00
   0.5098448339989570E+00
   0.4390689329443577E+00
   0.4949406631077446E+00
   0.5225336460441183E+00
   0.4962460559077459E+00
   0.5226160334744854E+00
   0.5038889833402025E+00
   0.5646883774180114E+00
   0.5247516906831283E+00
   0.4991503247121014E+00
   0.5730562759439215E+00
   0.5696032647877944E+00
   0.3737941480915279E+00
   0.3998649565404118E+00
   0.5599333490371378E+00
   0.5564591911373039E+00
   0.4942646007925785E+00
   0.4948669616837152E+00
   0.4925722795776324E+00
   0.4914259436616055E+00
   0.5162367828718885E+00
   0.5361799214811678E+00
   0.4947403930445516E+00
   0.4524087677301195E+00
   0.5128784557796030E+00
   0.5117944343724381E+00
   0.4783506580390650E+00
   0.4931686301359949E+00
   0.4603167332212248E+00
   0.5244892851575592E+00
   0.5297435782266394E+00
   0.5129577279143055E+00
   0.5328357023602484E+00
   0.5308945474151470E+00
   0.5309850998489848E+00
   0.5063656845531460E+00
   0.5282454138160332E+00
   0.5410314682578555E+00
   0.5361259217070967E+00
   0.5374106357526829E+00
   0.4965368166410122E+00
   0.4975343342388952E+00
   0.4963843263529141E+00
   0.4955221093881117E+00
   0.4904588019988527E+00
   0.4903057945595781E+00
   0.4862158701849236E+00
   0.4854072199922341E+00
   0.4932172234146759E+00
   0.4909844512575035E+00
   0.4832164990637515E+00
   0.4872625898320952E+00
   0.4880148002517457E+00
   0.4872477241493360E+00
   0.4882690327088128E+00
   0.4952602389710316E+00
   0.4900976087306914E+00
   0.4904008965709793E+00
   0.4944239625493148E+00
   0.4868046650618155E+00
   0.4892409161702320E+00
   0.4881405474573035E+00
   0.4878464082058352E+00
   0.4446864134236403E+00
   0.4700033910255226E+00
   0.4892002185200636E+00
   0.4885244054742415E+00
   0.4506542225509002E+00
   0.4687377378977139E+00
   0.4877011039949755E+00
   0.4868355579664284E+00
   0.4908993811247641E+00
   0.4793557143009924E+00
   0.4658078892434984E+00
   0.3792728855110406E+00
   0.4901597505965167E+00
   0.4486692405105642E+00
   0.4436142181969385E+00
   0.4845151868371564E+00
   0.4621829420331311E+00
   0.4665756929957872E+00
   0.4748147314909840E+00
   0.4894497516493725E+00
   0.5085609645317744E+00
   0.4315071842695227E+00
   0.4927356290547719E+00
   0.5318295952003896E+00
   0.4913405852453535E+00
   0.5207023235059974E+00
   0.5060988232062995E+00
   0.5688805978582726E+00
   0.5274018789187446E+00
   0.5015077354570393E+00
   0.5821787292985573E+00
   0.5689608799103975E+00
   0.3406396586589407E+00
   0.3789867443690587E+00
   0.5751961259675453E+00
   0.5666490233945198E+00
   0.5704107661264178E+00
   0.5291061772628957E+00
   0.5451907103478235E+00
   0.5718807983442171E+00
   0.5389084365164432E+00
   0.5475510981847472E+00
   0.5821718717412967E+00
   0.4925606393089972E+00
   0.5042161174148696E+00
   0.4961740394242274E+00
   0.5565212879502939E+00
   0.4758848616802884E+00
   0.4950282845236777E+00
   0.5498526890321058E+00
   0.5891201066101298E+00
   0.5841957167395764E+00
   0.5469100835822894E+00
   0.5805414046671343E+00
   0.5106265300341558E+00
   0.5030213709674267E+00
   0.5033662723349732E+00
   0.5676438118229857E+00
   0.5563948696706706E+00
   0.4947260784749212E+00
   0.5505248453785940E+00
   0.5510860370055289E+00
   0.5657353192055087E+00
   0.4920076890540203E+00
   0.4927303927330003E+00
   0.3865146827021149E+00
   0.3687760128794560E+00
   0.5574923629390659E+00
   0.5763759202588717E+00
   0.4194306388404552E+00
   0.5824846975458535E+00
   0.4265214304933024E+00
   0.5392804296846535E+00
   0.5012038370650619E+00
   0.5119550875346340E+00
   0.5049134345893547E+00
   0.5751969833639583E+00
   0.5876371202410711E+00
   0.5379899777319551E+00
   0.5677471391539187E+00
   0.5351265452293199E+00
   0.5338067792237811E+00
   0.5580313870904612E+00
   0.5512700824338544E+00
   0.4261841814017542E+00
   0.5273361160268307E+00
   0.5795709025132908E+00
   0.3318693590136534E+00
   0.4760282337531213E+00
   0.5446195798595285E+00
   0.4798326817888419E+00
   0.3005294975891766E+00
   0.5031061118110517E+00
   0.5017129526741445E+00
   0.5129058476206173E+00
   0.5414848410333608E+00
   0.3437605820105594E+00
   0.3397717769612539E+00
   0.3189926622005644E+00
   0.5065964661743186E+00
   0.5123517622476380E+00
   0.5330314337298184E+00
   0.5879311148302586E+00
   0.4644184197799145E+00
   0.3531279297727594E+00
SCALARS v double 1
LOOKUP_TABLE default
   0.0000000000000000E+00
   0.0000000000000000E+00
   0.0000000000000000E+00
   0.0000000000000000E+00
   0.0000000000000000E+00
   0.0000000000000000E+00
   0.0000000000000000E+00
   0.0000000000000000E+00
   0.0000000000000000E+00
   0.0000000000000000E+00
   0.0000000000000000E+00
   0.0000000000000000E+00
   0.0000000000000000E+00
   0.0000000000000000E+00
   0.0000000000000000E+00
   0.0000000000000000E+00
   0.0000000000000000E+00
   0.0000000000000000E+00
   0.0000000000000000E+00
   0.0000000000000000E+00
   0.0000000000000000E+00
   0.0000000000000000E+00
   0.0000000000000000E+00
   0.0000000000000000E+00
   0.0000000000000000E+00
   0.0000000000000000E+00
   0.0000000000000000E+00
   0.0000000000000000E+00
   0.0000000000000000E+00
   0.0000000000000000E+00
   0.0000000000000000E+00
   0.0000000000000000E+00
   0.0000000000000000E+00
   0.0000000000000000E+00
   0.0000000000000000E+00
   0.0000000000000000E+00
   0.0000000000000000E+00
   0.0000000000000000E+00
   0.0000000000000000E+00
   0.0000000000000000E+00
   0.0000000000000000E+00
   0.0000000000000000E+00
   0.0000000000000000E+00
   0.0000000000000000E+00
   0.0000000000000000E+00
   0.0000000000000000E+00
   0.0000000000000000E+00
   0.0000000000000000E+00
   0.0000000000000000E+00
   0.0000000000000000E+00
   0.0000000000000000E+00
   0.0000000000000000E+00
   0.0000000000000000E+00
   0.0000000000000000E+00
   0.0000000000000000E+00
   0.0000000000000000E+00
   0.0000000000000000E+00
   0.0000000000000000E+00
   0.0000000000000000E+00
   0.0000000000000000E+00
   0.0000000000000000E+00
   0.7979018096592730E-03
  -0.1328404899937230E-02
  -0.1331226168337018E-02
   0.0000000000000000E+00
   0.0000000000000000E+00
   0.0000000000000000E+00
   0.0000000000000000E+00
  -0.1922688859093518E-01
   0.4778632341625482E-03
   0.2183522587349472E-02
   0.1427267801134037E-01
  -0.6488826232877539E-02
  -0.7822180217768229E-02
  -0.1327763626642356E-01
   0.4914310406875219E-02
   0.6910809230805298E-03
   0.3434282859410324E-02
   0.1921126687580569E-02
   0.3148223509441719E-02
   0.1705222475782150E-02
  -0.7316874239366254E-02
  -0.7674076329035604E-04
   0.4468311536927154E-02
  -0.4386952434498673E-03
  -0.6346344512288603E-04
  -0.1963133630265587E-03
   0.8072420595537592E-03
   0.0000000000000000E+00
   0.0000000000000000E+00
   0.0000000000000000E+00
   0.0000000000000000E+00
   0.4251041549829524E-03
   0.1616516043517384E-02
  -0.1297234943754239E-02
  -0.1020900418833219E-02
  -0.2132689119371927E-02
  -0.1063558459183165E-02
  -0.8199895424245072E-03
  -0.7604492829943141E-03
   0.5199048877716143E-04
  -0.6237297653651829E-03
   0.7917300129213770E-03
  -0.1745017578471117E-02
   0.2737086136300804E-03
  -0.8978173388440903E-04
  -0.9420626065477845E-03
  -0.1098173965896793E-02
   0.0000000000000000E+00
   0.0000000000000000E+00
   0.0000000000000000E+00
  -0.1061656957427339E-02
  -0.7641219339482270E-02
   0.1860860339938591E-01
  -0.2837139093310639E-04
  -0.1383170211079369E-02
  -0.2034926384135853E-02
  -0.5666332031287805E-02
  -0.1585204314018309E-02
  -0.5947126756972456E-02
  -0.4160705701362161E-02
   0.1565585143081881E-02
   0.3329510667029995E-01
   0.3056735879068124E-04
  -0.2766910700999440E-02
   0.3566404808165439E-02
   0.3596838147655622E-03
   0.0000000000000000E+00
   0.0000000000000000E+00
   0.0000000000000000E+00
   0.0000000000000000E+00
   0.0000000000000000E+00
   0.0000000000000000E+00
   0.0000000000000000E+00
   0.0000000000000000E+00
   0.0000000000000000E+00
   0.0000000000000000E+00
   0.0000000000000000E+00
   0.0000000000000000E+00
   0.0000000000000000E+00
   0.0000000000000000E+00
   0.0000000000000000E+00
   0.0000000000000000E+00
   0.0000000000000000E+00
   0.5046967203206942E-02
   0.3230603449315839E-02
   0.8149094383839213E-02
   0.6168377227337400E-02
   0.1122926967757058E-01
   0.1429274521889229E-01
  -0.2038643655631990E-03
   0.5118189104174903E-02
   0.2914941160645026E-02
   0.3373532857485967E-02
   0.3728344258104136E-02
  -0.1465733621507742E-01
  -0.6160572155452376E-03
   0.6651716171868727E-02
   0.1542211035502892E-02
   0.1969584163409135E-02
   0.4266195772251294E-02
  -0.2790895300614688E-02
   0.1226797700895806E-02
   0.2819070604805562E-02
   0.1496955051620682E-02
   0.2575300865876248E-02
   0.2030367662655083E-02
   0.2118016531958713E-02
   0.8700445062719320E-02
  -0.3733305895690817E-02
   0.6241359729520415E-02
   0.2504140027133780E-04
  -0.3854562474865452E-03
  -0.1674687467942605E-01
  -0.4881898051736715E-02
  -0.4719789056872180E-02
   0.3445187695473591E-02
  -0.6135918253216389E-02
   0.9942844281482924E-04
  -0.3291388095273955E-01
  -0.3046155430067206E-02
   0.4722764249634174E-02
   0.9228893440970625E-03
   0.2112113997740912E-02
   0.4518570298318926E-02
   0.2720124661358907E-02
   0.3212464434046676E-02
   0.5200621784032848E-02
   0.1942088782758805E-02
   0.7315997862123627E-03
  -0.2603230594563691E-04
  -0.5375056525789393E-02
  -0.6959994934042508E-02
  -0.9444288402254259E-03
   0.1105334675147265E-02
  -0.2079991113983563E-02
  -0.3199648362891841E-02
  -0.2527749196882118E-02
  -0.4115443333141175E-02
  -0.7593834876384992E-02
  -0.1985953996135909E-02
   0.6237792399451792E-03
  -0.2233848418820107E-03
   0.1217004926070327E-02
  -0.3484298152049898E-02
   0.5228776520767977E-02
  -0.8487673426493519E-02
   0.2296262557283776E-04
  -0.3398900830338400E-03
   0.2542584500984925E-02
   0.1663465734977448E-02
   0.2021620569784352E-02
  -0.5620704432622114E-02
SCALARS w double 1
LOOKUP_TABLE default
   0.0000000000000000E+00
   0.0000000000000000E+00
   0.0000000000000000E+00
   0.0000000000000000E+00
   0.0000000000000000E+00
   0.0000000000000000E+00
   0.0000000000000000E+00
   0.0000000000000000E+00
   0.0000000000000000E+00
   0.0000000000000000E+00
   0.0000000000000000E+00
   0.0000000000000000E+00
   0.0000000000000000E+00
   0.0000000000000000E+00
   0.0000000000000000E+00
   0.0000000000000000E+00
   0.0000000000000000E+00
   0.0000000000000000E+00
   0.0000000000000000E+00
   0.0000000000000000E+00
   0.0000000000000000E+00
   0.0000000000000000E+00
   0.0000000000000000E+00
   0.0000000000000000E+00
   0.0000000000000000E+00
   0.0000000000000000E+00
   0.0000000000000000E+00
   0.0000000000000000E+00
   0.0000000000000000E+00
   0.0000000000000000E+00
   0.0000000000000000E+00
   0.0000000000000000E+00
   0.0000000000000000E+00
  -0.1007598490241524E+00
  -0.4249198312777819E-01
   0.7385935221762006E-03
   0.5730841593920103E-02
   0.5701814189044196E-03
   0.1607524221810878E-02
   0.3374082406703926E-02
   0.2371610377258903E-02
   0.4586905767169308E-03
   0.3518195711024579E-02
   0.4521846544657883E-01
   0.6522941639901943E-01
   0.8695992241199358E-03
  -0.2261164069513874E-01
   0.4316379520866663E-02
   0.1358718955096867E-01
   0.1039428535471006E-01
   0.4900544132990885E-01
   0.2437737380726082E-02
  -0.6508432901846170E-02
  -0.6996961235414671E-03
   0.3412758234737106E-03
   0.3904624771490161E-02
  -0.3893106833867712E-01
   0.1798170608270611E-01
   0.1119639946085194E-01
   0.3403780450294964E-01
   0.8439371748557242E-02
   0.4943175637481981E-02
   0.4974594613108076E-02
   0.4874421088530978E-02
   0.6029568509278975E-02
   0.2600926908932980E-02
  -0.4144409833874874E-01
  -0.9954192720694395E-01
  -0.1121675329211134E+00
   0.5073053581499109E-02
   0.4233770105623770E-02
  -0.1004726108862488E+00
  -0.9895147788859297E-01
  -0.9875398407085711E-01
  -0.9462371782054925E-01
  -0.6807077361696509E-01
   0.5157011418992308E-02
  -0.1935286208006836E-01
  -0.1575751568727867E-01
  -0.6002313245375694E-02
   0.6822543373758178E-02
  -0.8009898062001541E-01
  -0.2781045393774534E-01
  -0.8096363399742305E-01
  -0.5873208765723360E-01
   0.3083504807278226E-02
   0.2684895110145088E-02
   0.2640178876793983E-02
   0.3449253516394927E-02
   0.4006057924333025E-02
   0.1200315529023080E-02
  -0.1431860018306573E-03
   0.2043423894223921E-02
   0.4894928357353324E-02
   0.3856752765713666E-02
   0.1115557330118579E-02
   0.1185413207592624E-02
   0.1469053638817953E-02
  -0.1695044308315188E-04
   0.8935987942862669E-04
   0.4386213827037835E-02
   0.2715014422605289E-02
   0.2321633111931258E-02
   0.5009850960147002E-02
   0.1069772119733237E-02
   0.2711463553883896E-02
   0.2013458053111432E-02
   0.2863196992624247E-04
   0.8374603644716920E-01
   0.2793920550693388E-02
  -0.8348744664508616E-03
  -0.1493926138350447E-03
   0.1409540029742026E+00
   0.1239329775801175E+00
  -0.1219079460921560E-02
  -0.4381873033812893E-02
  -0.3040724138819629E-03
  -0.6512276535055875E-02
  -0.1949541984455308E-02
   0.1557630189465681E+00
   0.7489970933132255E-01
   0.2550186045439243E-01
   0.1656444460030947E+00