# vtk DataFile Version 2.0
FUN3D:global_image_vtk
ASCII
DATASET UNSTRUCTURED_GRID
POINTS 213 double
    0.0000000000000000E+00    0.2500000000000000E+01    0.0000000000000000E+00
    0.1250000000000000E+01    0.2500000000000000E+01    0.0000000000000000E+00
    0.2500000000000000E+01    0.2500000000000000E+01    0.0000000000000000E+00
    0.3750000000000000E+01    0.2500000000000000E+01    0.0000000000000000E+00
    0.5000000000000000E+01    0.2500000000000000E+01    0.0000000000000000E+00
    0.5000000000000000E+01    0.1250000000000000E+01    0.0000000000000000E+00
    0.5000000000000000E+01    0.0000000000000000E+00    0.0000000000000000E+00
    0.5000000000000000E+01   -0.1250000000000000E+01    0.0000000000000000E+00
    0.5000000000000000E+01   -0.2500000000000000E+01    0.0000000000000000E+00
    0.3750000000000000E+01   -0.2500000000000000E+01    0.0000000000000000E+00
    0.2500000000000000E+01   -0.2500000000000000E+01    0.0000000000000000E+00
    0.1250000000000000E+01   -0.2500000000000000E+01    0.0000000000000000E+00
    0.0000000000000000E+00   -0.2500000000000000E+01    0.0000000000000000E+00
    0.0000000000000000E+00   -0.1250000000000000E+01    0.0000000000000000E+00
    0.0000000000000000E+00    0.0000000000000000E+00    0.0000000000000000E+00
    0.0000000000000000E+00    0.1250000000000000E+01    0.0000000000000000E+00
    0.9058375365086910E+00    0.1578994732800803E+01    0.0000000000000000E+00
    0.3982050490726493E+01   -0.1583989954232354E+01    0.0000000000000000E+00
    0.4033849428301197E+01    0.1453322699199022E+01    0.0000000000000000E+00
    0.1040505887381675E+01   -0.1479596339503735E+01    0.0000000000000000E+00
    0.1099454400140349E+01   -0.3227322616384110E+00    0.0000000000000000E+00
    0.7354504170366591E+00    0.6593508822075582E+00    0.0000000000000000E+00
    0.1622302608453282E+01    0.8256214013940779E+00    0.0000000000000000E+00
    0.2145871574390382E+01   -0.1650070333782557E+01    0.0000000000000000E+00
    0.4086422318222992E+01   -0.4612828702537229E+00    0.0000000000000000E+00
    0.2979540174134984E+01   -0.8579242121530853E+00    0.0000000000000000E+00
    0.3045064261640043E+01   -0.1836846154397680E+01    0.0000000000000000E+00
    0.3428197553792836E+01    0.3508002863614053E+00    0.0000000000000000E+00
    0.4309693860063405E+01    0.5185680230613409E+00    0.0000000000000000E+00
    0.1827272193562204E+01    0.1738996113203182E+01    0.0000000000000000E+00
    0.2808563282768077E+01    0.1325493893339706E+01    0.0000000000000000E+00
    0.1895995683864404E+01   -0.8731419609589618E+00    0.0000000000000000E+00
    0.2273179336307740E+01    0.4906150219227333E-01    0.0000000000000000E+00
    0.5000000000000000E+01    0.2500000000000000E+01    0.1250000000000000E+01
    0.5000000000000000E+01    0.2500000000000000E+01    0.2500000000000000E+01
    0.5000000000000000E+01    0.2500000000000000E+01    0.3750000000000000E+01
    0.5000000000000000E+01    0.2500000000000000E+01    0.5000000000000000E+01
    0.3750000000000000E+01    0.2500000000000000E+01    0.5000000000000000E+01
    0.2500000000000000E+01    0.2500000000000000E+01    0.5000000000000000E+01
    0.1250000000000000E+01    0.2500000000000000E+01    0.5000000000000000E+01
    0.0000000000000000E+00    0.2500000000000000E+01    0.5000000000000000E+01
    0.0000000000000000E+00    0.2500000000000000E+01    0.3750000000000000E+01
    0.0000000000000000E+00    0.2500000000000000E+01    0.2500000000000000E+01
    0.0000000000000000E+00    0.2500000000000000E+01    0.1250000000000000E+01
    0.9631080833812172E+00    0.2500000000000000E+01    0.9613285771248219E+00
    0.3981732467264904E+01    0.2500000000000000E+01    0.4069753913607991E+01
    0.4035525118777670E+01    0.2500000000000000E+01    0.1012015867579395E+01
    0.9641717640894248E+00    0.2500000000000000E+01    0.3972455192261839E+01
    0.1547743040396780E+01    0.2500000000000000E+01    0.2928177746738678E+01
    0.6985170616192014E+00    0.2500000000000000E+01    0.3068281976055466E+01
    0.8931277594515110E+00    0.2500000000000000E+01    0.2052465503257726E+01
    0.2183293750162785E+01    0.2500000000000000E+01    0.3959073795658649E+01
    0.3855333506014705E+01    0.2500000000000000E+01    0.2931218481500625E+01
    0.3152495579421047E+01    0.2500000000000000E+01    0.3635850502723324E+01
    0.3103247580566054E+01    0.2500000000000000E+01    0.4331682712472464E+01
    0.3266837581688852E+01    0.2500000000000000E+01    0.1886092433583972E+01
    0.4231539241296245E+01    0.2500000000000000E+01    0.1915865356532799E+01
    0.1909741006522088E+01    0.2500000000000000E+01    0.7170024419130505E+00
    0.2880784107213163E+01    0.2500000000000000E+01    0.9046598906449592E+00
    0.2014316024535771E+01    0.2500000000000000E+01    0.1762464314805728E+01
    0.2670003247036656E+01    0.2500000000000000E+01    0.2850479545835163E+01
    0.5000000000000000E+01    0.1250000000000000E+01    0.5000000000000000E+01
    0.5000000000000000E+01    0.0000000000000000E+00    0.5000000000000000E+01
    0.5000000000000000E+01   -0.1250000000000000E+01    0.5000000000000000E+01
    0.5000000000000000E+01   -0.2500000000000000E+01    0.5000000000000000E+01
    0.5000000000000000E+01   -0.2500000000000000E+01    0.3750000000000000E+01
    0.5000000000000000E+01   -0.2500000000000000E+01    0.2500000000000000E+01
    0.5000000000000000E+01   -0.2500000000000000E+01    0.1250000000000000E+01
    0.5000000000000000E+01    0.1578994732800803E+01    0.9058375365086910E+00
    0.5000000000000000E+01   -0.1583989954232354E+01    0.3982050490726493E+01
    0.5000000000000000E+01    0.1453322699199022E+01    0.4033849428301197E+01
    0.5000000000000000E+01   -0.1479596339503735E+01    0.1040505887381675E+01
    0.5000000000000000E+01   -0.3227322616384110E+00    0.1099454400140349E+01
    0.5000000000000000E+01    0.6593508822075582E+00    0.7354504170366591E+00
    0.5000000000000000E+01    0.8256214013940779E+00    0.1622302608453282E+01
    0.5000000000000000E+01   -0.1650070333782557E+01    0.2145871574390382E+01
    0.5000000000000000E+01   -0.4612828702537229E+00    0.4086422318222992E+01
    0.5000000000000000E+01   -0.8579242121530853E+00    0.2979540174134984E+01
    0.5000000000000000E+01   -0.1836846154397680E+01    0.3045064261640043E+01
    0.5000000000000000E+01    0.3508002863614053E+00    0.3428197553792836E+01
    0.5000000000000000E+01    0.5185680230613409E+00    0.4309693860063405E+01
    0.5000000000000000E+01    0.1738996113203182E+01    0.1827272193562204E+01
    0.5000000000000000E+01    0.1325493893339706E+01    0.2808563282768077E+01
    0.5000000000000000E+01   -0.8731419609589618E+00    0.1895995683864404E+01
    0.5000000000000000E+01    0.4906150219227333E-01    0.2273179336307740E+01
    0.0000000000000000E+00    0.1250000000000000E+01    0.5000000000000000E+01
    0.0000000000000000E+00    0.0000000000000000E+00    0.5000000000000000E+01
    0.0000000000000000E+00   -0.1250000000000000E+01    0.5000000000000000E+01
    0.0000000000000000E+00   -0.2500000000000000E+01    0.5000000000000000E+01
    0.1250000000000000E+01   -0.2500000000000000E+01    0.5000000000000000E+01
    0.2500000000000000E+01   -0.2500000000000000E+01    0.5000000000000000E+01
    0.3750000000000000E+01   -0.2500000000000000E+01    0.5000000000000000E+01
    0.4042003247744892E+01    0.1558308132739014E+01    0.5000000000000000E+01
    0.9304122287900499E+00   -0.1548001304379777E+01    0.5000000000000000E+01
    0.1037243024609388E+01    0.1462892710085612E+01    0.5000000000000000E+01
    0.3946240828834967E+01   -0.1445243809615570E+01    0.5000000000000000E+01
    0.4092527262848217E+01   -0.3455338993778935E+00    0.5000000000000000E+01
    0.4293103109154542E+01    0.6277660831404320E+00    0.5000000000000000E+01
    0.3241512314643519E+01    0.7429886854239611E+00    0.5000000000000000E+01
    0.2844289952419609E+01   -0.1588117879734118E+01    0.5000000000000000E+01
    0.7159905765450471E+00   -0.6002320124191652E+00    0.5000000000000000E+01
    0.1754341919796891E+01   -0.7398147869923652E+00    0.5000000000000000E+01
    0.1870296826774691E+01   -0.1788622905643739E+01    0.5000000000000000E+01
    0.9220614901912976E+00    0.3083720183248586E+00    0.5000000000000000E+01
    0.3101523624086016E+01    0.1777901774806180E+01    0.5000000000000000E+01
    0.2192512063922564E+01    0.1576861561598471E+01    0.5000000000000000E+01
    0.2024793420196460E+01    0.4773861992750707E+00    0.5000000000000000E+01
    0.2990627757741975E+01   -0.4878110785814084E+00    0.5000000000000000E+01
    0.0000000000000000E+00   -0.2500000000000000E+01    0.1250000000000000E+01
    0.0000000000000000E+00   -0.2500000000000000E+01    0.2500000000000000E+01
    0.0000000000000000E+00   -0.2500000000000000E+01    0.3750000000000000E+01
    0.0000000000000000E+00    0.1558308132739014E+01    0.4042003247744892E+01
    0.0000000000000000E+00   -0.1548001304379777E+01    0.9304122287900499E+00
    0.0000000000000000E+00    0.1462892710085612E+01    0.1037243024609388E+01
    0.0000000000000000E+00   -0.1445243809615570E+01    0.3946240828834967E+01
    0.0000000000000000E+00   -0.3455338993778935E+00    0.4092527262848217E+01
    0.0000000000000000E+00    0.6277660831404320E+00    0.4293103109154542E+01
    0.0000000000000000E+00    0.7429886854239611E+00    0.3241512314643519E+01
    0.0000000000000000E+00   -0.1588117879734118E+01    0.2844289952419609E+01
    0.0000000000000000E+00   -0.6002320124191652E+00    0.7159905765450471E+00
    0.0000000000000000E+00   -0.7398147869923652E+00    0.1754341919796891E+01
    0.0000000000000000E+00   -0.1788622905643739E+01    0.1870296826774691E+01
    0.0000000000000000E+00    0.3083720183248586E+00    0.9220614901912976E+00
    0.0000000000000000E+00    0.1777901774806180E+01    0.3101523624086016E+01
    0.0000000000000000E+00    0.1576861561598471E+01    0.2192512063922564E+01
[...]
POINT_DATA 213
SCALARS rho double 1
LOOKUP_TABLE default
   0.1344271449750189E+01
   0.9569758915553385E+00
   0.9462964200959310E+00
   0.9418612718929390E+00
   0.8437304900410543E+00
   0.7738004326021187E+00
   0.7629818923545235E+00
   0.7664577919363479E+00
   0.8307874046189051E+00
   0.9352972565159633E+00
   0.9342219822012784E+00
   0.9617195286396200E+00
   0.1449457451807626E+01
   0.1494090644662724E+01
   0.1644667277204191E+01
   0.1425832049575561E+01
   0.1009014435352251E+01
   0.9508810865006267E+00
   0.9436508501899958E+00
   0.9581561034484534E+00
   0.9415852462543796E+00
   0.1036377240648763E+01
   0.9256161101056367E+00
   0.9322349872514448E+00
   0.9537479579704237E+00
   0.9518769567196922E+00
   0.9348583129228499E+00
   0.9564028419902196E+00
   0.9376098403686624E+00
   0.9300661525860512E+00
   0.9445157493356483E+00
   0.8863506519304685E+00
   0.9423579969834165E+00
   0.9635003079922768E+00
   0.1008299039511913E+01
   0.1006735291839010E+01
   0.1001964617623820E+01
   0.1003219581551891E+01
   0.1004132053992169E+01
   0.1005228602964921E+01
   0.1004260408276860E+01
   0.1008308190003036E+01
   0.1023893138001630E+01
   0.1063553956096208E+01
   0.1019182513304048E+01
   0.1001780766443424E+01
   0.9643309939207255E+00
   0.1005283709011391E+01
   0.1000721163302676E+01
   0.1008742083839902E+01
   0.1008078083670682E+01
   0.1002349807136933E+01
   0.9979986848188783E+00
   0.1000583560954855E+01
   0.1001620123677907E+01
   0.9826893073889269E+00
   0.9842439642575481E+00
   0.9833314037112112E+00
   0.9788207413061022E+00
   0.9902638161504597E+00
   0.9934561553250142E+00
   0.1002011751677790E+01
   0.1002134465686981E+01
   0.1002276326550655E+01
   0.1001794758391336E+01
   0.1009778638885410E+01
   0.1006429109017516E+01
   0.9558786961035400E+00
   0.9249398411695937E+00
   0.1007036755524016E+01
   0.1004504925174853E+01
   0.9143642077255988E+00
   0.9089667861105254E+00
   0.8751688903722339E+00
   0.9767271885714363E+00
   0.1000452621148914E+01
   0.1005831087460265E+01
   0.1012882803225222E+01
   0.1011618951276811E+01
   0.1010438648581242E+01
   0.1005468280913244E+01
   0.9907612680193286E+00
   0.1005140325682018E+01
   0.9860567246293178E+00
   0.1005609737622722E+01
   0.1004248005740171E+01
   0.1002888437724276E+01
   0.1003345420478465E+01
   0.1003992731903476E+01
   0.1005101716205732E+01
   0.1003211645199609E+01
   0.1002663160013491E+01
   0.1002586231472192E+01
   0.1004060870975031E+01
   0.1004320346069443E+01
   0.1001641920442119E+01
   0.1002273116038138E+01
   0.1002543475641264E+01
   0.1003469520872006E+01
   0.1003372640318022E+01
   0.1003232230073994E+01
   0.1004423863500638E+01
   0.1004313070891120E+01
   0.1003659849431758E+01
   0.1003723103982404E+01
   0.1004329726476614E+01
   0.1004465021926478E+01
   0.1003623375387119E+01
   0.1064422801050726E+01
   0.1028473621467180E+01
   0.1009586657364690E+01
   0.1006638837513467E+01
   0.1163935522449657E+01
   0.1086087969851715E+01
   0.1007893419313066E+01
   0.1007245533350531E+01
   0.1006798074183511E+01
   0.1013018287009751E+01
   0.1019384609577788E+01
   0.1235203670049672E+01
   0.1032529466771676E+01
   0.1046681191677588E+01
   0.1200953642609223E+01
   0.1014718916076712E+01
   0.1032291153305965E+01
   0.1028095236789672E+01
   0.1014628639880930E+01
   0.1029216893275062E+01
   0.1001994816403711E+01
   0.9606929197107117E+00
   0.1006852582841265E+01
   0.1001327193356237E+01
   0.1010821905420696E+01
   0.1012246098910495E+01
   0.1000946006966714E+01
   0.9979121234054541E+00
   0.9980632373041490E+00
   0.1001184143414438E+01
   0.9841362011963152E+00
   0.9814879615545314E+00
   0.9648483322370301E+00
   0.9680877129643144E+00
   0.9914124472212154E+00
   0.9910858388733229E+00
   0.9925545095931548E+00
   0.1001727533894395E+01
   0.9993409402184038E+00
   0.9941410835133629E+00
   0.1007038753603811E+01
   0.1022539494137117E+01
   0.1001088098525224E+01
   0.1008798496301349E+01
   0.1004773846126416E+01
   0.1009050237488261E+01
   0.9966470332397747E+00
   0.1004988557993259E+01
   0.1003325535215992E+01
   0.9949431085504669E+00
   0.9832680782005651E+00
   0.9943957454994550E+00
   0.9973420656290612E+00
   0.9932190085629581E+00
   0.1001306487169727E+01
   0.1003001636984007E+01
   0.1002183579663472E+01
   0.9947078544999161E+00
   0.9937965521463274E+00
   0.1004867865562282E+01
   0.1020077607445938E+01
   0.1005364552430872E+01
   0.9816998152693481E+00
   0.1004973031274851E+01
   0.1012382323448551E+01
   0.9871424296255219E+00
   0.9551513534743921E+00
   0.9865075700346513E+00
   0.9864532950075723E+00
   0.9918946944284694E+00
   0.9933508198372909E+00
   0.9954406189970419E+00
   0.1037336789728438E+01
   0.1033536797990595E+01
   0.1001443320814533E+01
   0.1001930499797307E+01
   0.9912478515978049E+00
   0.9910920509410813E+00
   0.9648489990836014E+00
   0.9933282604854875E+00
   0.1006058638637305E+01
   0.1001954027110563E+01
   0.9908735804765098E+00
   0.9740945214065116E+00
   0.9418802141957410E+00
   0.9819379692037106E+00
   0.9794803560690512E+00
   0.9704172061921270E+00
   0.9720478947062745E+00
   0.9557351702889388E+00
   0.9496731213610612E+00
   0.9528673572393906E+00
   0.1002659534063451E+01
   0.1002471631970977E+01
   0.1000509329298001E+01
   0.1001677321730968E+01
   0.9607931434938235E+00
   0.9491625507087930E+00
   0.9584503069195071E+00
   0.1001121207785028E+01
   0.1000496140593599E+01
   0.1001156644177895E+01
   0.9807376183689188E+00
   0.9806000808946844E+00
   0.9628476109176043E+00
SCALARS u double 1
LOOKUP_TABLE default
   0.0000000000000000E+00
   0.0000000000000000E+00
   0.0000000000000000E+00
   0.0000000000000000E+00
   0.0000000000000000E+00
   0.0000000000000000E+00
   0.0000000000000000E+00
   0.0000000000000000E+00
   0.0000000000000000E+00
   0.0000000000000000E+00
   0.0000000000000000E+00
   0.0000000000000000E+00
   0.0000000000000000E+00
   0.0000000000000000E+00
   0.0000000000000000E+00
   0.0000000000000000E+00
   0.0000000000000000E+00
   0.0000000000000000E+00
   0.0000000000000000E+00
   0.0000000000000000E+00
   0.0000000000000000E+00
   0.0000000000000000E+00
   0.0000000000000000E+00
   0.0000000000000000E+00
   0.0000000000000000E+00
   0.0000000000000000E+00
   0.0000000000000000E+00
   0.0000000000000000E+00
   0.0000000000000000E+00
   0.0000000000000000E+00
   0.0000000000000000E+00
   0.0000000000000000E+00
   0.0000000000000000E+00
   0.4950176835701799E+00
   0.5338221300605382E+00
   0.5183269247791599E+00
   0.4930649880192359E+00
   0.4847578719331864E+00
   0.4867666423653343E+00
   0.4890763583300938E+00
   0.4957848880329647E+00
   0.4898301883790105E+00
   0.4717388493441493E+00
   0.4454814153587299E+00
   0.4833907048923167E+00
   0.5098397462670493E+00
   0.4390712699548449E+00
   0.4949403964695952E+00
   0.5225330362485352E+00
   0.4962454545658513E+00
   0.5226154963597829E+00
   0.5038881743029400E+00
   0.5646883609039987E+00
   0.5247509156866857E+00
   0.4991466119501304E+00
   0.5730561900932966E+00
   0.5696051096253548E+00
   0.3737941449627861E+00
   0.3998658123890076E+00
   0.5599326587320037E+00
   0.5564587630637035E+00
   0.4942627332974651E+00
   0.4948659466161273E+00
   0.4925735874286454E+00
   0.4914269544072055E+00
   0.5162356851547940E+00
   0.5361798305996548E+00
   0.4947413356161275E+00
   0.4524112203086225E+00
   0.5128777326251645E+00
   0.5117942041099123E+00
   0.4783517503921212E+00
   0.4931696655283818E+00
   0.4603173591431234E+00
   0.5244892719891576E+00
   0.5297434248113123E+00
   0.5129579301457570E+00
   0.5328358320396599E+00
   0.5308941037924605E+00
   0.5309856171151882E+00
   0.5063656735877800E+00
   0.5282461954746355E+00
   0.5410312730949550E+00
   0.5361261481086741E+00
   0.5374105276950047E+00
   0.4965364818581616E+00
   0.4975340903873431E+00
   0.4963842644371581E+00
   0.4955220267406011E+00
   0.4904581830732155E+00
   0.4903044384775788E+00
   0.4862182763991960E+00
   0.4854049561027932E+00
   0.4932164387750114E+00
   0.4909833312071487E+00
   0.4832194696292671E+00
   0.4872622776954766E+00
   0.4880124909440277E+00
   0.4872445931143828E+00
   0.4882696668991506E+00
   0.4952597556330073E+00
   0.4900967167386132E+00
   0.4904000090231347E+00
   0.4944232925330830E+00
   0.4868002480564172E+00
   0.4892385983522468E+00
   0.4881393369234293E+00
   0.4878457828408413E+00
   0.4446866579307132E+00
   0.4700028779616862E+00
   0.4891999056212457E+00
   0.4885247843444300E+00
   0.4506533042674264E+00
   0.4687378565324278E+00
   0.4877010456514707E+00
   0.4868353683079829E+00
   0.4908994715834297E+00
   0.4793551576296744E+00
   0.4658071746401796E+00
   0.3792725225418778E+00
   0.4901596530027649E+00
   0.4486686689566468E+00
   0.4436137388969790E+00
   0.4845147240875887E+00
   0.4621822644880340E+00
   0.4665749534002612E+00
   0.4748140298854359E+00
   0.4894494216306559E+00
   0.5085556973424354E+00
   0.4315073868792269E+00
   0.4927349360791389E+00
   0.5318289234069703E+00
   0.4913399195702615E+00
   0.5207019993127324E+00
   0.5060964599218005E+00
   0.5688797395553087E+00
   0.5273992817885250E+00
   0.5015044841159850E+00
   0.5821790085903719E+00
   0.5689618251249858E+00
   0.3406394441885708E+00
   0.3789869409813047E+00
   0.5751958207059670E+00
   0.5666485493441930E+00
   0.5704108783109846E+00
   0.5291056376122063E+00
   0.5451902710932107E+00
   0.5718804315148580E+00
   0.5389079125598429E+00
   0.5475507504578860E+00
   0.5821713868960798E+00
   0.4925601784132148E+00
   0.5042157546029978E+00
   0.4961735435792948E+00
   0.5565207963003322E+00
   0.4758845213308679E+00
   0.4950268383155212E+00
   0.5498525443359705E+00
   0.5891202296000619E+00
   0.5841957609214304E+00
   0.5469097664633996E+00
   0.5805417617847890E+00
   0.5106251438258952E+00
   0.5030200512792005E+00
   0.5033624679818332E+00
   0.5676446096787220E+00
   0.5563943082830258E+00
   0.4947255973013098E+00
   0.5505243828696474E+00
   0.5510857281550394E+00
   0.5657350949628179E+00
   0.4920070017312564E+00
   0.4927299096255848E+00
   0.3865140567511322E+00
   0.3687754531716934E+00
   0.5574921716659722E+00
   0.5763755545404220E+00
   0.4194304389853766E+00
   0.5824843240157642E+00
   0.4265209611473333E+00
   0.5392799843660573E+00
   0.5012032759619730E+00
   0.5119513208605300E+00
   0.5049119463431149E+00
   0.5751974973945924E+00
   0.5876371360455711E+00
   0.5379907803856384E+00
   0.5677472540396041E+00
   0.5351248667034467E+00
   0.5338056380073747E+00
   0.5580313798500430E+00
   0.5512707859847337E+00
   0.4261852750497221E+00
   0.5273356176565843E+00
   0.5795712528876779E+00
   0.3318687130733161E+00
   0.4760283322107119E+00
   0.5446196252052923E+00
   0.4798331895824278E+00
   0.3005293504271124E+00
   0.5031051137915948E+00
   0.5017115977373791E+00
   0.5129033211056433E+00
   0.5414840108865047E+00
   0.3437603851478090E+00
   0.3397710711439395E+00
   0.3189928566174903E+00
   0.5065936051707416E+00
   0.5123483779806393E+00
   0.5330313519534683E+00
   0.5879310000441204E+00
   0.4644180532758966E+00
   0.3531270505772785E+00
SCALARS v double 1
LOOKUP_TABLE default
   0.0000000000000000E+00
   0.0000000000000000E+00
   0.0000000000000000E+00
   0.0000000000000000E+00
   0.0000000000000000E+00
   0.0000000000000000E+00
   0.0000000000000000E+00
   0.0000000000000000E+00
   0.0000000000000000E+00
   0.0000000000000000E+00
   0.0000000000000000E+00
   0.0000000000000000E+00
   0.0000000000000000E+00
   0.0000000000000000E+00
   0.0000000000000000E+00
   0.0000000000000000E+00
   0.0000000000000000E+00
   0.0000000000000000E+00
   0.0000000000000000E+00
   0.0000000000000000E+00
   0.0000000000000000E+00
   0.0000000000000000E+00
   0.0000000000000000E+00
   0.0000000000000000E+00
   0.0000000000000000E+00
   0.0000000000000000E+00
   0.0000000000000000E+00
   0.0000000000000000E+00
   0.0000000000000000E+00
   0.0000000000000000E+00
   0.0000000000000000E+00
   0.0000000000000000E+00
   0.0000000000000000E+00
   0.0000000000000000E+00
   0.0000000000000000E+00
   0.0000000000000000E+00
   0.0000000000000000E+00
   0.0000000000000000E+00
   0.0000000000000000E+00
   0.0000000000000000E+00
   0.0000000000000000E+00
   0.0000000000000000E+00
   0.0000000000000000E+00
   0.0000000000000000E+00
   0.0000000000000000E+00
   0.0000000000000000E+00
   0.0000000000000000E+00
   0.0000000000000000E+00
   0.0000000000000000E+00
   0.0000000000000000E+00
   0.0000000000000000E+00
   0.0000000000000000E+00
   0.0000000000000000E+00
   0.0000000000000000E+00
   0.0000000000000000E+00
   0.0000000000000000E+00
   0.0000000000000000E+00
   0.0000000000000000E+00
   0.0000000000000000E+00
   0.0000000000000000E+00
   0.0000000000000000E+00
   0.7970254535463664E-03
  -0.1329294688802698E-02
  -0.1332592752632743E-02
   0.0000000000000000E+00
   0.0000000000000000E+00
   0.0000000000000000E+00
   0.0000000000000000E+00
  -0.1922562561749011E-01
   0.4770618240449023E-03
   0.2183360176809784E-02
   0.1427333017822235E-01
  -0.6488282105633267E-02
  -0.7821623015361091E-02
  -0.1327725060027331E-01
   0.4914481805342420E-02
   0.6907122104498507E-03
   0.3434418452993384E-02
   0.1920847400566839E-02
   0.3147960237121090E-02
   0.1704778378873863E-02
  -0.7316187347452356E-02
  -0.7701903115118645E-04
   0.4468738043907439E-02
  -0.4387156509753944E-03
  -0.6383742714014971E-04
  -0.1963394585724574E-03
   0.8071268027646875E-03
   0.0000000000000000E+00
   0.0000000000000000E+00
   0.0000000000000000E+00
   0.0000000000000000E+00
   0.4257020248026067E-03
   0.1616304637535201E-02
  -0.1297550946752354E-02
  -0.1022774981102602E-02
  -0.2134342411660119E-02
  -0.1064012660372523E-02
  -0.8200064283013002E-03
  -0.7617033223626516E-03
   0.5202259103784711E-04
  -0.6244091940769044E-03
   0.7916469215263383E-03
  -0.1745238510097426E-02
   0.2747128670808481E-03
  -0.8939747270867641E-04
  -0.9424310123347456E-03
  -0.1100227545583650E-02
   0.0000000000000000E+00
   0.0000000000000000E+00
   0.0000000000000000E+00
  -0.1061759100046127E-02
  -0.7641128908859770E-02
   0.1860854760408951E-01
  -0.2834554382923236E-04
  -0.1383129152031540E-02
  -0.2035122970280736E-02
  -0.5666383186259936E-02
  -0.1585210200054395E-02
  -0.5947016500339541E-02
  -0.4160601916607765E-02
   0.1565614819285683E-02
   0.3329524834933680E-01
   0.3055141353163776E-04
  -0.2766884857199943E-02
   0.3566484722716496E-02
   0.3596189352679620E-03
   0.0000000000000000E+00
   0.0000000000000000E+00
   0.0000000000000000E+00
   0.0000000000000000E+00
   0.0000000000000000E+00
   0.0000000000000000E+00
   0.0000000000000000E+00
   0.0000000000000000E+00
   0.0000000000000000E+00
   0.0000000000000000E+00
   0.0000000000000000E+00
   0.0000000000000000E+00
   0.0000000000000000E+00
   0.0000000000000000E+00
   0.0000000000000000E+00
   0.0000000000000000E+00
   0.0000000000000000E+00
   0.5047032585304707E-02
   0.3230791963017389E-02
   0.8149134304011273E-02
   0.6168367002334992E-02
   0.1122928643378186E-01
   0.1429277503659738E-01
  -0.2038826785489354E-03
   0.5118221843725957E-02
   0.2914950553666301E-02
   0.3373611847714972E-02
   0.3728336443067447E-02
  -0.1465719873249200E-01
  -0.6159699888576572E-03
   0.6651630361734238E-02
   0.1542014236066115E-02
   0.1969646522530451E-02
   0.4266273550596633E-02
  -0.2790960968945013E-02
   0.1226887082471339E-02
   0.2819172498258235E-02
   0.1497449168809477E-02
   0.2575339052565284E-02
   0.2030646460765716E-02
   0.2118046076156291E-02
   0.8700410481715748E-02
  -0.3733396989405804E-02
   0.6241189121619792E-02
   0.2516489027236941E-04
  -0.3854044921604444E-03
  -0.1674679016540851E-01
  -0.4881976933107145E-02
  -0.4720000832034286E-02
   0.3445223056086309E-02
  -0.6135724127923559E-02
   0.9934520010202114E-04
  -0.3291372934896379E-01
  -0.3046196744879118E-02
   0.4722743212203057E-02
   0.9228368087525643E-03
   0.2112175239439830E-02
   0.4518755702400202E-02
   0.2720465296392529E-02
   0.3212576504858574E-02
   0.5200804230697427E-02
   0.1941838973017477E-02
   0.7315897614602564E-03
  -0.2555237395864911E-04
  -0.5374632808517650E-02
  -0.6959591045870530E-02
  -0.9443816526003137E-03
   0.1105268431737193E-02
  -0.2080554146411107E-02
  -0.3200035926338613E-02
  -0.2527833401348080E-02
  -0.4115193595213696E-02
  -0.7593954948358335E-02
  -0.1985686406075248E-02
   0.6240402913537805E-03
  -0.2239081624244129E-03
   0.1216949789687970E-02
  -0.3483958328742800E-02
   0.5229139892918337E-02
  -0.8487626027818383E-02
   0.2315170837130373E-04
  -0.3395192808084802E-03
   0.2542663556182160E-02
   0.1663457704847018E-02
   0.2021438734536018E-02
  -0.5620784012056887E-02
SCALARS w double 1
LOOKUP_TABLE default
   0.0000000000000000E+00
   0.0000000000000000E+00
   0.0000000000000000E+00
   0.0000000000000000E+00
   0.0000000000000000E+00
   0.0000000000000000E+00
   0.0000000000000000E+00
   0.0000000000000000E+00
   0.0000000000000000E+00
   0.0000000000000000E+00
   0.0000000000000000E+00
   0.0000000000000000E+00
   0.0000000000000000E+00
   0.0000000000000000E+00
   0.0000000000000000E+00
   0.0000000000000000E+00
   0.0000000000000000E+00
   0.0000000000000000E+00
   0.0000000000000000E+00
   0.0000000000000000E+00
   0.0000000000000000E+00
   0.0000000000000000E+00
   0.0000000000000000E+00
   0.0000000000000000E+00
   0.0000000000000000E+00
   0.0000000000000000E+00
   0.0000000000000000E+00
   0.0000000000000000E+00
   0.0000000000000000E+00
   0.0000000000000000E+00
   0.0000000000000000E+00
   0.0000000000000000E+00
   0.0000000000000000E+00
  -0.1007612287216982E+00
  -0.4249297118236051E-01
   0.7371987188560999E-03
   0.5725799952701794E-02
   0.5699058046719004E-03
   0.1609783190242972E-02
   0.3375073098025764E-02
   0.2371773678917491E-02
   0.4590624807940409E-03
   0.3518225895534581E-02
   0.4521817585508494E-01
   0.6522937826035402E-01
   0.8689297872996134E-03
  -0.2261151819121111E-01
   0.4316553583588278E-02
   0.1358734843394730E-01
   0.1039452556452807E-01
   0.4900548417335841E-01
   0.2437443596951100E-02
  -0.6509940972715759E-02
  -0.7012226453873791E-03
   0.3411017262598813E-03
   0.3904107452211478E-02
  -0.3893254292329390E-01
   0.1798168103082615E-01
   0.1119638180727670E-01
   0.3403773261889521E-01
   0.8438810312672582E-02
   0.4937312288080069E-02
   0.4970345592954657E-02
   0.4871517429023833E-02
   0.6027191724849106E-02
   0.2599191851239486E-02
  -0.4144429578359982E-01
  -0.9954261841212336E-01
  -0.1121678216628715E+00
   0.5070875103365123E-02
   0.4230770786247837E-02
  -0.1004732302032277E+00
  -0.9895252481741981E-01
  -0.9875450924114511E-01
  -0.9462509591892604E-01
  -0.6807133806006528E-01
   0.5154922257062077E-02
  -0.1935330735350303E-01
  -0.1575800279836147E-01
  -0.6002862281234357E-02
   0.6819057447034141E-02
  -0.8010050790677947E-01
  -0.2781092444148845E-01
  -0.8096457334784134E-01
  -0.5873277542151793E-01
   0.3083625720803543E-02
   0.2685146497831436E-02
   0.2640431210649058E-02
   0.3450191955302582E-02
   0.4007083857049289E-02
   0.1201214396924589E-02
  -0.1438845826678957E-03
   0.2039877315643323E-02
   0.4895693687560306E-02
   0.3857385668847216E-02
   0.1114201968081577E-02
   0.1182682063261972E-02
   0.1465296267542031E-02
  -0.1653632808709065E-04
   0.8996631983732707E-04
   0.4386667936656056E-02
   0.2715724319993383E-02
   0.2322755377424412E-02
   0.5010601117489923E-02
   0.1071689416079471E-02
   0.2712217806256478E-02
   0.2013964165935965E-02
   0.2879092433125630E-04
   0.8374614360605252E-01
   0.2793870737041404E-02
  -0.8346628026711513E-03
  -0.1492945310261292E-03
   0.1409540848814815E+00
   0.1239332959574352E+00
  -0.1219093283720769E-02
  -0.4381936071480818E-02
  -0.3043057680814288E-03
  -0.6512246788196897E-02
  -0.1949570292744814E-02
   0.1557630977404094E+00
   0.7489979215409050E-01
   0.2550174920016653E-01
   0.1656445124906820E+00