# vtk DataFile Version 2.0
FUN3D:global_image_vtk
ASCII
DATASET UNSTRUCTURED_GRID
POINTS 213 double
   -0.5474685441687831E-02    0.6000590304601070E-38    0.2504941971167291E+01
   -0.5645096240833562E-38    0.8038138598676080E-04    0.1395689121148525E-36
    0.1245419105183472E+01    0.4869881175999134E-38    0.2504941971167291E+01
   -0.5645096240833562E-38    0.1039425058013687E-03    0.1354425087823153E-36
    0.2497696093128780E+01    0.2052845479719988E-38    0.2504941971167291E+01
   -0.5645096240833562E-38    0.1101298164665754E-03    0.1306486081569321E-36
    0.3750590968915824E+01   -0.1764775803949124E-38    0.2504941971167291E+01
   -0.5645096240833562E-38    0.1356499004943612E-03    0.1251729689804535E-36
    0.5003221331742151E+01   -0.5152427795591048E-38    0.2504941971167291E+01
   -0.5645096240833562E-38    0.9668873038898297E-04    0.1195930656565229E-36
    0.5004676687979097E+01   -0.5546741266009318E-38    0.1281291202167040E+01
   -0.3358084458876380E-37    0.1638053019384356E-03    0.8690970580976628E-37
    0.5004772673778115E+01   -0.4378401515069635E-38    0.2775079906482894E-01
   -0.2993262509932533E-37    0.1903478008447590E-03    0.5524921420335940E-37
    0.5003581183341212E+01   -0.2212028618987455E-38   -0.1225853508883529E+01
   -0.2652916494907800E-37    0.1607765204486577E-03    0.2443360481267269E-37
    0.5001952533742191E+01    0.4985198936884776E-40   -0.2496589036641631E+01
   -0.4033092876945037E-38    0.1082258890302556E-03   -0.6201401383129577E-38
    0.3750348111606544E+01    0.1061920816965822E-38   -0.2496589036641631E+01
   -0.4033092876945037E-38    0.1458753696815806E-03   -0.4048985952065406E-38
    0.2498611462994928E+01    0.2230065570152689E-38   -0.2496589036641631E+01
   -0.4033092876945037E-38    0.1008933264248224E-03   -0.2141153393394019E-38
    0.1247175269333276E+01    0.3290667116108162E-38   -0.2496589036641631E+01
   -0.4033092876945037E-38    0.1108587619169654E-03   -0.9969039759096557E-40
   -0.3383959865719266E-02    0.3627520451091363E-38   -0.2496589036641631E+01
   -0.4033092876945037E-38    0.8107259626494169E-04    0.2470203416668807E-38
   -0.4257768979765597E-02    0.4738280344607513E-38   -0.1225734811642590E+01
   -0.2887267332872646E-37    0.3415458742295208E-04    0.3608517239003419E-37
   -0.5251592448509257E-02    0.6055958209662211E-38    0.2619486024420453E-01
   -0.3090140227023932E-37    0.1038724387187883E-03    0.7040142764601812E-37
   -0.5676060312426845E-02    0.6647404824352870E-38    0.1278221569065707E+01
   -0.3329332469194234E-37    0.8224601702150336E-04    0.1050360186528696E-36
    0.9003209617952581E+00    0.6484445912867642E-38    0.1608979112280158E+01
   -0.3526356975491402E-37    0.8704140727677777E-04    0.1112287206133389E-36
    0.3983172210692289E+01    0.3436860995703636E-40   -0.1561211904840279E+01
   -0.2636126030240997E-37    0.1757116720370600E-03    0.1834488918011586E-37
    0.4035602039224469E+01   -0.2181347988312358E-38    0.1486760030415520E+01
   -0.3718896679397711E-37    0.1713312862106630E-03    0.9608777900762100E-37
    0.1036613723302902E+01    0.4272968820119522E-38   -0.1455626429916848E+01
   -0.2869962681330087E-37    0.1047189301532914E-03    0.2720347847780164E-37
    0.1094353480630802E+01    0.5780218998357037E-38   -0.2964622010671852E+00
   -0.3103468728914845E-37    0.1260590236917270E-03    0.5825571065041712E-37
    0.7298400267480001E+00    0.6610073789905788E-38    0.6874684746719117E+00
   -0.3305701021844180E-37    0.1044598640544958E-03    0.8639403128145833E-37
    0.1617018659308944E+01    0.6269867519969037E-38    0.8553208024939369E+00
   -0.3480051330705935E-37    0.1529810904974949E-03    0.8810953859764185E-37
    0.2143199662875790E+01    0.3220613254908859E-38   -0.1627128509216730E+01
   -0.2758214696838425E-37    0.1606170425226817E-03    0.2019883895891604E-37
    0.4088840445400889E+01   -0.1694269896905301E-38   -0.4351047825936264E+00
   -0.2954591851078750E-37    0.2719933294109134E-03    0.4617545823395052E-37
    0.2977916511248925E+01    0.2339218376371028E-38   -0.8334991483094500E+00
   -0.2869313432619005E-37    0.2245596931861326E-03    0.3877343983956456E-37
    0.3044093241383418E+01    0.1822763031739341E-38   -0.1814361225108581E+01
   -0.2682926308073454E-37    0.1617000112420497E-03    0.1372802633027848E-37
    0.3427866614805211E+01    0.8990225335457840E-39    0.3813904839972496E+00
   -0.3468116379630963E-37    0.2936955483429649E-03    0.6906059431966578E-37
    0.4313225355351749E+01   -0.3476541652067441E-38    0.5489133376342495E+00
   -0.3353769583887963E-37    0.2313009573592373E-03    0.7057108382607284E-37
    0.1823032737597358E+01    0.4851426382335017E-38    0.1771265193544254E+01
   -0.3756545592721275E-37    0.1836202887151583E-03    0.1124953649851173E-36
    0.2806311152168375E+01    0.2638626766735109E-38    0.1358629373600680E+01
   -0.3808127427967288E-37    0.1943492163983818E-03    0.9753426803518300E-37
    0.1891860875936711E+01    0.4662139661271879E-38   -0.8481310365607546E+00
   -0.2979882095545296E-37    0.1670645501816170E-03    0.4117331175333229E-37
    0.2268769200166909E+01    0.5166902466233177E-38    0.7723691819196567E-01
   -0.3307516820312706E-37    0.2072307783085314E-03    0.6484285863161809E-37
    0.5000000000000000E+01   -0.6367094173316199-198    0.2504941971167291E+01
   -0.5645096240833562E-38    0.1250000000000000E+01   -0.6367094173316199-198
    0.5000000000000000E+01   -0.6367094173316199-198    0.2504941971167291E+01
   -0.5645096240833562E-38    0.2500000000000000E+01   -0.6367094173316199-198
    0.5000000000000000E+01   -0.6367094173316199-198    0.2504941971167291E+01
   -0.5645096240833562E-38    0.3750000000000000E+01   -0.6367094173316199-198
    0.5000000000000000E+01   -0.6367094173316199-198    0.2504941971167291E+01
   -0.5645096240833562E-38    0.5000000000000000E+01   -0.6367094173316199-198
    0.3750000000000000E+01   -0.6367094173316199-198    0.2504941971167291E+01
   -0.5645096240833562E-38    0.5000000000000000E+01   -0.6367094173316199-198
    0.2500000000000000E+01   -0.6367094173316199-198    0.2504941971167291E+01
   -0.5645096240833562E-38    0.5000000000000000E+01   -0.6367094173316199-198
    0.1250000000000000E+01   -0.6367094173316199-198    0.2504941971167291E+01
   -0.5645096240833562E-38    0.5000000000000000E+01   -0.6367094173316199-198
    0.4320484418164179-168   -0.6367094173316199-198    0.2504941971167291E+01
   -0.5645096240833562E-38    0.5000000000000000E+01   -0.6367094173316199-198
    0.4320484418164179-168   -0.6367094173316199-198    0.2504941971167291E+01
   -0.5645096240833562E-38    0.3750000000000000E+01   -0.6367094173316199-198
    0.4320484418164179-168   -0.6367094173316199-198    0.2504941971167291E+01
   -0.5645096240833562E-38    0.2500000000000000E+01   -0.6367094173316199-198
    0.4320484418164179-168   -0.6367094173316199-198    0.2504941971167291E+01
   -0.5645096240833562E-38    0.1250000000000000E+01   -0.6367094173316199-198
    0.9588956434871093E+00    0.9082666598346669E-38    0.2504941971167291E+01
   -0.5645096240833562E-38    0.9696525519543873E+00    0.9559575460898601E-37
    0.3981953078951402E+01    0.3820303388023388E-38    0.2504941971167291E+01
   -0.5645096240833562E-38    0.4070563854751271E+01    0.1341725204989204E-37
    0.4036122187252336E+01   -0.1129442696758151E-38    0.2504941971167291E+01
   -0.5645096240833562E-38    0.1017567520094671E+01    0.9236788531687028E-37
    0.9637572773153888E+00   -0.3257228757586604E-38    0.2504941971167291E+01
   -0.5645096240833562E-38    0.3973598203142229E+01    0.1464237456295411E-37
    0.1546540136992396E+01   -0.3132900224361853E-38    0.2504941971167291E+01
   -0.5645096240833562E-38    0.2931570169315601E+01    0.4496019283117167E-37
    0.6973799521244313E+00   -0.5354013118983281E-38    0.2504941971167291E+01
   -0.5645096240833562E-38    0.3070319952453756E+01    0.2599190563156456E-37
    0.8903742148356883E+00   -0.4497440090919665E-38    0.2504941971167291E+01
   -0.5645096240833562E-38    0.2056562238187738E+01    0.5266806905831374E-37
    0.2183041995146012E+01   -0.6476703862835622E-39    0.2504941971167291E+01
   -0.5645096240833562E-38    0.3960694449828019E+01    0.2332936323858353E-37
    0.3855844872709870E+01    0.6382047074964365E-38    0.2504941971167291E+01
   -0.5645096240833562E-38    0.2933250588118630E+01    0.3433270047331430E-37
    0.3152611367438029E+01    0.3352172735745956E-38    0.2504941971167291E+01
   -0.5645096240833562E-38    0.3637668388416195E+01    0.2850262886165051E-37
    0.3103307385241870E+01    0.2065231959468855E-38    0.2504941971167291E+01
   -0.5645096240833562E-38    0.4332607813099731E+01    0.1432987852213234E-37
    0.3266711045517939E+01    0.4998348374970862E-38    0.2504941971167291E+01
   -0.5645096240833562E-38    0.1889656617463738E+01    0.7498090471886835E-37
    0.4232537554484796E+01    0.7698651625064016E-38    0.2504941971167291E+01
   -0.5645096240833562E-38    0.1918626969802351E+01    0.4149957187755914E-37
    0.1905522374036519E+01    0.7461052880788869E-38    0.2504941971167291E+01
   -0.5645096240833562E-38    0.7226290832134608E+00    0.1156671593947716E-36
    0.2879767723645805E+01    0.2265354603395364E-38    0.2504941971167291E+01
   -0.5645096240833562E-38    0.9080945892181980E+00    0.1152066784259424E-36
    0.2012711365064515E+01    0.8986260227933866E-39    0.2504941971167291E+01
   -0.5645096240833562E-38    0.1767082390977754E+01    0.8589295966140811E-37
    0.2669681472994637E+01    0.2217040698697032E-38    0.2504941971167291E+01
   -0.5645096240833562E-38    0.2853394335010791E+01    0.5209394663927279E-37
    0.5000000000000000E+01   -0.6367094173316199-198    0.1250000000000000E+01
   -0.6367094173316199-198    0.5000000000000000E+01   -0.6367094173316199-198
    0.5000000000000000E+01   -0.6367094173316199-198    0.4320484418164179-168
[...]
POINT_DATA 213
SCALARS rho double 1
LOOKUP_TABLE default
   0.1346125694796165E+01
  -0.1915301897815209E-31
   0.9572084527647158E+00
  -0.1258430535636077E-31
   0.9461020639078311E+00
  -0.8906237960085414E-32
   0.9421833077515454E+00
  -0.6541489552175806E-32
   0.8436100785905991E+00
  -0.4681789356823087E-32
   0.7742024922725298E+00
  -0.4233010181229319E-32
   0.7627632914204224E+00
  -0.4302308146258960E-32
   0.7661496233415084E+00
  -0.4065601978944397E-32
   0.8310481703367275E+00
  -0.4619645431578663E-32
   0.9353608197671167E+00
  -0.6085742626190857E-32
   0.9344036383958125E+00
  -0.8516258719893276E-32
   0.9615898876470117E+00
  -0.1279982390477190E-31
   0.1448480208888133E+01
  -0.2064761457853740E-31
   0.1495421840745496E+01
  -0.1967273338247212E-31
   0.1646754928386010E+01
  -0.2240365382013130E-31
   0.1426608058877439E+01
  -0.1860884958432354E-31
   0.1009808068720545E+01
  -0.1414576815099963E-31
   0.9511456929613189E+00
  -0.6232742296364831E-32
   0.9438291099370736E+00
  -0.6023066194641796E-32
   0.9574489508573059E+00
  -0.1349599569476674E-31
   0.9414832416640710E+00
  -0.1325587990378021E-31
   0.1037118221425502E+01
  -0.1512918704245080E-31
   0.9258147537148589E+00
  -0.1094968113860387E-31
   0.9322497228174006E+00
  -0.9891001576602619E-32
   0.9538141799783557E+00
  -0.6158294566321761E-32
   0.9520438484218462E+00
  -0.7648418700928347E-32
   0.9350971720205302E+00
  -0.7093310974456780E-32
   0.9565537237118985E+00
  -0.6588428644799536E-32
   0.9378700247679991E+00
  -0.5581989850480761E-32
   0.9303318784868151E+00
  -0.1036765558826826E-31
   0.9446515867126767E+00
  -0.8062946891822994E-32
   0.8862352513653092E+00
  -0.1014680783205567E-31
   0.9424046836435386E+00
  -0.9130192857177784E-32
   0.9637217255547953E+00
  -0.3592453031585624E-32
   0.1008362577771464E+01
  -0.1854421990071594E-32
   0.1006713364979943E+01
  -0.1237169099705325E-32
   0.1001959240549325E+01
  -0.1585810591282544E-32
   0.1003218316276318E+01
  -0.3140473444642552E-32
   0.1004120538082305E+01
  -0.3867059594181764E-32
   0.1005207992650282E+01
  -0.3570599243884519E-32
   0.1004249813847906E+01
  -0.2819044728812970E-32
   0.1008267843881786E+01
  -0.4191060660162199E-32
   0.1023867443067886E+01
  -0.6121769411673624E-32
   0.1063751875324939E+01
  -0.7269725241309207E-32
   0.1019386187162550E+01
  -0.9081395339221074E-32
   0.1001778934113195E+01
  -0.2763116888208050E-32
   0.9645975233962125E+00
  -0.5083855585402339E-32
   0.1005263110528871E+01
  -0.4248157499227562E-32
   0.1000745578316714E+01
  -0.5310900866681553E-32
   0.1008695104813589E+01
  -0.5352762637284855E-32
   0.1008032475142374E+01
  -0.6447798523586564E-32
   0.1002354650880929E+01
  -0.4298756761115286E-32
   0.9980224682790700E+00
  -0.3073509288582393E-32
   0.1000594440604983E+01
  -0.3743877592336316E-32
   0.1001621537589709E+01
  -0.3724606149015241E-32
   0.9828107810948172E+00
  -0.4684379091688478E-32
   0.9844011041687808E+00
  -0.3565657556627695E-32
   0.9834292502931192E+00
  -0.8300390916215324E-32
   0.9790423922415000E+00
  -0.6701577759200074E-32
   0.9904798796909378E+00
  -0.5984070082532245E-32
   0.9935224893886284E+00
  -0.4531364472605212E-32
   0.1002009103475691E+01
  -0.1496070968554437E-32
   0.1002132311998061E+01
  -0.1461487184482647E-32
   0.1002273033582344E+01
  -0.1515852479081584E-32
   0.1001793219489185E+01
  -0.1676588325365758E-32
   0.1009814972833389E+01
  -0.1214986264529486E-32
   0.1006499311746365E+01
  -0.1860177682308358E-32
   0.9560849990714442E+00
  -0.3494758658847112E-32
   0.9252996566846687E+00
  -0.3952413108017954E-32
   0.1007053712651856E+01
  -0.1042746506214957E-32
   0.1004491538498333E+01
  -0.1233205007889155E-32
   0.9144889717496777E+00
  -0.3664886360775562E-32
   0.9091476761027109E+00
  -0.3590127549563943E-32
   0.8752502590928553E+00
  -0.3988161638785227E-32
   0.9768039036524941E+00
  -0.2890189927538375E-32
   0.1000530366597905E+01
  -0.2344191766125140E-32
   0.1005826553460160E+01
  -0.9929322701223501E-33
   0.1012895293779664E+01
  -0.1201901540815907E-32
   0.1011677102427482E+01
  -0.1373481948369627E-32
   0.1010415988351582E+01
  -0.9411467210457684E-33
   0.1005456560095681E+01
  -0.9712445866617817E-33
   0.9909260255109621E+00
  -0.2743829046538329E-32
   0.1005152543423376E+01
  -0.1498976070623446E-32
   0.9860803849583137E+00
  -0.2623734061401072E-32
   0.1005592650627473E+01
  -0.1809681034828802E-32
   0.1004239968494959E+01
  -0.2668732959454013E-32
   0.1002886283632250E+01
  -0.2592289951527014E-32
   0.1003350788888628E+01
  -0.2623573265313113E-32
   0.1003998912068580E+01
  -0.2736019290438202E-32
   0.1005116700254016E+01
  -0.3551688587792921E-32
   0.1003224183257989E+01
  -0.3862203722766002E-32
   0.1002669183700807E+01
  -0.3211299136151524E-32
   0.1002590255848428E+01
  -0.2933932615957096E-32
   0.1004070004659134E+01
  -0.3185320626062171E-32
   0.1004304937933146E+01
  -0.3279457116455776E-32
   0.1001643036025513E+01
  -0.3099868549064089E-32
   0.1002279357321935E+01
  -0.2974245034129441E-32
   0.1002547248782046E+01
  -0.2693234898424485E-32
   0.1003472641567354E+01
  -0.3709208377578939E-32
   0.1003380931080912E+01
  -0.3776696049094686E-32
   0.1003233776571534E+01
  -0.2984013891500072E-32
   0.1004430854293408E+01
  -0.3900292550215035E-32
   0.1004325283197202E+01
  -0.3860334645952746E-32
   0.1003653379478008E+01
  -0.3095888764277835E-32
   0.1003719191863770E+01
  -0.3607049845358671E-32
   0.1004319534138415E+01
  -0.3864915217190487E-32
   0.1004463155501094E+01
  -0.3917613246706936E-32
   0.1003629980599654E+01
  -0.3738816866986160E-32
   0.1064490581493572E+01
  -0.7270452365419485E-32
   0.1028445780971467E+01
  -0.6199721679424040E-32
   0.1009607603147359E+01
  -0.4240180955593081E-32
   0.1006626774102680E+01
  -0.3807770146367648E-32
   0.1163979474301360E+01
  -0.8204122204957536E-32
   0.1086026004530845E+01
  -0.6815401167115622E-32
   0.1007908398971680E+01
  -0.3977754427698203E-32
   0.1007252664643618E+01
  -0.3797130190778629E-32
   0.1006796746946194E+01
  -0.3524044575619755E-32
   0.1013053608644301E+01
  -0.5239342104689159E-32
   0.1019342644427340E+01
  -0.5795460423786391E-32
   0.1235143811205291E+01
  -0.9593014262804821E-32
   0.1032536232933642E+01
  -0.6571898696734307E-32
   0.1046567728934203E+01
  -0.7494060511902414E-32
   0.1201703012923373E+01
  -0.8704049865871736E-32
   0.1014671125332396E+01
  -0.5138959784370653E-32
   0.1032295324199356E+01
  -0.6747155016205731E-32
   0.1028222151031623E+01
  -0.7307980946176712E-32
   0.1014641483573336E+01
  -0.5656384905037739E-32
   0.1029002257770451E+01
  -0.8710322990852304E-32
   0.1002002818476376E+01
  -0.2781501120947409E-32
   0.9607830580820343E+00
  -0.5121024740715900E-32
   0.1006859706957375E+01
  -0.4264510855210365E-32
   0.1001326954010046E+01
  -0.5137787095809475E-32
   0.1010800868392035E+01
  -0.5418389504426851E-32
   0.1012237273234308E+01
  -0.6419042043381414E-32
   0.1000940436429749E+01
  -0.4332596580593798E-32
   0.9979317235317271E+00
  -0.3116756201602162E-32
   0.9980683699440458E+00
  -0.3809088459612151E-32
   0.1001191956733438E+01
  -0.3689138954923067E-32
   0.9841985797708352E+00
  -0.4691507617279728E-32
   0.9815070579349667E+00
  -0.3540627674666507E-32
   0.9648654914695904E+00
  -0.8332578111471338E-32
   0.9680713427303040E+00
  -0.6460014212548723E-32
   0.9914149190810139E+00
  -0.5933967950283926E-32
   0.9910916479216348E+00
  -0.4512917810764827E-32
   0.9925598184526015E+00
  -0.4327615284206579E-32
   0.1001728510387253E+01
  -0.4663996000375863E-32
   0.9993250772469899E+00
  -0.5005327651694562E-32
   0.9941444029265193E+00
  -0.5557075939205678E-32
   0.1006981383545160E+01
  -0.5873611468362344E-32
   0.1022611654050737E+01
  -0.7015791456640336E-32
   0.1001121691833201E+01
  -0.6459898735729365E-32
   0.1008784265586801E+01
  -0.4976914630053973E-32
   0.1004775043985264E+01
  -0.4686684075564635E-32
   0.1009029447306729E+01
  -0.5305760557754821E-32
   0.9967197949768096E+00
  -0.6224568211236850E-32
   0.1005567613152641E+01
  -0.9781729978408764E-32
   0.1003325685873309E+01
  -0.4134030197609814E-32
   0.9949865129967045E+00
  -0.4369480475347263E-32
   0.9833521892790748E+00
  -0.4082335940221939E-32
   0.9944521638504361E+00
  -0.3826305421651591E-32
   0.9973482230863624E+00
  -0.3452750134544978E-32
   0.9932519263849633E+00
  -0.2778817950403295E-32
   0.1001312608249057E+01
  -0.4018614355241911E-32
   0.1003001448725940E+01
  -0.4165896486221977E-32
   0.1002189173482844E+01
  -0.3436760264324515E-32
   0.9947119516184405E+00
  -0.2540548417075317E-32
   0.9937839725485381E+00
  -0.4015507784157828E-32
   0.1004862069432108E+01
  -0.4292928063041910E-32
   0.1020102936709555E+01
  -0.6053983562921857E-32
   0.1005341234391232E+01
  -0.5968957425967815E-32
   0.9817063601277446E+00
  -0.5615513520739805E-32
   0.1004975501327933E+01
  -0.3994120791161073E-32
   0.1012376568815320E+01
  -0.5277648173595645E-32
   0.9873747459242644E+00
  -0.7843820407706051E-32
   0.9551282272141182E+00
  -0.8350323421687223E-32
   0.9865280377056443E+00
  -0.5378876774471270E-32
   0.9865952832622918E+00
  -0.5063248157843396E-32
   0.9920084248960105E+00
  -0.7485002137978026E-32
   0.9934470865439962E+00
  -0.5277719541436344E-32
   0.9960657346530504E+00
  -0.9739518497529788E-32
   0.1037405690909355E+01
  -0.6694040509339349E-32
   0.1033165796316029E+01
  -0.8678568159594891E-32
   0.1001443358073557E+01
  -0.2599360162544883E-32
   0.1001929574473312E+01
  -0.3937259096961484E-32
   0.9912286695852790E+00
  -0.2790246771104636E-32
   0.9911121698768764E+00
  -0.3823041172934383E-32
   0.9649300819288683E+00
  -0.4041450225280897E-32
   0.9933729920342979E+00
  -0.2736798931529100E-32
   0.1006089075111740E+01
  -0.2184978450499680E-32
   0.1001962080811795E+01
  -0.2368728872286858E-32
   0.9908628495068645E+00
  -0.4481103313486485E-32
   0.9742274508734284E+00
  -0.4462037781862858E-32
   0.9420781785086676E+00
  -0.4485990019163581E-32
   0.9821604770833583E+00
  -0.5694350160870780E-32
   0.9794777371334424E+00
  -0.4100977656458352E-32
   0.9704352201666974E+00
  -0.7560626619515479E-32
   0.9720842372276951E+00
  -0.5717680367904413E-32
   0.9557868488075455E+00
  -0.3778160416665628E-32
   0.9497981758175186E+00
  -0.4210671541030787E-32
   0.9529847958460909E+00
  -0.5731104329690857E-32
   0.1002637256815283E+01
  -0.4633376542774765E-32
   0.1002476301970761E+01
  -0.4145067225997256E-32
   0.1000513242287924E+01
  -0.3057156334656499E-32
   0.1001675737919766E+01
  -0.2265050360691510E-32
   0.9610108169557123E+00
  -0.5988027434353639E-32
   0.9492469479940556E+00
  -0.5409111180482931E-32
   0.9586432519906015E+00
  -0.5807820854725808E-32
   0.1001121462568691E+01
  -0.3983725195484932E-32
   0.1000500591166406E+01
  -0.3403770635175376E-32
   0.1001161102485536E+01
  -0.2840455270401500E-32
   0.9807429276960825E+00
  -0.4904356574147000E-32
   0.9805608284045633E+00
  -0.7434919292972876E-32
   0.9629214371680948E+00
  -0.6256264357475543E-32
SCALARS u double 1
LOOKUP_TABLE default
   0.0000000000000000E+00
   0.0000000000000000E+00
   0.0000000000000000E+00
   0.0000000000000000E+00
   0.0000000000000000E+00
   0.0000000000000000E+00
   0.0000000000000000E+00
   0.0000000000000000E+00
   0.0000000000000000E+00
   0.0000000000000000E+00
   0.0000000000000000E+00
   0.0000000000000000E+00
   0.0000000000000000E+00
   0.0000000000000000E+00
   0.0000000000000000E+00
   0.0000000000000000E+00
   0.0000000000000000E+00
   0.0000000000000000E+00
   0.0000000000000000E+00
   0.0000000000000000E+00
   0.0000000000000000E+00
   0.0000000000000000E+00
   0.0000000000000000E+00
   0.0000000000000000E+00
   0.0000000000000000E+00
   0.0000000000000000E+00
   0.0000000000000000E+00
   0.0000000000000000E+00
   0.0000000000000000E+00
   0.0000000000000000E+00
   0.0000000000000000E+00
   0.0000000000000000E+00
   0.0000000000000000E+00
   0.0000000000000000E+00
   0.0000000000000000E+00
   0.0000000000000000E+00
   0.0000000000000000E+00
   0.0000000000000000E+00
   0.0000000000000000E+00
   0.0000000000000000E+00
   0.0000000000000000E+00
   0.0000000000000000E+00
   0.0000000000000000E+00
   0.0000000000000000E+00
   0.0000000000000000E+00
   0.0000000000000000E+00
   0.0000000000000000E+00
   0.0000000000000000E+00
   0.0000000000000000E+00
   0.0000000000000000E+00
   0.0000000000000000E+00
   0.0000000000000000E+00
   0.0000000000000000E+00
   0.0000000000000000E+00
   0.0000000000000000E+00
   0.0000000000000000E+00
   0.0000000000000000E+00
   0.0000000000000000E+00
   0.0000000000000000E+00
   0.0000000000000000E+00
   0.0000000000000000E+00
   0.0000000000000000E+00
   0.0000000000000000E+00
   0.0000000000000000E+00
   0.0000000000000000E+00
   0.0000000000000000E+00
   0.4946084390401937E+00
  -0.3607382472208332E-32
   0.5336296229396313E+00
  -0.2465022510023678E-32
   0.5182737288741461E+00
  -0.6793495491183131E-33
   0.4930696975717618E+00
   0.2805586063805173E-33
   0.4847718119407544E+00
   0.4136102484575412E-32
   0.4868108136215566E+00
   0.5380156585222735E-32
   0.4891429098222758E+00
   0.4875803421504932E-32
   0.4958014376856492E+00
   0.3021816083703210E-32
   0.4899016128305098E+00
   0.4177372677225141E-32
   0.4718097598415645E+00
   0.6037787120628698E-32
   0.4448926899587123E+00
   0.7256591033988647E-32
   0.4844425910270794E+00
   0.3470773505211997E-32
   0.5097672109152416E+00
   0.2751602380930532E-32
   0.4402157107391104E+00
  -0.3320468184479534E-32
   0.4949584587264899E+00
   0.4587852975740254E-32
   0.5222981757400216E+00
   0.5249877174728993E-32
   0.4962761335160880E+00
   0.5256359631456484E-32
   0.5223877814044879E+00
   0.6105980388936522E-32
   0.5038134104987479E+00
   0.4933159668813256E-32
   0.5644352140168805E+00
   0.1633555088112798E-32
   0.5245862239270022E+00
   0.4006046114806972E-32
   0.4990946955700002E+00
   0.4539082996552198E-32
   0.5729384848058964E+00
  -0.1104611564214088E-33
   0.5693720714277727E+00
  -0.1893091371767306E-32
   0.3752129680555752E+00
  -0.9910432703361015E-33
   0.4003935337290809E+00
  -0.2714261768258228E-32
   0.5599622500290194E+00
   0.2587615059632116E-32
   0.5562276759088146E+00
   0.3796526340660734E-32
   0.4942631174082617E+00
   0.1100570450730869E-33
   0.4948654038379113E+00
   0.8061028492776601E-34
   0.4925634782160052E+00
   0.2456607345636434E-33
   0.4913991786278309E+00
   0.2540322781098817E-33
   0.5162611628896594E+00
  -0.7698036341784811E-33
   0.5363588932424809E+00
  -0.2447204013714429E-32
   0.4951213607874803E+00
  -0.3521747058863917E-32
   0.4520531595291152E+00
  -0.3059476086349643E-32
   0.5129024774602052E+00
  -0.6462186313211730E-33
   0.5117690526466803E+00
  -0.3241509603016734E-33
   0.4786251287212245E+00
  -0.3303462006094889E-32
   0.4931155293858667E+00
  -0.3284702404763148E-32
   0.4600306954373689E+00
  -0.2788918234718947E-32
   0.5242629198942729E+00
  -0.3609803321249221E-32
   0.5299866667529156E+00
  -0.2967022462329873E-32
   0.5129711999262242E+00
  -0.5262959441171817E-33
   0.5328938855274253E+00
  -0.1811708379722783E-32
   0.5309772093587956E+00
  -0.1596069789843442E-32
   0.5309771260032812E+00
  -0.1133202611282032E-32
   0.5063651410168185E+00
  -0.5095995638204730E-33
   0.5279605765590215E+00
  -0.3424598601280137E-32
   0.5409254473520536E+00
  -0.1895524009405243E-32
   0.5363677255166566E+00
  -0.3353880385036012E-32
   0.5374194372046545E+00
  -0.2885125802521169E-32
   0.4965359093627190E+00
   0.2760998411852766E-32
   0.4975361620576713E+00
   0.2686070666353505E-32
   0.4963807509447989E+00
   0.2768708407897322E-32
   0.4955144774623548E+00
   0.2969916755683689E-32
   0.4904151887411466E+00
   0.4771575417228450E-32
   0.4902491479027322E+00
   0.5281544224260884E-32
   0.4861626503315029E+00
   0.3913835053792596E-32
   0.4854037739485383E+00
   0.3607705798351054E-32
   0.4931941380558055E+00
   0.4185961556640058E-32
   0.4910329234529670E+00
   0.4433195624740378E-32
   0.4831698316704346E+00
   0.3649963885125894E-32
   0.4872469605538907E+00
   0.3467862153861035E-32
   0.4880010969404514E+00
   0.2930667307268173E-32
   0.4872294036566420E+00
   0.5089283977009002E-32
   0.4882160211825331E+00
   0.5099764600984214E-32
   0.4952567366102065E+00
   0.3766094516140072E-32
   0.4900705809522773E+00
   0.5244610949094579E-32
   0.4903581267311218E+00
   0.5266079502724226E-32
   0.4944346859692931E+00
   0.4084657433823592E-32
   0.4868163397682273E+00
   0.5048038242833879E-32
   0.4892720557095897E+00
   0.5396211398393752E-32
   0.4881455378810285E+00
   0.5393405035318962E-32
   0.4878245184535985E+00
   0.5106889859927902E-32
   0.4449022026405857E+00
   0.7268772419586545E-32
   0.4700099664047614E+00
   0.6046674718192241E-32
   0.4891756201751424E+00
   0.4249558943621613E-32
   0.4885980866227728E+00
   0.3779646163266284E-32
   0.4510286412221489E+00
   0.6971803295501460E-32
   0.4681799610771304E+00
   0.7060117080178517E-32
   0.4876648975240543E+00
   0.3927188958501011E-32
   0.4868253758067068E+00
   0.3666905715002376E-32
   0.4909267533148868E+00
   0.3420309033493753E-32
   0.4793946319363147E+00
   0.5107583310180801E-32
   0.4657884653213646E+00
   0.5862537611397046E-32
   0.3794302312506632E+00
   0.7296152597905119E-32
   0.4903697421167626E+00
   0.7230864069069268E-32
   0.4487929174615807E+00
   0.7024337332279451E-32
   0.4432385355260768E+00
   0.7388120663707401E-32
   0.4845729179217865E+00
   0.5092449165947648E-32
   0.4621884481320242E+00
   0.6649248656336130E-32
   0.4663602298884564E+00
   0.7123693635234721E-32
   0.4747774268406404E+00
   0.5571550518872022E-32
   0.4893613112006148E+00
   0.3054823689559182E-32
   0.5085681474237946E+00
   0.2624512148289696E-32
   0.4304904287089621E+00
  -0.3168527010099337E-32
   0.4927280753895680E+00
   0.4554831340267558E-32
   0.5320316185099402E+00
   0.5237398574022456E-32
   0.4913826501723281E+00
   0.5321048422994710E-32
   0.5209404404684699E+00
   0.5870863752330060E-32
   0.5061319828047622E+00
   0.4869505389502543E-32
   0.5690636320469998E+00
   0.1582839240567359E-32
   0.5275039918421972E+00
   0.3914318463094506E-32
   0.5015047795155718E+00
   0.4327611109208840E-32
   0.5821373618613742E+00
  -0.2805214625563256E-33
   0.5691503700217366E+00
  -0.1848777401758362E-32
   0.3402452490602697E+00
  -0.1556042434892239E-32
   0.3785432685556890E+00
  -0.2577146949166419E-32
   0.5753091283338614E+00
   0.2705170201649489E-32
   0.5668547247073810E+00
   0.3830471725694512E-32
   0.5703055450940463E+00
   0.3986171986348906E-32
   0.5291879661617316E+00
   0.5224543403669252E-32
   0.5449833828652826E+00
   0.5468110172872158E-32
   0.5719093999232511E+00
   0.4826163693826744E-32
   0.5385694587091782E+00
   0.6616335137073492E-32
   0.5475896936889236E+00
   0.5618753217883627E-32
   0.5821565652939793E+00
   0.3600789401003576E-32
   0.4925313046001145E+00
   0.5207969869557583E-32
   0.5041557177772595E+00
   0.5013841112304056E-32
   0.4961299804140855E+00
   0.5364508757585037E-32
   0.5562803684740069E+00
   0.4817565618179093E-32
   0.4757814624157559E+00
   0.1613543922755302E-32
   0.4950174786318814E+00
   0.4928605943738736E-32
   0.5496174672072693E+00
   0.4284599442993296E-32
   0.5889519110818057E+00
   0.6118467470070703E-33
   0.5839568631087028E+00
   0.2241903647006309E-32
   0.5468163498067874E+00
   0.3516097475339814E-32
   0.5803877175568931E+00
  -0.3399719642488120E-33
   0.5106055693788721E+00
   0.4849788354131919E-32
   0.5029532236716113E+00
   0.5118273512427155E-32
   0.5033085380851180E+00
   0.4090057803414465E-32
   0.5676232052870218E+00
   0.6251319129386973E-33
   0.5564629528967061E+00
   0.4139139746130292E-32
   0.4947135441323399E+00
   0.4851212135188705E-32
   0.5506799461326912E+00
   0.6374408468987006E-32
   0.5513545696829826E+00