# vtk DataFile Version 2.0
FUN3D:global_image_vtk
ASCII
DATASET UNSTRUCTURED_GRID
POINTS 213 double
   -0.5474685441689611E-02    0.6000590318313014E-38    0.2504941971167291E+01
   -0.5645096248370507E-38    0.8038138598637191E-04    0.1395689121626427E-36
    0.1245419105183471E+01    0.4869881187207036E-38    0.2504941971167291E+01
   -0.5645096248370507E-38    0.1039425058012020E-03    0.1354425088288357E-36
    0.2497696093128781E+01    0.2052845485133371E-38    0.2504941971167291E+01
   -0.5645096248370507E-38    0.1101298164662982E-03    0.1306486082020064E-36
    0.3750590968915823E+01   -0.1764775805803118E-38    0.2504941971167291E+01
   -0.5645096248370507E-38    0.1356499004942502E-03    0.1251729690238327E-36
    0.5003221331742151E+01   -0.5152427804459448E-38    0.2504941971167291E+01
   -0.5645096248370507E-38    0.9668873038881600E-04    0.1195930656983593E-36
    0.5004676687979097E+01   -0.5546741277277130E-38    0.1281291202167039E+01
   -0.3358084463545522E-37    0.1638053019381020E-03    0.8690970584013944E-37
    0.5004772673778115E+01   -0.4378401524871676E-38    0.2775079906482936E-01
   -0.2993262513890979E-37    0.1903478008444245E-03    0.5524921422285010E-37
    0.5003581183341212E+01   -0.2212028624900840E-38   -0.1225853508883530E+01
   -0.2652916498129841E-37    0.1607765204483801E-03    0.2443360482137923E-37
    0.5001952533742191E+01    0.4985198735923533E-40   -0.2496589036641631E+01
   -0.4033092881505731E-38    0.1082258890300886E-03   -0.6201401384956777E-38
    0.3750348111606543E+01    0.1061920817112889E-38   -0.2496589036641631E+01
   -0.4033092881505731E-38    0.1458753696815806E-03   -0.4048985953319310E-38
    0.2498611462994928E+01    0.2230065572309459E-38   -0.2496589036641631E+01
   -0.4033092881505731E-38    0.1008933264248783E-03   -0.2141153394114674E-38
    0.1247175269333275E+01    0.3290667120640580E-38   -0.2496589036641631E+01
   -0.4033092881505731E-38    0.1108587619169652E-03   -0.9969039768990637E-40
   -0.3383959865717481E-02    0.3627520454471848E-38   -0.2496589036641631E+01
   -0.4033092881505731E-38    0.8107259626494135E-04    0.2470203417348040E-38
   -0.4257768979768711E-02    0.4738280353129785E-38   -0.1225734811642589E+01
   -0.2887267336019220E-37    0.3415458742306326E-04    0.3608517240222719E-37
   -0.5251592448514151E-02    0.6055958222148444E-38    0.2619486024420457E-01
   -0.3090140230489424E-37    0.1038724387191209E-03    0.7040142766997662E-37
   -0.5676060312426848E-02    0.6647404838142026E-38    0.1278221569065708E+01
   -0.3329332473107988E-37    0.8224601702172519E-04    0.1050360186887471E-36
    0.9003209617952606E+00    0.6484445925762787E-38    0.1608979112280157E+01
   -0.3526356979853680E-37    0.8704140727649993E-04    0.1112287206515213E-36
    0.3983172210692289E+01    0.3436860833805502E-40   -0.1561211904840278E+01
   -0.2636126033423662E-37    0.1757116720369489E-03    0.1834488918658079E-37
    0.4035602039224468E+01   -0.2181347992619321E-38    0.1486760030415520E+01
   -0.3718896684593344E-37    0.1713312862101632E-03    0.9608777904098823E-37
    0.1036613723302902E+01    0.4272968826236184E-38   -0.1455626429916849E+01
   -0.2869962684533191E-37    0.1047189301535697E-03    0.2720347848694859E-37
    0.1094353480630803E+01    0.5780219008260679E-38   -0.2964622010671853E+00
   -0.3103468732551294E-37    0.1260590236914494E-03    0.5825571067030695E-37
    0.7298400267479987E+00    0.6610073803111178E-38    0.6874684746719120E+00
   -0.3305701025811873E-37    0.1044598640542177E-03    0.8639403131106620E-37
    0.1617018659308945E+01    0.6269867532187152E-38    0.8553208024939358E+00
   -0.3480051335079021E-37    0.1529810904971059E-03    0.8810953862786473E-37
    0.2143199662875790E+01    0.3220613259749158E-38   -0.1627128509216731E+01
   -0.2758214699926088E-37    0.1606170425225709E-03    0.2019883896580159E-37
    0.4088840445400889E+01   -0.1694269901468531E-38   -0.4351047825936264E+00
   -0.2954591854846617E-37    0.2719933294106913E-03    0.4617545824988237E-37
    0.2977916511248925E+01    0.2339218379651030E-38   -0.8334991483094496E+00
   -0.2869313436097329E-37    0.2245596931857434E-03    0.3877343985297245E-37
    0.3044093241383419E+01    0.1822763033470176E-38   -0.1814361225108581E+01
   -0.2682926311232170E-37    0.1617000112421048E-03    0.1372802633513035E-37
    0.3427866614805211E+01    0.8990225343540453E-39    0.3813904839972496E+00
   -0.3468116384254872E-37    0.2936955483430763E-03    0.6906059434332364E-37
    0.4313225355351750E+01   -0.3476541659834969E-38    0.5489133376342494E+00
   -0.3353769588440316E-37    0.2313009573591816E-03    0.7057108385053890E-37
    0.1823032737597358E+01    0.4851426392461660E-38    0.1771265193544255E+01
   -0.3756545597666584E-37    0.1836202887151029E-03    0.1124953650236986E-36
    0.2806311152168376E+01    0.2638626771709399E-38    0.1358629373600681E+01
   -0.3808127433148524E-37    0.1943492163981036E-03    0.9753426806881887E-37
    0.1891860875936711E+01    0.4662139668526105E-38   -0.8481310365607542E+00
   -0.2979882099058369E-37    0.1670645501810615E-03    0.4117331176747956E-37
    0.2268769200166910E+01    0.5166902475470345E-38    0.7723691819196567E-01
   -0.3307516824472223E-37    0.2072307783084753E-03    0.6484285865389801E-37
    0.5000000000000000E+01    0.5137153886992213-191    0.2504941971167291E+01
   -0.5645096248370507E-38    0.1250000000000000E+01    0.5137153886992213-191
    0.5000000000000000E+01    0.5137153886992213-191    0.2504941971167291E+01
   -0.5645096248370507E-38    0.2500000000000000E+01    0.5137153886992213-191
    0.5000000000000000E+01    0.5137153886992213-191    0.2504941971167291E+01
   -0.5645096248370507E-38    0.3750000000000000E+01    0.5137153886992213-191
    0.5000000000000000E+01    0.5137153886992213-191    0.2504941971167291E+01
   -0.5645096248370507E-38    0.5000000000000000E+01    0.5137153886992213-191
    0.3750000000000000E+01    0.5137153886992213-191    0.2504941971167291E+01
   -0.5645096248370507E-38    0.5000000000000000E+01    0.5137153886992213-191
    0.2500000000000000E+01    0.5137153886992213-191    0.2504941971167291E+01
   -0.5645096248370507E-38    0.5000000000000000E+01    0.5137153886992213-191
    0.1250000000000000E+01    0.5137153886992213-191    0.2504941971167291E+01
   -0.5645096248370507E-38    0.5000000000000000E+01    0.5137153886992213-191
   -0.3473658078479148-161    0.5137153886992213-191    0.2504941971167291E+01
   -0.5645096248370507E-38    0.5000000000000000E+01    0.5137153886992213-191
   -0.3473658078479148-161    0.5137153886992213-191    0.2504941971167291E+01
   -0.5645096248370507E-38    0.3750000000000000E+01    0.5137153886992213-191
   -0.3473658078479148-161    0.5137153886992213-191    0.2504941971167291E+01
   -0.5645096248370507E-38    0.2500000000000000E+01    0.5137153886992213-191
   -0.3473658078479148-161    0.5137153886992213-191    0.2504941971167291E+01
   -0.5645096248370507E-38    0.1250000000000000E+01    0.5137153886992213-191
    0.9588956434871093E+00    0.9082666608283219E-38    0.2504941971167291E+01
   -0.5645096248370507E-38    0.9696525519543868E+00    0.9559575463230417E-37
    0.3981953078951402E+01    0.3820303388733157E-38    0.2504941971167291E+01
   -0.5645096248370507E-38    0.4070563854751271E+01    0.1341725205331913E-37
    0.4036122187252336E+01   -0.1129442698392323E-38    0.2504941971167291E+01
   -0.5645096248370507E-38    0.1017567520094671E+01    0.9236788534204075E-37
    0.9637572773153888E+00   -0.3257228757485949E-38    0.2504941971167291E+01
   -0.5645096248370507E-38    0.3973598203142229E+01    0.1464237456590503E-37
    0.1546540136992396E+01   -0.3132900224019406E-38    0.2504941971167291E+01
   -0.5645096248370507E-38    0.2931570169315600E+01    0.4496019284124322E-37
    0.6973799521244313E+00   -0.5354013119231727E-38    0.2504941971167291E+01
   -0.5645096248370507E-38    0.3070319952453756E+01    0.2599190563702035E-37
    0.8903742148356886E+00   -0.4497440089945436E-38    0.2504941971167291E+01
   -0.5645096248370507E-38    0.2056562238187738E+01    0.5266806906966544E-37
    0.2183041995146012E+01   -0.6476703853263785E-39    0.2504941971167291E+01
   -0.5645096248370507E-38    0.3960694449828019E+01    0.2332936324448835E-37
    0.3855844872709870E+01    0.6382047076135727E-38    0.2504941971167291E+01
   -0.5645096248370507E-38    0.2933250588118630E+01    0.3433270048157795E-37
    0.3152611367438029E+01    0.3352172736655988E-38    0.2504941971167291E+01
   -0.5645096248370507E-38    0.3637668388416195E+01    0.2850262886904755E-37
    0.3103307385241870E+01    0.2065231960276840E-38    0.2504941971167291E+01
   -0.5645096248370507E-38    0.4332607813099731E+01    0.1432987852588231E-37
    0.3266711045517939E+01    0.4998348376519896E-38    0.2504941971167291E+01
   -0.5645096248370507E-38    0.1889656617463738E+01    0.7498090473827906E-37
    0.4232537554484796E+01    0.7698651626384872E-38    0.2504941971167291E+01
   -0.5645096248370507E-38    0.1918626969802351E+01    0.4149957188766985E-37
    0.1905522374036519E+01    0.7461052890240532E-38    0.2504941971167291E+01
   -0.5645096248370507E-38    0.7226290832134605E+00    0.1156671594275851E-36
    0.2879767723645805E+01    0.2265354606274103E-38    0.2504941971167291E+01
   -0.5645096248370507E-38    0.9080945892181980E+00    0.1152066784611062E-36
    0.2012711365064515E+01    0.8986260247469833E-39    0.2504941971167291E+01
   -0.5645096248370507E-38    0.1767082390977754E+01    0.8589295968271237E-37
    0.2669681472994637E+01    0.2217040699366245E-38    0.2504941971167291E+01
   -0.5645096248370507E-38    0.2853394335010791E+01    0.5209394665150859E-37
    0.5000000000000000E+01    0.5137153886992213-191    0.1250000000000000E+01
    0.5137153886992213-191    0.5000000000000000E+01    0.5137153886992213-191
    0.5000000000000000E+01    0.5137153886992213-191   -0.3473658078479148-161
[...]
POINT_DATA 213
SCALARS rho double 1
LOOKUP_TABLE default
   0.1346125694799487E+01
  -0.1915301898035129E-31
   0.9572084527698856E+00
  -0.1258430535983026E-31
   0.9461020639211356E+00
  -0.8906237963581126E-32
   0.9421833078005957E+00
  -0.6541489551765628E-32
   0.8436100786780303E+00
  -0.4681789351975451E-32
   0.7742024922847148E+00
  -0.4233010182353954E-32
   0.7627632914266756E+00
  -0.4302308149881200E-32
   0.7661496233439402E+00
  -0.4065601984320695E-32
   0.8310481703386777E+00
  -0.4619645432333068E-32
   0.9353608197736559E+00
  -0.6085742628352630E-32
   0.9344036384018163E+00
  -0.8516258723283700E-32
   0.9615898876554420E+00
  -0.1279982390777113E-31
   0.1448480208898694E+01
  -0.2064761458090152E-31
   0.1495421840749721E+01
  -0.1967273338459158E-31
   0.1646754928392572E+01
  -0.2240365382231051E-31
   0.1426608058879072E+01
  -0.1860884958604250E-31
   0.1009808068726070E+01
  -0.1414576815408648E-31
   0.9511456929649181E+00
  -0.6232742299836050E-32
   0.9438291099791506E+00
  -0.6023066193964658E-32
   0.9574489508665580E+00
  -0.1349599569735444E-31
   0.9414832416692096E+00
  -0.1325587990604441E-31
   0.1037118221429511E+01
  -0.1512918704473837E-31
   0.9258147537236349E+00
  -0.1094968114185557E-31
   0.9322497228234223E+00
  -0.9891001579579160E-32
   0.9538141799817758E+00
  -0.6158294570773971E-32
   0.9520438484286473E+00
  -0.7648418703528301E-32
   0.9350971720266291E+00
  -0.7093310977330093E-32
   0.9565537237247204E+00
  -0.6588428646933344E-32
   0.9378700247643847E+00
  -0.5581989853550161E-32
   0.9303318784960894E+00
  -0.1036765559190959E-31
   0.9446515867341663E+00
  -0.8062946894015306E-32
   0.8862352513714586E+00
  -0.1014680783460602E-31
   0.9424046836504065E+00
  -0.9130192859962302E-32
   0.9637217258767014E+00
  -0.3592453004474411E-32
   0.1008362577746411E+01
  -0.1854421992480472E-32
   0.1006713364964686E+01
  -0.1237169098202118E-32
   0.1001959240598341E+01
  -0.1585810604567884E-32
   0.1003218316303131E+01
  -0.3140473452739970E-32
   0.1004120538097121E+01
  -0.3867059604561365E-32
   0.1005207992648870E+01
  -0.3570599243318112E-32
   0.1004249813844999E+01
  -0.2819044727889825E-32
   0.1008267843887175E+01
  -0.4191060662794332E-32
   0.1023867443071860E+01
  -0.6121769413952314E-32
   0.1063751875329063E+01
  -0.7269725243694620E-32
   0.1019386187167997E+01
  -0.9081395341214162E-32
   0.1001778934105113E+01
  -0.2763116887992585E-32
   0.9645975238514625E+00
  -0.5083855547078825E-32
   0.1005263110533507E+01
  -0.4248157501593074E-32
   0.1000745578325699E+01
  -0.5310900869888093E-32
   0.1008695104818922E+01
  -0.5352762640061179E-32
   0.1008032475148544E+01
  -0.6447798525993437E-32
   0.1002354650887902E+01
  -0.4298756763423087E-32
   0.9980224682756362E+00
  -0.3073509289965939E-32
   0.1000594440613364E+01
  -0.3743877594612176E-32
   0.1001621537595631E+01
  -0.3724606154386936E-32
   0.9828107810759763E+00
  -0.4684379095361683E-32
   0.9844011042080306E+00
  -0.3565657552766441E-32
   0.9834292502878224E+00
  -0.8300390919008454E-32
   0.9790423922949225E+00
  -0.6701577757483266E-32
   0.9904798796879871E+00
  -0.5984070084732271E-32
   0.9935224893985900E+00
  -0.4531364475398641E-32
   0.1002009103548680E+01
  -0.1496070997560710E-32
   0.1002132312054540E+01
  -0.1461487219583909E-32
   0.1002273033588854E+01
  -0.1515852493177980E-32
   0.1001793219496492E+01
  -0.1676588336349953E-32
   0.1009814972853568E+01
  -0.1214986261381715E-32
   0.1006499311750843E+01
  -0.1860177684237585E-32
   0.9560849991010079E+00
  -0.3494758658352427E-32
   0.9252996567744330E+00
  -0.3952413103401661E-32
   0.1007053712664341E+01
  -0.1042746506739109E-32
   0.1004491538496514E+01
  -0.1233205005146368E-32
   0.9144889717410863E+00
  -0.3664886361317146E-32
   0.9091476761103949E+00
  -0.3590127549555540E-32
   0.8752502590497055E+00
  -0.3988161644647631E-32
   0.9768039036236530E+00
  -0.2890189931706104E-32
   0.1000530366596377E+01
  -0.2344191768558383E-32
   0.1005826553461341E+01
  -0.9929322661142923E-33
   0.1012895293772603E+01
  -0.1201901538846366E-32
   0.1011677102428339E+01
  -0.1373481948253940E-32
   0.1010415988345228E+01
  -0.9411467138853041E-33
   0.1005456560094549E+01
  -0.9712445830812489E-33
   0.9909260254556813E+00
  -0.2743829049613357E-32
   0.1005152543422404E+01
  -0.1498976073268698E-32
   0.9860803849557835E+00
  -0.2623734062600086E-32
   0.1005592650639127E+01
  -0.1809681035519738E-32
   0.1004239968493897E+01
  -0.2668732959096040E-32
   0.1002886283630869E+01
  -0.2592289951170034E-32
   0.1003350788890112E+01
  -0.2623573266925852E-32
   0.1003998912070560E+01
  -0.2736019290563287E-32
   0.1005116700255501E+01
  -0.3551688589393436E-32
   0.1003224183260919E+01
  -0.3862203724541783E-32
   0.1002669183692499E+01
  -0.3211299145389745E-32
   0.1002590255900666E+01
  -0.2933932635914685E-32
   0.1004070004663921E+01
  -0.3185320627915608E-32
   0.1004304937934243E+01
  -0.3279457118787354E-32
   0.1001643036014983E+01
  -0.3099868557347527E-32
   0.1002279357350936E+01
  -0.2974245056489923E-32
   0.1002547248849731E+01
  -0.2693234942866640E-32
   0.1003472641583546E+01
  -0.3709208391013472E-32
   0.1003380931079370E+01
  -0.3776696052719308E-32
   0.1003233776575619E+01
  -0.2984013893143275E-32
   0.1004430854294987E+01
  -0.3900292553875599E-32
   0.1004325283195159E+01
  -0.3860334646007282E-32
   0.1003653379482931E+01
  -0.3095888766608197E-32
   0.1003719191866065E+01
  -0.3607049846065083E-32
   0.1004319534146519E+01
  -0.3864915223045335E-32
   0.1004463155507312E+01
  -0.3917613249982344E-32
   0.1003629980588779E+01
  -0.3738816866137789E-32
   0.1064490581512264E+01
  -0.7270452367557153E-32
   0.1028445780971712E+01
  -0.6199721681261892E-32
   0.1009607603151312E+01
  -0.4240180957974836E-32
   0.1006626774105418E+01
  -0.3807770148180122E-32
   0.1163979474294729E+01
  -0.8204122205644518E-32
   0.1086026004524934E+01
  -0.6815401168126132E-32
   0.1007908398974531E+01
  -0.3977754429727149E-32
   0.1007252664643175E+01
  -0.3797130191779558E-32
   0.1006796746944592E+01
  -0.3524044575430568E-32
   0.1013053608650708E+01
  -0.5239342107381795E-32
   0.1019342644428733E+01
  -0.5795460426086191E-32
   0.1235143811208751E+01
  -0.9593014264217904E-32
   0.1032536232941683E+01
  -0.6571898698944102E-32
   0.1046567728936133E+01
  -0.7494060514249813E-32
   0.1201703012929559E+01
  -0.8704049867169609E-32
   0.1014671125335846E+01
  -0.5138959786506075E-32
   0.1032295324204662E+01
  -0.6747155018401049E-32
   0.1028222151039542E+01
  -0.7307980948824177E-32
   0.1014641483576520E+01
  -0.5656384907398515E-32
   0.1029002257775232E+01
  -0.8710322992761554E-32
   0.1002002818487251E+01
  -0.2781501119955193E-32
   0.9607830581123263E+00
  -0.5121024739659338E-32
   0.1006859706960943E+01
  -0.4264510858003834E-32
   0.1001326954017767E+01
  -0.5137787098904543E-32
   0.1010800868394603E+01
  -0.5418389507316543E-32
   0.1012237273239349E+01
  -0.6419042045305592E-32
   0.1000940436430093E+01
  -0.4332596582009769E-32
   0.9979317235363308E+00
  -0.3116756203658870E-32
   0.9980683699399020E+00
  -0.3809088461065319E-32
   0.1001191956731895E+01
  -0.3689138958330197E-32
   0.9841985797788593E+00
  -0.4691507618871532E-32
   0.9815070579491288E+00
  -0.3540627675762932E-32
   0.9648654914823269E+00
  -0.8332578112637056E-32
   0.9680713427468234E+00
  -0.6460014214372220E-32
   0.9914149190848986E+00
  -0.5933967952362825E-32
   0.9910916479258616E+00
  -0.4512917812659035E-32
   0.9925598184554907E+00
  -0.4327615286346167E-32
   0.1001728510390164E+01
  -0.4663996002561841E-32
   0.9993250772522969E+00
  -0.5005327654424160E-32
   0.9941444029326855E+00
  -0.5557075941760591E-32
   0.1006981383549104E+01
  -0.5873611470729440E-32
   0.1022611654055051E+01
  -0.7015791458541837E-32
   0.1001121691838408E+01
  -0.6459898737666635E-32
   0.1008784265590432E+01
  -0.4976914632322457E-32
   0.1004775043990768E+01
  -0.4686684078193474E-32
   0.1009029447312611E+01
  -0.5305760560630214E-32
   0.9967197949835589E+00
  -0.6224568213519675E-32
   0.1005567613157460E+01
  -0.9781729980550234E-32
   0.1003325685875792E+01
  -0.4134030199549095E-32
   0.9949865129989318E+00
  -0.4369480476641478E-32
   0.9833521892985312E+00
  -0.4082335940746306E-32
   0.9944521638662726E+00
  -0.3826305421305208E-32
   0.9973482230933388E+00
  -0.3452750137875336E-32
   0.9932519263826588E+00
  -0.2778817952257869E-32
   0.1001312608257805E+01
  -0.4018614360300415E-32
   0.1003001448729935E+01
  -0.4165896488373149E-32
   0.1002189173489839E+01
  -0.3436760270185212E-32
   0.9947119516208367E+00
  -0.2540548417777422E-32
   0.9937839725528603E+00
  -0.4015507786720088E-32
   0.1004862069434489E+01
  -0.4292928064628215E-32
   0.1020102936715140E+01
  -0.6053983565406817E-32
   0.1005341234396261E+01
  -0.5968957428213616E-32
   0.9817063601323960E+00
  -0.5615513522777345E-32
   0.1004975501330321E+01
  -0.3994120793283013E-32
   0.1012376568818133E+01
  -0.5277648176286605E-32
   0.9873747459367841E+00
  -0.7843820409128142E-32
   0.9551282272201773E+00
  -0.8350323423804663E-32
   0.9865280377092390E+00
  -0.5378876776844435E-32
   0.9865952832725752E+00
  -0.5063248159741016E-32
   0.9920084248913111E+00
  -0.7485002140219423E-32
   0.9934470865515086E+00
  -0.5277719543360202E-32
   0.9960657346574086E+00
  -0.9739518499528577E-32
   0.1037405690911545E+01
  -0.6694040511003767E-32
   0.1033165796318661E+01
  -0.8678568161297536E-32
   0.1001443358076245E+01
  -0.2599360161564529E-32
   0.1001929574477501E+01
  -0.3937259099303152E-32
   0.9912286695833535E+00
  -0.2790246772820435E-32
   0.9911121698791684E+00
  -0.3823041175963993E-32
   0.9649300819276663E+00
  -0.4041450227096677E-32
   0.9933729920336429E+00
  -0.2736798934148810E-32
   0.1006089075114567E+01
  -0.2184978451577538E-32
   0.1001962080818380E+01
  -0.2368728873512006E-32
   0.9908628495099958E+00
  -0.4481103315903061E-32
   0.9742274508258599E+00
  -0.4462037786624466E-32
   0.9420781785273924E+00
  -0.4485990020586963E-32
   0.9821604770980680E+00
  -0.5694350161173902E-32
   0.9794777371330615E+00
  -0.4100977659268652E-32
   0.9704352201628056E+00
  -0.7560626620647168E-32
   0.9720842372307915E+00
  -0.5717680369076978E-32
   0.9557868488255793E+00
  -0.3778160416631138E-32
   0.9497981758166573E+00
  -0.4210671542042851E-32
   0.9529847958428813E+00
  -0.5731104331786991E-32
   0.1002637256815714E+01
  -0.4633376545149143E-32
   0.1002476301971339E+01
  -0.4145067228326741E-32
   0.1000513242293296E+01
  -0.3057156338274274E-32
   0.1001675737927712E+01
  -0.2265050361345296E-32
   0.9610108169555054E+00
  -0.5988027437365632E-32
   0.9492469479945095E+00
  -0.5409111181753944E-32
   0.9586432519823797E+00
  -0.5807820855646316E-32
   0.1001121462572087E+01
  -0.3983725197074716E-32
   0.1000500591165822E+01
  -0.3403770636665375E-32
   0.1001161102498034E+01
  -0.2840455274747174E-32
   0.9807429277002103E+00
  -0.4904356576607254E-32
   0.9805608284057314E+00
  -0.7434919294791242E-32
   0.9629214371749767E+00
  -0.6256264358596226E-32
SCALARS u double 1
LOOKUP_TABLE default
   0.0000000000000000E+00
   0.0000000000000000E+00
   0.0000000000000000E+00
   0.0000000000000000E+00
   0.0000000000000000E+00
   0.0000000000000000E+00
   0.0000000000000000E+00
   0.0000000000000000E+00
   0.0000000000000000E+00
   0.0000000000000000E+00
   0.0000000000000000E+00
   0.0000000000000000E+00
   0.0000000000000000E+00
   0.0000000000000000E+00
   0.0000000000000000E+00
   0.0000000000000000E+00
   0.0000000000000000E+00
   0.0000000000000000E+00
   0.0000000000000000E+00
   0.0000000000000000E+00
   0.0000000000000000E+00
   0.0000000000000000E+00
   0.0000000000000000E+00
   0.0000000000000000E+00
   0.0000000000000000E+00
   0.0000000000000000E+00
   0.0000000000000000E+00
   0.0000000000000000E+00
   0.0000000000000000E+00
   0.0000000000000000E+00
   0.0000000000000000E+00
   0.0000000000000000E+00
   0.0000000000000000E+00
   0.0000000000000000E+00
   0.0000000000000000E+00
   0.0000000000000000E+00
   0.0000000000000000E+00
   0.0000000000000000E+00
   0.0000000000000000E+00
   0.0000000000000000E+00
   0.0000000000000000E+00
   0.0000000000000000E+00
   0.0000000000000000E+00
   0.0000000000000000E+00
   0.0000000000000000E+00
   0.0000000000000000E+00
   0.0000000000000000E+00
   0.0000000000000000E+00
   0.0000000000000000E+00
   0.0000000000000000E+00
   0.0000000000000000E+00
   0.0000000000000000E+00
   0.0000000000000000E+00
   0.0000000000000000E+00
   0.0000000000000000E+00
   0.0000000000000000E+00
   0.0000000000000000E+00
   0.0000000000000000E+00
   0.0000000000000000E+00
   0.0000000000000000E+00
   0.0000000000000000E+00
   0.0000000000000000E+00
   0.0000000000000000E+00
   0.0000000000000000E+00
   0.0000000000000000E+00
   0.0000000000000000E+00
   0.4946084386993524E+00
  -0.3607382506210636E-32
   0.5336296229756916E+00
  -0.2465022509663220E-32
   0.5182737288498382E+00
  -0.6793495481337734E-33
   0.4930696975865619E+00
   0.2805586247976435E-33
   0.4847718119881863E+00
   0.4136102509623313E-32
   0.4868108136442083E+00
   0.5380156585826501E-32
   0.4891429098093132E+00
   0.4875803432125323E-32
   0.4958014376696508E+00
   0.3021816085497309E-32
   0.4899016128297535E+00
   0.4177372679869848E-32
   0.4718097598371850E+00
   0.6037787122836841E-32
   0.4448926899542656E+00
   0.7256591036272370E-32
   0.4844425910253512E+00
   0.3470773506897129E-32
   0.5097672108167695E+00
   0.2751602400312525E-32
   0.4402157107713948E+00
  -0.3320468182275566E-32
   0.4949584587177300E+00
   0.4587852978713286E-32
   0.5222981757325369E+00
   0.5249877176992860E-32
   0.4962761335115222E+00
   0.5256359634275403E-32
   0.5223877813981997E+00
   0.6105980391300171E-32
   0.5038134104745514E+00
   0.4933159676684995E-32
   0.5644352140018457E+00
   0.1633555089521167E-32
   0.5245862238886804E+00
   0.4006046125366524E-32
   0.4990946955319631E+00
   0.4539083003226712E-32
   0.5729384847979159E+00
  -0.1104611559070673E-33
   0.5693720713982602E+00
  -0.1893091377194406E-32
   0.3752129680642816E+00
  -0.9910432688755660E-33
   0.4003935337901756E+00
  -0.2714261762680303E-32
   0.5599622500294615E+00
   0.2587615060874952E-32
   0.5562276758869653E+00
   0.3796526345603387E-32
   0.4942631174520389E+00
   0.1100570510412110E-33
   0.4948654038981121E+00
   0.8061026862866316E-34
   0.4925634782339309E+00
   0.2456607270606136E-33
   0.4913991786263618E+00
   0.2540322771660198E-33
   0.5162611628861956E+00
  -0.7698036287563352E-33
   0.5363588932426845E+00
  -0.2447204014867451E-32
   0.4951213607565104E+00
  -0.3521747062563843E-32
   0.4520531594596799E+00
  -0.3059476092893060E-32
   0.5129024774485869E+00
  -0.6462186253178914E-33
   0.5117690526057174E+00
  -0.3241509576012796E-33
   0.4786251287357771E+00
  -0.3303462011245475E-32
   0.4931155293895121E+00
  -0.3284702411655286E-32
   0.4600306954847103E+00
  -0.2788918233365855E-32
   0.5242629199214053E+00
  -0.3609803322409053E-32
   0.5299866667556203E+00
  -0.2967022463419238E-32
   0.5129711999011732E+00
  -0.5262959380826155E-33
   0.5328938855257166E+00
  -0.1811708376693294E-32
   0.5309772093607895E+00
  -0.1596069786424417E-32
   0.5309771259842833E+00
  -0.1133202608145290E-32
   0.5063651410030042E+00
  -0.5095995632078242E-33
   0.5279605766316228E+00
  -0.3424598601790647E-32
   0.5409254473562265E+00
  -0.1895524005659423E-32
   0.5363677255219780E+00
  -0.3353880389043670E-32
   0.5374194372006753E+00
  -0.2885125805054548E-32
   0.4965359093572004E+00
   0.2760998414787204E-32
   0.4975361620511640E+00
   0.2686070668631214E-32
   0.4963807509414335E+00
   0.2768708408446847E-32
   0.4955144774570572E+00
   0.2969916759531769E-32
   0.4904151887311847E+00
   0.4771575418458631E-32
   0.4902491479130296E+00
   0.5281544218504639E-32
   0.4861626503328909E+00
   0.3913835040243107E-32
   0.4854037740486239E+00
   0.3607705806479617E-32
   0.4931941380540746E+00
   0.4185961558636427E-32
   0.4910329234573700E+00
   0.4433195626177508E-32
   0.4831698316999534E+00
   0.3649963866277696E-32
   0.4872469606633580E+00
   0.3467862115735730E-32
   0.4880010970938755E+00
   0.2930667255728260E-32
   0.4872294037415689E+00
   0.5089283946591985E-32
   0.4882160211846448E+00
   0.5099764590169380E-32
   0.4952567366074462E+00
   0.3766094517969133E-32
   0.4900705809563703E+00
   0.5244610944141262E-32
   0.4903581267292216E+00
   0.5266079501080573E-32
   0.4944346859737090E+00
   0.4084657434487214E-32
   0.4868163398039216E+00
   0.5048038247133541E-32
   0.4892720557337949E+00
   0.5396211398829370E-32
   0.4881455379228199E+00
   0.5393405020759878E-32
   0.4878245185054130E+00
   0.5106889839259731E-32
   0.4449022026058366E+00
   0.7268772421029878E-32
   0.4700099664054334E+00
   0.6046674720277117E-32
   0.4891756201711640E+00
   0.4249558945939737E-32
   0.4885980866242058E+00
   0.3779646162469804E-32
   0.4510286412384683E+00
   0.6971803297025405E-32
   0.4681799610870991E+00
   0.7060117081312831E-32
   0.4876648975168922E+00
   0.3927188959139911E-32
   0.4868253758020700E+00
   0.3666905717615609E-32
   0.4909267533067791E+00
   0.3420309035146272E-32
   0.4793946319309051E+00
   0.5107583312583329E-32
   0.4657884653235310E+00
   0.5862537614668332E-32
   0.3794302312466282E+00
   0.7296152599707962E-32
   0.4903697421068035E+00
   0.7230864070722298E-32
   0.4487929174591135E+00
   0.7024337334657865E-32
   0.4432385355146528E+00
   0.7388120666088937E-32
   0.4845729179180123E+00
   0.5092449168323165E-32
   0.4621884481230253E+00
   0.6649248659002533E-32
   0.4663602298821457E+00
   0.7123693637494982E-32
   0.4747774268384314E+00
   0.5571550521336913E-32
   0.4893613111949480E+00
   0.3054823691587988E-32
   0.5085681474525523E+00
   0.2624512165881100E-32
   0.4304904287052720E+00
  -0.3168527006498389E-32
   0.4927280753845448E+00
   0.4554831343660912E-32
   0.5320316185122077E+00
   0.5237398576383843E-32
   0.4913826501723770E+00
   0.5321048425578652E-32
   0.5209404404611953E+00
   0.5870863753816384E-32
   0.5061319828037623E+00
   0.4869505399725421E-32
   0.5690636320484882E+00
   0.1582839241429597E-32
   0.5275039918499673E+00
   0.3914318472577405E-32
   0.5015047795271234E+00
   0.4327611117790801E-32
   0.5821373618550293E+00
  -0.2805214622497050E-33
   0.5691503700150757E+00
  -0.1848777403582629E-32
   0.3402452490584020E+00
  -0.1556042432939447E-32
   0.3785432685513290E+00
  -0.2577146947915927E-32
   0.5753091283257328E+00
   0.2705170202917782E-32
   0.5668547247078697E+00
   0.3830471727129525E-32
   0.5703055450884125E+00
   0.3986171989056285E-32
   0.5291879661538433E+00
   0.5224543408184572E-32
   0.5449833828586481E+00
   0.5468110175807586E-32
   0.5719093999180256E+00
   0.4826163695187376E-32
   0.5385694587039087E+00
   0.6616335139785387E-32
   0.5475896936818102E+00
   0.5618753220396412E-32
   0.5821565652872550E+00
   0.3600789404124720E-32
   0.4925313045941636E+00
   0.5207969872543648E-32
   0.5041557177606212E+00
   0.5013841117552504E-32
   0.4961299804084139E+00
   0.5364508759826366E-32
   0.5562803684715480E+00
   0.4817565619875759E-32
   0.4757814624136991E+00
   0.1613543924650189E-32
   0.4950174786287627E+00
   0.4928605949647822E-32
   0.5496174671906479E+00
   0.4284599447654493E-32
   0.5889519110689347E+00
   0.6118467465991211E-33
   0.5839568630927727E+00
   0.2241903649444624E-32
   0.5468163497855141E+00
   0.3516097485077561E-32
   0.5803877175562164E+00
  -0.3399719634552498E-33
   0.5106055693623714E+00
   0.4849788363359223E-32
   0.5029532236583070E+00
   0.5118273517799821E-32
   0.5033085380544348E+00
   0.4090057814442649E-32
   0.5676232052848272E+00
   0.6251319156837135E-33
   0.5564629528825711E+00
   0.4139139754355831E-32
   0.4947135441238648E+00
   0.4851212139044177E-32
   0.5506799461272126E+00
   0.6374408471168812E-32
   0.5513545696792000E+00