# vtk DataFile Version 2.0
FUN3D:global_image_vtk
ASCII
DATASET UNSTRUCTURED_GRID
POINTS 1331 double
    0.0000000000000000E+00    0.2500000000000000E+01    0.0000000000000000E+00
    0.5000000000000000E+00    0.2500000000000000E+01    0.0000000000000000E+00
    0.1000000000000000E+01    0.2500000000000000E+01    0.0000000000000000E+00
    0.1500000000000000E+01    0.2500000000000000E+01    0.0000000000000000E+00
    0.2000000000000000E+01    0.2500000000000000E+01    0.0000000000000000E+00
    0.2500000000000000E+01    0.2500000000000000E+01    0.0000000000000000E+00
    0.3000000000000000E+01    0.2500000000000000E+01    0.0000000000000000E+00
    0.3500000000000000E+01    0.2500000000000000E+01    0.0000000000000000E+00
    0.4000000000000000E+01    0.2500000000000000E+01    0.0000000000000000E+00
    0.4500000000000000E+01    0.2500000000000000E+01    0.0000000000000000E+00
    0.5000000000000000E+01    0.2500000000000000E+01    0.0000000000000000E+00
    0.0000000000000000E+00    0.2500000000000000E+01    0.4999999999999982E+00
    0.4999999999999998E+00    0.2500000000000000E+01    0.4999999999999984E+00
    0.9999999999999998E+00    0.2500000000000000E+01    0.4999999999999987E+00
    0.1500000000000000E+01    0.2500000000000000E+01    0.4999999999999989E+00
    0.2000000000000000E+01    0.2500000000000000E+01    0.4999999999999991E+00
    0.2500000000000000E+01    0.2500000000000000E+01    0.4999999999999993E+00
    0.3000000000000000E+01    0.2500000000000000E+01    0.4999999999999996E+00
    0.3500000000000000E+01    0.2500000000000000E+01    0.4999999999999998E+00
    0.4000000000000000E+01    0.2500000000000000E+01    0.5000000000000000E+00
    0.4500000000000002E+01    0.2500000000000000E+01    0.5000000000000002E+00
    0.5000000000000000E+01    0.2500000000000000E+01    0.5000000000000004E+00
    0.0000000000000000E+00    0.2500000000000000E+01    0.1000000000000001E+01
    0.4999999999999997E+00    0.2500000000000000E+01    0.1000000000000001E+01
    0.1000000000000000E+01    0.2500000000000000E+01    0.1000000000000001E+01
    0.1500000000000000E+01    0.2500000000000000E+01    0.1000000000000001E+01
    0.2000000000000000E+01    0.2500000000000000E+01    0.1000000000000001E+01
    0.2500000000000000E+01    0.2500000000000000E+01    0.1000000000000001E+01
    0.3000000000000000E+01    0.2500000000000000E+01    0.1000000000000001E+01
    0.3500000000000000E+01    0.2500000000000000E+01    0.1000000000000001E+01
    0.4000000000000000E+01    0.2500000000000000E+01    0.1000000000000001E+01
    0.4499999999999999E+01    0.2500000000000000E+01    0.1000000000000001E+01
    0.5000000000000000E+01    0.2500000000000000E+01    0.1000000000000001E+01
    0.0000000000000000E+00    0.2500000000000000E+01    0.1499999999999999E+01
    0.4999999999999994E+00    0.2500000000000000E+01    0.1499999999999999E+01
    0.1000000000000000E+01    0.2500000000000000E+01    0.1499999999999999E+01
    0.1500000000000000E+01    0.2500000000000000E+01    0.1499999999999999E+01
    0.2000000000000001E+01    0.2500000000000000E+01    0.1499999999999999E+01
    0.2500000000000000E+01    0.2500000000000000E+01    0.1499999999999999E+01
    0.2999999999999999E+01    0.2500000000000000E+01    0.1499999999999999E+01
    0.3500000000000000E+01    0.2500000000000000E+01    0.1499999999999999E+01
    0.4000000000000001E+01    0.2500000000000000E+01    0.1499999999999999E+01
    0.4500000000000001E+01    0.2500000000000000E+01    0.1499999999999999E+01
    0.5000000000000000E+01    0.2500000000000000E+01    0.1499999999999999E+01
    0.0000000000000000E+00    0.2500000000000000E+01    0.2000000000000002E+01
    0.4999999999999992E+00    0.2500000000000000E+01    0.2000000000000001E+01
    0.1000000000000000E+01    0.2500000000000000E+01    0.2000000000000001E+01
    0.1500000000000000E+01    0.2500000000000000E+01    0.2000000000000001E+01
    0.2000000000000001E+01    0.2500000000000000E+01    0.2000000000000001E+01
    0.2500000000000000E+01    0.2500000000000000E+01    0.2000000000000001E+01
    0.2999999999999999E+01    0.2500000000000000E+01    0.2000000000000000E+01
    0.3500000000000000E+01    0.2500000000000000E+01    0.2000000000000000E+01
    0.4000000000000000E+01    0.2500000000000000E+01    0.2000000000000000E+01
    0.4500000000000000E+01    0.2500000000000000E+01    0.2000000000000000E+01
    0.5000000000000000E+01    0.2500000000000000E+01    0.2000000000000000E+01
    0.0000000000000000E+00    0.2500000000000000E+01    0.2500000000000000E+01
    0.4999999999999991E+00    0.2500000000000000E+01    0.2500000000000000E+01
    0.1000000000000000E+01    0.2500000000000000E+01    0.2500000000000000E+01
    0.1500000000000000E+01    0.2500000000000000E+01    0.2500000000000000E+01
    0.2000000000000001E+01    0.2500000000000000E+01    0.2500000000000000E+01
    0.2500000000000000E+01    0.2500000000000000E+01    0.2500000000000000E+01
    0.2999999999999999E+01    0.2500000000000000E+01    0.2500000000000000E+01
    0.3500000000000001E+01    0.2500000000000000E+01    0.2500000000000000E+01
    0.4000000000000000E+01    0.2500000000000000E+01    0.2500000000000000E+01
    0.4500000000000001E+01    0.2500000000000000E+01    0.2500000000000000E+01
    0.5000000000000000E+01    0.2500000000000000E+01    0.2500000000000000E+01
    0.0000000000000000E+00    0.2500000000000000E+01    0.2999999999999998E+01
    0.4999999999999989E+00    0.2500000000000000E+01    0.2999999999999998E+01
    0.1000000000000000E+01    0.2500000000000000E+01    0.2999999999999999E+01
    0.1499999999999999E+01    0.2500000000000000E+01    0.2999999999999999E+01
    0.2000000000000001E+01    0.2500000000000000E+01    0.2999999999999999E+01
    0.2500000000000000E+01    0.2500000000000000E+01    0.2999999999999999E+01
    0.2999999999999999E+01    0.2500000000000000E+01    0.2999999999999999E+01
    0.3500000000000001E+01    0.2500000000000000E+01    0.3000000000000000E+01
    0.4000000000000000E+01    0.2500000000000000E+01    0.3000000000000000E+01
    0.4500000000000001E+01    0.2500000000000000E+01    0.3000000000000000E+01
    0.5000000000000000E+01    0.2500000000000000E+01    0.3000000000000000E+01
    0.0000000000000000E+00    0.2500000000000000E+01    0.3500000000000001E+01
    0.4999999999999988E+00    0.2500000000000000E+01    0.3500000000000001E+01
    0.1000000000000001E+01    0.2500000000000000E+01    0.3500000000000001E+01
    0.1499999999999999E+01    0.2500000000000000E+01    0.3500000000000001E+01
    0.2000000000000001E+01    0.2500000000000000E+01    0.3500000000000001E+01
    0.2500000000000000E+01    0.2500000000000000E+01    0.3500000000000001E+01
    0.2999999999999999E+01    0.2500000000000000E+01    0.3500000000000001E+01
    0.3500000000000001E+01    0.2500000000000000E+01    0.3500000000000001E+01
    0.4000000000000001E+01    0.2500000000000000E+01    0.3500000000000001E+01
    0.4500000000000001E+01    0.2500000000000000E+01    0.3500000000000001E+01
    0.5000000000000000E+01    0.2500000000000000E+01    0.3500000000000001E+01
    0.0000000000000000E+00    0.2500000000000000E+01    0.3999999999999999E+01
    0.4999999999999986E+00    0.2500000000000000E+01    0.4000000000000000E+01
    0.1000000000000001E+01    0.2500000000000000E+01    0.3999999999999999E+01
    0.1499999999999999E+01    0.2500000000000000E+01    0.3999999999999999E+01
    0.2000000000000001E+01    0.2500000000000000E+01    0.3999999999999999E+01
    0.2500000000000000E+01    0.2500000000000000E+01    0.3999999999999999E+01
    0.2999999999999998E+01    0.2500000000000000E+01    0.3999999999999999E+01
    0.3500000000000001E+01    0.2500000000000000E+01    0.3999999999999999E+01
    0.3999999999999999E+01    0.2500000000000000E+01    0.3999999999999999E+01
    0.4500000000000003E+01    0.2500000000000000E+01    0.3999999999999999E+01
    0.5000000000000000E+01    0.2500000000000000E+01    0.3999999999999999E+01
    0.0000000000000000E+00    0.2500000000000000E+01    0.4500000000000002E+01
    0.4999999999999984E+00    0.2500000000000000E+01    0.4500000000000002E+01
    0.1000000000000001E+01    0.2500000000000000E+01    0.4500000000000001E+01
    0.1499999999999999E+01    0.2500000000000000E+01    0.4500000000000003E+01
    0.2000000000000002E+01    0.2500000000000000E+01    0.4500000000000001E+01
    0.2500000000000000E+01    0.2500000000000000E+01    0.4500000000000001E+01
    0.2999999999999998E+01    0.2500000000000000E+01    0.4500000000000001E+01
    0.3500000000000001E+01    0.2500000000000000E+01    0.4499999999999999E+01
    0.3999999999999999E+01    0.2500000000000000E+01    0.4499999999999999E+01
    0.4500000000000002E+01    0.2500000000000000E+01    0.4500000000000000E+01
    0.5000000000000000E+01    0.2500000000000000E+01    0.4500000000000000E+01
    0.0000000000000000E+00    0.2500000000000000E+01    0.5000000000000000E+01
    0.4999999999999982E+00    0.2500000000000000E+01    0.5000000000000000E+01
    0.1000000000000001E+01    0.2500000000000000E+01    0.5000000000000000E+01
    0.1499999999999999E+01    0.2500000000000000E+01    0.5000000000000000E+01
    0.2000000000000002E+01    0.2500000000000000E+01    0.5000000000000000E+01
    0.2500000000000000E+01    0.2500000000000000E+01    0.5000000000000000E+01
    0.2999999999999998E+01    0.2500000000000000E+01    0.5000000000000000E+01
    0.3500000000000001E+01    0.2500000000000000E+01    0.5000000000000000E+01
    0.3999999999999999E+01    0.2500000000000000E+01    0.5000000000000000E+01
    0.4500000000000002E+01    0.2500000000000000E+01    0.5000000000000000E+01
    0.5000000000000000E+01    0.2500000000000000E+01    0.5000000000000000E+01
    0.0000000000000000E+00    0.2000000000000000E+01    0.0000000000000000E+00
    0.5000000000000000E+00    0.2000000000000000E+01    0.0000000000000000E+00
    0.1000000000000000E+01    0.2000000000000000E+01    0.0000000000000000E+00
    0.1500000000000000E+01    0.2000000000000000E+01    0.0000000000000000E+00
[...]
POINT_DATA 1331
SCALARS rho double 1
LOOKUP_TABLE default
   0.1822841704947138E+01
   0.8026094913733467E+00
   0.8627140181447716E+00
   0.1000982248597889E+01
   0.1006744241897956E+01
   0.9914563309595833E+00
   0.9931427704693619E+00
   0.9995282569336644E+00
   0.9929914937605810E+00
   0.9054668957554001E+00
   0.5956789370374598E+00
   0.1117311239104117E+01
   0.9418150467735735E+00
   0.9964361051310051E+00
   0.1001309169198181E+01
   0.1003971171322426E+01
   0.1001227108568952E+01
   0.1001148201870719E+01
   0.9985309823376221E+00
   0.9961024179361320E+00
   0.9881568893018244E+00
   0.9977157991989578E+00
   0.1052200195478781E+01
   0.9794789490109189E+00
   0.9764887801764892E+00
   0.9872485687435205E+00
   0.9931419794692355E+00
   0.9919523699157856E+00
   0.9921188254739493E+00
   0.9930227741454668E+00
   0.9901712088041079E+00
   0.9930111903834483E+00
   0.9770249863414316E+00
   0.1026243249852019E+01
   0.1000532646743760E+01
   0.9967186894482823E+00
   0.9938547591515934E+00
   0.9946360878489207E+00
   0.9941511252009174E+00
   0.9942835862083548E+00
   0.9947557355439131E+00
   0.9954419636967625E+00
   0.1000074828697475E+01
   0.1002032147288139E+01
   0.1009870445717970E+01
   0.1002186790448921E+01
   0.9979464319962670E+00
   0.9968522832456789E+00
   0.9971722799394549E+00
   0.9969135123608405E+00
   0.9969849858181824E+00
   0.9976399772847874E+00
   0.9977353833719468E+00
   0.1000261775915541E+01
   0.1001412300835050E+01
   0.1004082324850328E+01
   0.1002177762613563E+01
   0.9998983163714881E+00
   0.9983566655384559E+00
   0.9978976542918100E+00
   0.9976542325668512E+00
   0.9977133062064801E+00
   0.9983088533996628E+00
   0.9988710266731027E+00
   0.1000456911343480E+01
   0.1001733150871491E+01
   0.1001521470804538E+01
   0.1001082116383142E+01
   0.9997895756605740E+00
   0.9989913115343133E+00
   0.9985799084001283E+00
   0.9983863224263356E+00
   0.9983812281584121E+00
   0.9987610983834060E+00
   0.9991145005603733E+00
   0.9999561346781999E+00
   0.1000775923786624E+01
   0.1000683776529499E+01
   0.1000636691695479E+01
   0.9999248379394110E+00
   0.9993519344999992E+00
   0.9989629732336360E+00
   0.9987830847207608E+00
   0.9987696293862270E+00
   0.9990568642877723E+00
   0.9994057565490253E+00
   0.9999128636875643E+00
   0.1000447484179530E+01
   0.1000263292895555E+01
   0.1000272673423071E+01
   0.9998803757417012E+00
   0.9995364754351870E+00
   0.9992484697997287E+00
   0.9991035025199069E+00
   0.9990575717295328E+00
   0.9991941351903310E+00
   0.9994318293829567E+00
   0.9997948878726803E+00
   0.1000196459187511E+01
   0.1000106508870225E+01
   0.1000132554962275E+01
   0.9999084133271299E+00
   0.9996583339252337E+00
   0.9994129512152476E+00
   0.9992762920189066E+00
   0.9992351096165194E+00
   0.9993091115357647E+00
   0.9994593888765737E+00
   0.9997212954714434E+00
   0.1000043947272743E+01
   0.1000045003059368E+01
   0.1000094316298185E+01
   0.9999620741065895E+00
   0.9997702870072978E+00
   0.9995506854778693E+00
   0.9993641939456076E+00
   0.9992450822774297E+00
   0.9992822174011685E+00
   0.9994474037589665E+00
   0.9996827767495008E+00
   0.9999819377451965E+00
   0.1820835571166877E+01
   0.8020774337333836E+00
   0.8628396749918545E+00
   0.1001004968960233E+01
   0.1006769221618216E+01
   0.9914650855494074E+00
   0.9931457963316850E+00
   0.9995146317039054E+00
   0.9929723113563151E+00
   0.9054522147247309E+00
   0.5955807299131936E+00
   0.1114400930649965E+01
   0.9411054082408322E+00
   0.9974232281548678E+00
   0.1001384099875504E+01
   0.1004149201405590E+01
   0.1001361596286518E+01
   0.1001323395251714E+01
   0.9985709275098924E+00
   0.9960130970119401E+00
   0.9879656725919788E+00
   0.9980750037075948E+00
   0.1051859008179144E+01
   0.9794176652260292E+00
   0.9767245385225388E+00
   0.9872459451293186E+00
   0.9931630265767784E+00
   0.9919483275419124E+00
   0.9921130621828231E+00
   0.9930161391621801E+00
   0.9901672448595187E+00
   0.9930815732050425E+00
   0.9772674497754935E+00
   0.1026030819631194E+01
   0.1000420151163343E+01
   0.9968246058850766E+00
   0.9938959199735846E+00
   0.9946897127269667E+00
   0.9942022889500365E+00
   0.9943307660577027E+00
   0.9947731214787370E+00
   0.9954436466675658E+00
   0.1000056535435309E+01
   0.1002043458462145E+01
   0.1009800675032148E+01
   0.1002085508727206E+01
   0.9979300588125715E+00
   0.9968509697877669E+00
   0.9971750487379155E+00
   0.9969038945033697E+00
   0.9969916524697585E+00
   0.9976669053120566E+00
   0.9977491834774855E+00
   0.1000245982418209E+01
   0.1001404927212471E+01
   0.1004065646098820E+01
   0.1002132245085454E+01
   0.9998675676711276E+00
   0.9983369638210089E+00
   0.9979031616671895E+00
   0.9976591827717859E+00
   0.9976873387095802E+00
   0.9982820977954934E+00
   0.9988901624067994E+00
   0.1000473231722161E+01
   0.1001725746907153E+01
   0.1001512307438913E+01
   0.1001062986070832E+01
   0.9997713054026183E+00
   0.9989681805722948E+00
   0.9985619108273083E+00
   0.9983902440049689E+00
   0.9983907492223069E+00
   0.9987357099954316E+00
   0.9990774895427841E+00
   0.9999617255251806E+00
   0.1000816585624027E+01
   0.1000678283732870E+01
   0.1000627186221711E+01
   0.9999155033238166E+00
   0.9993413053160896E+00
   0.9989479143394868E+00
   0.9987704486711079E+00
   0.9987747656247182E+00
   0.9990682273568128E+00
   0.9993937749725569E+00
   0.9998833476655008E+00
   0.1000411579707507E+01
   0.1000260413070872E+01
   0.1000267018548214E+01
   0.9998735988438242E+00
   0.9995297823491356E+00
   0.9992393309280632E+00
   0.9990893639085308E+00
   0.9990443017297149E+00
   0.9991908196744599E+00
   0.9994331761751020E+00
   0.9997923089637536E+00
   0.1000196184922723E+01
   0.1000105315728627E+01
   0.1000129405291097E+01
   0.9999038351944542E+00
   0.9996541186908054E+00
   0.9994087201255266E+00
   0.9992692837982263E+00
   0.9992244861538044E+00
   0.9993014383594067E+00
   0.9994604352461155E+00
   0.9997206642493953E+00
   0.1000038159449779E+01
   0.1000044242944586E+01
   0.1000092648270840E+01
   0.9999582177701843E+00
   0.9997635455040994E+00
   0.9995434014952793E+00
   0.9993588952762340E+00
   0.9992401714596066E+00
   0.9992726175722892E+00
   0.9994336247111714E+00
   0.9996768084464664E+00
   0.9999887821117883E+00
   0.1820484501608438E+01
   0.8022003130593208E+00
   0.8629254403191683E+00
   0.1000937267212722E+01
   0.1006721747238202E+01
   0.9914386320548656E+00
   0.9931227382625957E+00
   0.9994883506795418E+00
   0.9929613323925802E+00
   0.9054511886797020E+00
   0.5955543457292597E+00
   0.1114402205293808E+01
   0.9414683664400056E+00
   0.9974591316338023E+00
   0.1001344806320805E+01
   0.1004147998535067E+01
   0.1001339941298589E+01
   0.1001314168325266E+01
   0.9986051330798795E+00
   0.9960778025129018E+00
   0.9880358685833436E+00
   0.9980997473596166E+00
   0.1051928072931643E+01
   0.9795441238629798E+00
   0.9767373716921809E+00
   0.9872157027313014E+00
   0.9931516325645290E+00
   0.9919504715614152E+00
   0.9921215782336351E+00
   0.9930176372384335E+00
   0.9901742119696504E+00
   0.9931207139788287E+00
   0.9773122509617822E+00
   0.1026049196658985E+01
   0.1000499430030981E+01
   0.9968464510276901E+00
   0.9938903398116132E+00
   0.9946783763382228E+00
   0.9941783444713536E+00
   0.9943148142354552E+00
   0.9947765246322582E+00
   0.9954523785678806E+00
   0.1000063849161769E+01
   0.1002045131620220E+01
   0.1009813415207811E+01
   0.1002133042335578E+01
   0.9979558577616274E+00
   0.9968527784915184E+00
   0.9971809558690818E+00
   0.9969187300456593E+00
   0.9969916378303310E+00
   0.9976449140040767E+00
   0.9977407140377356E+00
   0.1000261085012934E+01
   0.1001418895515098E+01
   0.1004068206090166E+01
   0.1002156028270528E+01
   0.9998928967927873E+00
   0.9983491942754958E+00
   0.9978947208611826E+00
   0.9976514586490212E+00
   0.9977123258301002E+00
   0.9983071253740704E+00
   0.9988689600487931E+00
   0.1000451547997337E+01
   0.1001729991834885E+01
   0.1001517758108742E+01
   0.1001073492628592E+01
   0.9997846595252863E+00
   0.9989860630631680E+00
   0.9985762474190848E+00
   0.9983828279818017E+00
   0.9983787081549002E+00
   0.9987588100432037E+00
   0.9991127763878586E+00
   0.9999531971550931E+00
   0.1000772298575737E+01
   0.1000682535029440E+01
   0.1000633548171114E+01
   0.9999220250157231E+00
   0.9993486014079294E+00
   0.9989600560798357E+00
   0.9987801728584830E+00
   0.9987670873952706E+00
   0.9990543481946457E+00
   0.9994035247805820E+00
   0.9999106995678297E+00
   0.1000445686053654E+01
   0.1000262697458306E+01
   0.1000271376316778E+01
   0.9998789087851208E+00
   0.9995345838566952E+00
   0.9992465079347284E+00
   0.9991013998207061E+00
   0.9990555590103631E+00
   0.9991921384990490E+00
   0.9994299376779026E+00
   0.9997932860225972E+00
   0.1000195560771703E+01
   0.1000106216564889E+01
   0.1000131950694648E+01
   0.9999075933043329E+00
   0.9996571959237079E+00
   0.9994116159706961E+00
   0.9992747350970009E+00
   0.9992334544040518E+00
   0.9993074402923117E+00
   0.9994578794533397E+00
   0.9997201861380783E+00
   0.1000043375263652E+01
   0.1000044881347049E+01
   0.1000093952707322E+01
   0.9999614960080900E+00
   0.9997694568196188E+00
   0.9995496695053776E+00
   0.9993629670620364E+00
   0.9992436294299702E+00
   0.9992805389550452E+00
   0.9994457730984789E+00
   0.9996816830539831E+00
   0.9999813451078954E+00
   0.1820551412771498E+01
   0.8023299871166110E+00
   0.8630744464887368E+00
   0.1000947526388216E+01
   0.1006705820023428E+01
   0.9914291481048466E+00
   0.9931237121187100E+00
   0.9994969416975780E+00
   0.9929763144656509E+00
   0.9054808758433390E+00
   0.5955960646819194E+00
   0.1114178066979115E+01
   0.9413794595101805E+00
   0.9976112524749243E+00
   0.1001342470399049E+01
   0.1004150910324872E+01
   0.1001341432431975E+01
   0.1001311266480992E+01
   0.9985533452446635E+00
   0.9960051287215248E+00
   0.9879927254827151E+00
   0.9981318911515229E+00
   0.1051861002372601E+01
   0.9795387005422199E+00
   0.9767989791250735E+00
   0.9872373135861569E+00
   0.9931697861160701E+00
   0.9919465067566915E+00
   0.9921178718593884E+00
   0.9930218448887088E+00
   0.9901820451630214E+00
   0.9931075350116275E+00
   0.9772876341923756E+00
   0.1026000706471886E+01
   0.1000466681844115E+01
   0.9968730570075646E+00
   0.9938961087386644E+00
   0.9946913069743525E+00
   0.9941930783661713E+00
   0.9943224384691511E+00
   0.9947631278177822E+00
   0.9954366694691660E+00
   0.1000056638925281E+01
   0.1002051474916123E+01
   0.1009792219133829E+01
   0.1002104267566781E+01
   0.9979573605233070E+00
   0.9968597727532320E+00
   0.9971824242989747E+00
   0.9969046646258304E+00
   0.9969916180967089E+00
   0.9976652043175827E+00
   0.9977470665418721E+00
   0.1000245427264860E+01
   0.1001406234747680E+01
   0.1004063353834865E+01
   0.1002139750623621E+01
   0.9998825213362582E+00
   0.9983444771900328E+00
   0.9979092249746355E+00
   0.9976609734009635E+00
   0.9976879615782304E+00
   0.9982819679600772E+00
   0.9988902884224458E+00
   0.1000472909216921E+01
   0.1001726613163314E+01
   0.1001512538146767E+01
   0.1001066083097736E+01
   0.9997791407929472E+00
   0.9989742575808551E+00
   0.9985676205619777E+00
   0.9983937599053384E+00
   0.9983929067893003E+00
   0.9987365742344743E+00
   0.9990784889985529E+00
   0.9999633841181468E+00
   0.1000818684788453E+01
   0.1000678891197616E+01
   0.1000628673722595E+01
   0.9999194135977453E+00
   0.9993450202004562E+00
   0.9989518378281206E+00
   0.9987737057146135E+00
   0.9987775651961067E+00
   0.9990701196831465E+00
   0.9993949602204215E+00
   0.9998842666057421E+00
   0.1000412031383080E+01
   0.1000260867536708E+01
   0.1000267822788236E+01
   0.9998756676252766E+00
   0.9995321394594414E+00
   0.9992419862453550E+00
   0.9990918732935304E+00
   0.9990467682682482E+00
   0.9991930269123375E+00
   0.9994349015130385E+00
   0.9997932462877078E+00
   0.1000196339263255E+01
   0.1000105572927653E+01
   0.1000129857130517E+01
   0.9999049492659555E+00
   0.9996556130959290E+00
   0.9994106012314042E+00
   0.9992712978549091E+00
   0.9992265825838527E+00
   0.9993034698990445E+00
   0.9994622537876537E+00
   0.9997219206531734E+00
   0.1000038727354924E+01
   0.1000044356922952E+01
   0.1000092924093521E+01
   0.9999589637472065E+00
   0.9997647030569408E+00
   0.9995449351664902E+00
   0.9993606200328877E+00
   0.9992420069122336E+00
   0.9992745280409393E+00
   0.9994355707551086E+00
   0.9996783549150207E+00
   0.9999896263846799E+00
   0.1820583725629566E+01
   0.8023587603132559E+00
   0.8631064417667401E+00
   0.1000947243345484E+01
   0.1006703690848660E+01
   0.9914309619105257E+00
   0.9931208006843569E+00
   0.9994826317038938E+00
   0.9929625770928174E+00
   0.9054851947187439E+00
   0.5956275676603658E+00
   0.1114163270503105E+01
   0.9413569611711798E+00
   0.9976138722934433E+00
   0.1001351335567596E+01
   0.1004166443748488E+01
   0.1001329476846256E+01
   0.1001304213547204E+01
   0.9985716909340131E+00
   0.9960227769252665E+00
   0.9879507226489194E+00
   0.9980564669123764E+00
   0.1051855284650605E+01
   0.9795452293321693E+00
   0.9768055853106977E+00
   0.9872255035300005E+00
   0.9931644316238366E+00
   0.9919526446544074E+00
   0.9921264293031482E+00
   0.9930177780135121E+00
   0.9901754694682989E+00
   0.9931227794578377E+00
   0.9773260546059597E+00
   0.1025997409648673E+01
   0.1000469116700043E+01
   0.9968808169352185E+00
   0.9939026338628043E+00
   0.9946949008665491E+00
   0.9941842837344870E+00
   0.9943196907418251E+00
   0.9947738800376184E+00
   0.9954442922734580E+00
   0.1000045076940501E+01
   0.1002029429114613E+01
   0.1009793554048498E+01
   0.1002110775266879E+01
   0.9979589602868000E+00
   0.9968514828756313E+00
   0.9971850238271677E+00
   0.9969201830657436E+00
   0.9969939082364264E+00
   0.9976451577997499E+00
   0.9977402466735827E+00
   0.1000255937645915E+01
   0.1001412723308636E+01
   0.1004060539888798E+01
   0.1002144212874138E+01
   0.9998922178079344E+00
   0.9983468130295312E+00
   0.9978952457062735E+00
   0.9976508261630341E+00
   0.9977120560701270E+00
   0.9983051011722889E+00
   0.9988663455461214E+00
   0.1000447690277523E+01
   0.1001726951906936E+01
   0.1001514635138609E+01
   0.1001067157953848E+01
   0.9997820240450566E+00
   0.9989831735241865E+00
   0.9985750863401285E+00
   0.9983817437382592E+00
   0.9983784778879090E+00
   0.9987581700135665E+00
   0.9991113863005813E+00
   0.9999505159893050E+00
   0.1000769129044406E+01
   0.1000681151623262E+01
   0.1000630536318686E+01
   0.9999199826353455E+00
   0.9993461927147960E+00
   0.9989582285801333E+00
   0.9987782584670004E+00
   0.9987656465206437E+00
   0.9990532132353630E+00
   0.9994026199821451E+00
   0.9999092123967632E+00
   0.1000444126162296E+01
   0.1000261997062438E+01
   0.1000269841026959E+01
   0.9998774663380317E+00
   0.9995328758048679E+00
   0.9992449716972659E+00
   0.9990997115025080E+00
   0.9990538583858574E+00
   0.9991904765826949E+00
   0.9994287168773247E+00
   0.9997924355294019E+00
   0.1000195315487394E+01
   0.1000105861387905E+01
   0.1000131169764295E+01
   0.9999066413864024E+00
   0.9996559306730819E+00
   0.9994102651362738E+00
   0.9992732451856072E+00
   0.9992319235695856E+00
   0.9993058956587322E+00
   0.9994565426062730E+00
   0.9997192698449548E+00
   0.1000043201959750E+01
   0.1000044723738390E+01
   0.1000093459229154E+01
   0.9999607835654769E+00
   0.9997684438185620E+00
   0.9995484532502171E+00
   0.9993615618168525E+00
   0.9992421320942889E+00
   0.9992790235370417E+00
   0.9994444098634676E+00
   0.9996807072671098E+00
   0.9999811331602872E+00
   0.1820582388222449E+01
   0.8023589440573632E+00
   0.8631170866629627E+00
   0.1000950397548375E+01
   0.1006701641985330E+01
   0.9914265990017954E+00
   0.9931234840046161E+00
   0.9994968800451068E+00
   0.9929794410292209E+00
   0.9054924030100686E+00
   0.5956161077143319E+00
   0.1114145943328000E+01
   0.9413495104058621E+00
   0.9976320199504357E+00
   0.1001337853647930E+01
   0.1004154770425688E+01
   0.1001336900820675E+01
   0.1001309042260941E+01
   0.9985486442541390E+00
   0.9959976649809781E+00
   0.9879755585300294E+00
   0.9981227741715613E+00
   0.1051847263818201E+01
   0.9795395733843233E+00
   0.9768121778983091E+00
   0.9872346929441479E+00
   0.9931701019090188E+00
   0.9919433779286753E+00
   0.9921160614515762E+00
   0.9930197256645923E+00
   0.9901827971354106E+00
   0.9931087781227596E+00
   0.9772916310753914E+00
   0.1025991282038095E+01
   0.1000464919020616E+01
   0.9968843017713880E+00
   0.9938979286036258E+00
   0.9946945548107672E+00
   0.9941925776706886E+00
   0.9943226048741786E+00
   0.9947615997987742E+00
   0.9954343086430845E+00
   0.1000052454828523E+01
   0.1002049391529092E+01
   0.1009789308855346E+01
   0.1002103993369880E+01
   0.9979620015059032E+00
   0.9968598699218068E+00
   0.9971832391562582E+00
   0.9969034691367765E+00
   0.9969909138316068E+00
   0.9976647813951998E+00
   0.9977478306290362E+00
   0.1000245899205635E+01
   0.1001406050984125E+01
   0.1004062538040874E+01
   0.1002140117640706E+01
   0.9998860187668098E+00
   0.9983453611787743E+00
   0.9979099799761298E+00
   0.9976601685352894E+00
   0.9976868185007854E+00
   0.9982801855496313E+00
   0.9988886592600585E+00
   0.1000471386505933E+01
   0.1001725612839600E+01
   0.1001512445238381E+01
   0.1001066483099936E+01
   0.9997812900757644E+00
   0.9989755159659791E+00
   0.9985687639815747E+00
   0.9983940111926113E+00
   0.9983928864474506E+00
   0.9987362929462412E+00
   0.9990780816299369E+00
   0.9999625493959600E+00
   0.1000818777916213E+01
   0.1000679010469521E+01
   0.1000629025850090E+01
   0.9999207179011600E+00
   0.9993460801728677E+00
   0.9989528947748947E+00
   0.9987742726201436E+00
   0.9987777978435586E+00
   0.9990701241995779E+00
   0.9993952760513326E+00
   0.9998849424179242E+00
   0.1000413131559695E+01
   0.1000261031142423E+01
   0.1000268090572048E+01
   0.9998764464236868E+00
   0.9995329478632615E+00
   0.9992429008060395E+00
   0.9990926679146640E+00
   0.9990474093681169E+00
   0.9991933042697864E+00
   0.9994350504530880E+00
   0.9997936443256800E+00
   0.1000196475971090E+01
   0.1000105703027221E+01
   0.1000130059550288E+01
   0.9999054304918749E+00
   0.9996561981035603E+00
   0.9994113267073941E+00
   0.9992720580544013E+00
   0.9992273434174015E+00
   0.9993039857675923E+00
   0.9994624407378724E+00
   0.9997219326647739E+00
   0.1000038294630335E+01
   0.1000044415963702E+01
   0.1000093077100591E+01
   0.9999593460106510E+00
   0.9997651869024647E+00
   0.9995454630805090E+00
   0.9993611694012049E+00
   0.9992427581355419E+00
   0.9992755372050073E+00
   0.9994363711350869E+00
   0.9996783936143524E+00
   0.9999890024561415E+00
   0.1820582894831946E+01
   0.8023587640448214E+00
   0.8631064606902430E+00
   0.1000947244400543E+01
   0.1006703738481858E+01
   0.9914310356813180E+00
   0.9931208497204460E+00
   0.9994826197113409E+00
   0.9929624831659418E+00
   0.9054849964137757E+00
   0.5956272362379674E+00
   0.1114163075282792E+01
   0.9413569761574712E+00
   0.9976138126707083E+00
   0.1001351281467678E+01
   0.1004166380507437E+01
   0.1001329414540029E+01
   0.1001304148913958E+01
   0.9985716221882585E+00
   0.9960227060417529E+00
   0.9879506406965517E+00
   0.9980563998472884E+00
   0.1051855259179928E+01
   0.9795452539721097E+00
   0.9768056000073010E+00
   0.9872255149770369E+00
   0.9931644346613785E+00
   0.9919526481289811E+00
   0.9921264302379134E+00
   0.9930177771947621E+00
   0.9901754648796888E+00
   0.9931227727163170E+00
   0.9773260372038051E+00
   0.1025997376841937E+01
   0.1000469118958523E+01
   0.9968808182617958E+00
   0.9939026398521466E+00
   0.9946949044903117E+00
   0.9941842875982463E+00
   0.9943196929601484E+00
   0.9947738806807513E+00