# vtk DataFile Version 2.0
FUN3D:global_image_vtk
ASCII
DATASET UNSTRUCTURED_GRID
POINTS 1331 double
    0.0000000000000000E+00    0.2500000000000000E+01    0.0000000000000000E+00
    0.5000000000000000E+00    0.2500000000000000E+01    0.0000000000000000E+00
    0.1000000000000000E+01    0.2500000000000000E+01    0.0000000000000000E+00
    0.1500000000000000E+01    0.2500000000000000E+01    0.0000000000000000E+00
    0.2000000000000000E+01    0.2500000000000000E+01    0.0000000000000000E+00
    0.2500000000000000E+01    0.2500000000000000E+01    0.0000000000000000E+00
    0.3000000000000000E+01    0.2500000000000000E+01    0.0000000000000000E+00
    0.3500000000000000E+01    0.2500000000000000E+01    0.0000000000000000E+00
    0.4000000000000000E+01    0.2500000000000000E+01    0.0000000000000000E+00
    0.4500000000000000E+01    0.2500000000000000E+01    0.0000000000000000E+00
    0.5000000000000000E+01    0.2500000000000000E+01    0.0000000000000000E+00
    0.0000000000000000E+00    0.2500000000000000E+01    0.4999999999999982E+00
    0.4999999999999998E+00    0.2500000000000000E+01    0.4999999999999984E+00
    0.9999999999999998E+00    0.2500000000000000E+01    0.4999999999999987E+00
    0.1500000000000000E+01    0.2500000000000000E+01    0.4999999999999989E+00
    0.2000000000000000E+01    0.2500000000000000E+01    0.4999999999999991E+00
    0.2500000000000000E+01    0.2500000000000000E+01    0.4999999999999993E+00
    0.3000000000000000E+01    0.2500000000000000E+01    0.4999999999999996E+00
    0.3500000000000000E+01    0.2500000000000000E+01    0.4999999999999998E+00
    0.4000000000000000E+01    0.2500000000000000E+01    0.5000000000000000E+00
    0.4500000000000002E+01    0.2500000000000000E+01    0.5000000000000002E+00
    0.5000000000000000E+01    0.2500000000000000E+01    0.5000000000000004E+00
    0.0000000000000000E+00    0.2500000000000000E+01    0.1000000000000001E+01
    0.4999999999999997E+00    0.2500000000000000E+01    0.1000000000000001E+01
    0.1000000000000000E+01    0.2500000000000000E+01    0.1000000000000001E+01
    0.1500000000000000E+01    0.2500000000000000E+01    0.1000000000000001E+01
    0.2000000000000000E+01    0.2500000000000000E+01    0.1000000000000001E+01
    0.2500000000000000E+01    0.2500000000000000E+01    0.1000000000000001E+01
    0.3000000000000000E+01    0.2500000000000000E+01    0.1000000000000001E+01
    0.3500000000000000E+01    0.2500000000000000E+01    0.1000000000000001E+01
    0.4000000000000000E+01    0.2500000000000000E+01    0.1000000000000001E+01
    0.4499999999999999E+01    0.2500000000000000E+01    0.1000000000000001E+01
    0.5000000000000000E+01    0.2500000000000000E+01    0.1000000000000001E+01
    0.0000000000000000E+00    0.2500000000000000E+01    0.1499999999999999E+01
    0.4999999999999994E+00    0.2500000000000000E+01    0.1499999999999999E+01
    0.1000000000000000E+01    0.2500000000000000E+01    0.1499999999999999E+01
    0.1500000000000000E+01    0.2500000000000000E+01    0.1499999999999999E+01
    0.2000000000000001E+01    0.2500000000000000E+01    0.1499999999999999E+01
    0.2500000000000000E+01    0.2500000000000000E+01    0.1499999999999999E+01
    0.2999999999999999E+01    0.2500000000000000E+01    0.1499999999999999E+01
    0.3500000000000000E+01    0.2500000000000000E+01    0.1499999999999999E+01
    0.4000000000000001E+01    0.2500000000000000E+01    0.1499999999999999E+01
    0.4500000000000001E+01    0.2500000000000000E+01    0.1499999999999999E+01
    0.5000000000000000E+01    0.2500000000000000E+01    0.1499999999999999E+01
    0.0000000000000000E+00    0.2500000000000000E+01    0.2000000000000002E+01
    0.4999999999999992E+00    0.2500000000000000E+01    0.2000000000000001E+01
    0.1000000000000000E+01    0.2500000000000000E+01    0.2000000000000001E+01
    0.1500000000000000E+01    0.2500000000000000E+01    0.2000000000000001E+01
    0.2000000000000001E+01    0.2500000000000000E+01    0.2000000000000001E+01
    0.2500000000000000E+01    0.2500000000000000E+01    0.2000000000000001E+01
    0.2999999999999999E+01    0.2500000000000000E+01    0.2000000000000000E+01
    0.3500000000000000E+01    0.2500000000000000E+01    0.2000000000000000E+01
    0.4000000000000000E+01    0.2500000000000000E+01    0.2000000000000000E+01
    0.4500000000000000E+01    0.2500000000000000E+01    0.2000000000000000E+01
    0.5000000000000000E+01    0.2500000000000000E+01    0.2000000000000000E+01
    0.0000000000000000E+00    0.2500000000000000E+01    0.2500000000000000E+01
    0.4999999999999991E+00    0.2500000000000000E+01    0.2500000000000000E+01
    0.1000000000000000E+01    0.2500000000000000E+01    0.2500000000000000E+01
    0.1500000000000000E+01    0.2500000000000000E+01    0.2500000000000000E+01
    0.2000000000000001E+01    0.2500000000000000E+01    0.2500000000000000E+01
    0.2500000000000000E+01    0.2500000000000000E+01    0.2500000000000000E+01
    0.2999999999999999E+01    0.2500000000000000E+01    0.2500000000000000E+01
    0.3500000000000001E+01    0.2500000000000000E+01    0.2500000000000000E+01
    0.4000000000000000E+01    0.2500000000000000E+01    0.2500000000000000E+01
    0.4500000000000001E+01    0.2500000000000000E+01    0.2500000000000000E+01
    0.5000000000000000E+01    0.2500000000000000E+01    0.2500000000000000E+01
    0.0000000000000000E+00    0.2500000000000000E+01    0.2999999999999998E+01
    0.4999999999999989E+00    0.2500000000000000E+01    0.2999999999999998E+01
    0.1000000000000000E+01    0.2500000000000000E+01    0.2999999999999999E+01
    0.1499999999999999E+01    0.2500000000000000E+01    0.2999999999999999E+01
    0.2000000000000001E+01    0.2500000000000000E+01    0.2999999999999999E+01
    0.2500000000000000E+01    0.2500000000000000E+01    0.2999999999999999E+01
    0.2999999999999999E+01    0.2500000000000000E+01    0.2999999999999999E+01
    0.3500000000000001E+01    0.2500000000000000E+01    0.3000000000000000E+01
    0.4000000000000000E+01    0.2500000000000000E+01    0.3000000000000000E+01
    0.4500000000000001E+01    0.2500000000000000E+01    0.3000000000000000E+01
    0.5000000000000000E+01    0.2500000000000000E+01    0.3000000000000000E+01
    0.0000000000000000E+00    0.2500000000000000E+01    0.3500000000000001E+01
    0.4999999999999988E+00    0.2500000000000000E+01    0.3500000000000001E+01
    0.1000000000000001E+01    0.2500000000000000E+01    0.3500000000000001E+01
    0.1499999999999999E+01    0.2500000000000000E+01    0.3500000000000001E+01
    0.2000000000000001E+01    0.2500000000000000E+01    0.3500000000000001E+01
    0.2500000000000000E+01    0.2500000000000000E+01    0.3500000000000001E+01
    0.2999999999999999E+01    0.2500000000000000E+01    0.3500000000000001E+01
    0.3500000000000001E+01    0.2500000000000000E+01    0.3500000000000001E+01
    0.4000000000000001E+01    0.2500000000000000E+01    0.3500000000000001E+01
    0.4500000000000001E+01    0.2500000000000000E+01    0.3500000000000001E+01
    0.5000000000000000E+01    0.2500000000000000E+01    0.3500000000000001E+01
    0.0000000000000000E+00    0.2500000000000000E+01    0.3999999999999999E+01
    0.4999999999999986E+00    0.2500000000000000E+01    0.4000000000000000E+01
    0.1000000000000001E+01    0.2500000000000000E+01    0.3999999999999999E+01
    0.1499999999999999E+01    0.2500000000000000E+01    0.3999999999999999E+01
    0.2000000000000001E+01    0.2500000000000000E+01    0.3999999999999999E+01
    0.2500000000000000E+01    0.2500000000000000E+01    0.3999999999999999E+01
    0.2999999999999998E+01    0.2500000000000000E+01    0.3999999999999999E+01
    0.3500000000000001E+01    0.2500000000000000E+01    0.3999999999999999E+01
    0.3999999999999999E+01    0.2500000000000000E+01    0.3999999999999999E+01
    0.4500000000000003E+01    0.2500000000000000E+01    0.3999999999999999E+01
    0.5000000000000000E+01    0.2500000000000000E+01    0.3999999999999999E+01
    0.0000000000000000E+00    0.2500000000000000E+01    0.4500000000000002E+01
    0.4999999999999984E+00    0.2500000000000000E+01    0.4500000000000002E+01
    0.1000000000000001E+01    0.2500000000000000E+01    0.4500000000000001E+01
    0.1499999999999999E+01    0.2500000000000000E+01    0.4500000000000003E+01
    0.2000000000000002E+01    0.2500000000000000E+01    0.4500000000000001E+01
    0.2500000000000000E+01    0.2500000000000000E+01    0.4500000000000001E+01
    0.2999999999999998E+01    0.2500000000000000E+01    0.4500000000000001E+01
    0.3500000000000001E+01    0.2500000000000000E+01    0.4499999999999999E+01
    0.3999999999999999E+01    0.2500000000000000E+01    0.4499999999999999E+01
    0.4500000000000002E+01    0.2500000000000000E+01    0.4500000000000000E+01
    0.5000000000000000E+01    0.2500000000000000E+01    0.4500000000000000E+01
    0.0000000000000000E+00    0.2500000000000000E+01    0.5000000000000000E+01
    0.4999999999999982E+00    0.2500000000000000E+01    0.5000000000000000E+01
    0.1000000000000001E+01    0.2500000000000000E+01    0.5000000000000000E+01
    0.1499999999999999E+01    0.2500000000000000E+01    0.5000000000000000E+01
    0.2000000000000002E+01    0.2500000000000000E+01    0.5000000000000000E+01
    0.2500000000000000E+01    0.2500000000000000E+01    0.5000000000000000E+01
    0.2999999999999998E+01    0.2500000000000000E+01    0.5000000000000000E+01
    0.3500000000000001E+01    0.2500000000000000E+01    0.5000000000000000E+01
    0.3999999999999999E+01    0.2500000000000000E+01    0.5000000000000000E+01
    0.4500000000000002E+01    0.2500000000000000E+01    0.5000000000000000E+01
    0.5000000000000000E+01    0.2500000000000000E+01    0.5000000000000000E+01
    0.0000000000000000E+00    0.2000000000000000E+01    0.0000000000000000E+00
    0.5000000000000000E+00    0.2000000000000000E+01    0.0000000000000000E+00
    0.1000000000000000E+01    0.2000000000000000E+01    0.0000000000000000E+00
    0.1500000000000000E+01    0.2000000000000000E+01    0.0000000000000000E+00
[...]
POINT_DATA 1331
SCALARS rho double 1
LOOKUP_TABLE default
   0.1822842355410768E+01
   0.8026083318819389E+00
   0.8627105420215865E+00
   0.1000979357241721E+01
   0.1006742379922237E+01
   0.9914500639456229E+00
   0.9931317596234581E+00
   0.9995206820330087E+00
   0.9929931672977088E+00
   0.9054765321162459E+00
   0.5956897876487237E+00
   0.1117308160383486E+01
   0.9418173380975767E+00
   0.9964393210984850E+00
   0.1001305969064050E+01
   0.1003966832951724E+01
   0.1001228218932694E+01
   0.1001151553778110E+01
   0.9985316971665895E+00
   0.9961020343471496E+00
   0.9881684502875671E+00
   0.9977379937354313E+00
   0.1052200671573934E+01
   0.9794778689781821E+00
   0.9764859198711934E+00
   0.9872475942549628E+00
   0.9931434226818769E+00
   0.9919518067196781E+00
   0.9921123996015004E+00
   0.9930137926765032E+00
   0.9901679551600138E+00
   0.9930127772116074E+00
   0.9770247638340137E+00
   0.1026241436303702E+01
   0.1000534240017889E+01
   0.9967219204853047E+00
   0.9938548147927984E+00
   0.9946317627395315E+00
   0.9941491562526810E+00
   0.9942900986348816E+00
   0.9947653736125834E+00
   0.9954432018121189E+00
   0.1000065764259735E+01
   0.1002019160790664E+01
   0.1009871668421507E+01
   0.1002184016399990E+01
   0.9979431789921277E+00
   0.9968542987027056E+00
   0.9971760672988929E+00
   0.9969082242816166E+00
   0.9969714058765015E+00
   0.9976324139611851E+00
   0.9977409725018722E+00
   0.1000278431769978E+01
   0.1001438917254509E+01
   0.1004083076879373E+01
   0.1002179466658702E+01
   0.9998986002692088E+00
   0.9983538715296543E+00
   0.9978980834143907E+00
   0.9976610916690039E+00
   0.9977174816306029E+00
   0.9983066695509482E+00
   0.9988691671154446E+00
   0.1000448930250602E+01
   0.1001714963804905E+01
   0.1001520260649613E+01
   0.1001081313531524E+01
   0.9997893442627053E+00
   0.9989917444419875E+00
   0.9985773448052987E+00
   0.9983797033800109E+00
   0.9983731277140954E+00
   0.9987553630875251E+00
   0.9991170557917667E+00
   0.9999686426046072E+00
   0.1000798363443418E+01
   0.1000685328692566E+01
   0.1000638407445123E+01
   0.9999244251316545E+00
   0.9993471929033746E+00
   0.9989622886766727E+00
   0.9987949966179896E+00
   0.9987826124342500E+00
   0.9990494050878163E+00
   0.9993844758180254E+00
   0.9999038870404776E+00
   0.1000439895943422E+01
   0.1000261719933861E+01
   0.1000272272695576E+01
   0.9998809001399565E+00
   0.9995370626306989E+00
   0.9992435872372963E+00
   0.9990939122634560E+00
   0.9990556636808536E+00
   0.9992053189890757E+00
   0.9994397721219576E+00
   0.9997899808960429E+00
   0.1000185404890715E+01
   0.1000107830236201E+01
   0.1000132381456115E+01
   0.9999065368948561E+00
   0.9996625814201966E+00
   0.9994223657492813E+00
   0.9992749386171000E+00
   0.9992178154077226E+00
   0.9993014672072515E+00
   0.9994775141437240E+00
   0.9997406090320132E+00
   0.1000059187581165E+01
   0.1000043999049024E+01
   0.1000094673371510E+01
   0.9999634410830944E+00
   0.9997644746710307E+00
   0.9995379467813280E+00
   0.9993661757972547E+00
   0.9992687050203845E+00
   0.9992900947294627E+00
   0.9994184525338434E+00
   0.9996534849019950E+00
   0.9999688160167689E+00
   0.1820837888836893E+01
   0.8020774265294475E+00
   0.8628361436691365E+00
   0.1001001992417399E+01
   0.1006769180387721E+01
   0.9914616939512860E+00
   0.9931308884863828E+00
   0.9994915708068220E+00
   0.9929565520804750E+00
   0.9054559203516931E+00
   0.5956044010434309E+00
   0.1114407193417450E+01
   0.9411039379521956E+00
   0.9974218802520759E+00
   0.1001395450041783E+01
   0.1004159598249473E+01
   0.1001354413612882E+01
   0.1001314997308581E+01
   0.9985829501534180E+00
   0.9960292786033773E+00
   0.9879472964955748E+00
   0.9980332281843399E+00
   0.1051860562276332E+01
   0.9794191327024431E+00
   0.9767232242212274E+00
   0.9872378668634776E+00
   0.9931583631447772E+00
   0.9919546109315973E+00
   0.9921167496035931E+00
   0.9930041507160376E+00
   0.9901530453877881E+00
   0.9930922758046479E+00
   0.9772982486706432E+00
   0.1026030359620829E+01
   0.1000420447740594E+01
   0.9968287446059804E+00
   0.9939036427414325E+00
   0.9946897200080442E+00
   0.9941927170764454E+00
   0.9943311886950397E+00
   0.9947898801843363E+00
   0.9954516459248426E+00
   0.1000036987349309E+01
   0.1002008994042602E+01
   0.1009802631183448E+01
   0.1002085775138127E+01
   0.9979259348716812E+00
   0.9968455177459329E+00
   0.9971803659283768E+00
   0.9969159470739555E+00
   0.9969838547002381E+00
   0.9976393194213221E+00
   0.9977418603890951E+00
   0.1000268346526526E+01
   0.1001437892775813E+01
   0.1004062820085235E+01
   0.1002134497732347E+01
   0.9998737611908836E+00
   0.9983376771360496E+00
   0.9978916342295038E+00
   0.9976550347079367E+00
   0.9977130663333301E+00
   0.9983061763158436E+00
   0.9988705340202718E+00
   0.1000439397240537E+01
   0.1001702279201321E+01
   0.1001512076575863E+01
   0.1001060810501981E+01
   0.9997704973652218E+00
   0.9989747150120871E+00
   0.9985668595538372E+00
   0.9983753254182005E+00
   0.9983680009274618E+00
   0.9987447995749932E+00
   0.9991102182251151E+00
   0.9999694090437422E+00
   0.1000802496652341E+01
   0.1000680729610729E+01
   0.1000628850632667E+01
   0.9999138345514875E+00
   0.9993359788500873E+00
   0.9989507272135966E+00
   0.9987863401302253E+00
   0.9987799522406661E+00
   0.9990463976614606E+00
   0.9993759085378716E+00
   0.9998944354454374E+00
   0.1000432038140717E+01
   0.1000259213967557E+01
   0.1000267058121535E+01
   0.9998740587957379E+00
   0.9995300029453462E+00
   0.9992359106653658E+00
   0.9990844710697253E+00
   0.9990472651519398E+00
   0.9992011952002190E+00
   0.9994366955210153E+00
   0.9997846874345533E+00
   0.1000181364268441E+01
   0.1000106467548566E+01
   0.1000129539542755E+01
   0.9999021480478983E+00
   0.9996573416745451E+00
   0.9994167831694685E+00
   0.9992682968451320E+00
   0.9992104254025110E+00
   0.9992958238529104E+00
   0.9994739915470577E+00
   0.9997364161116987E+00
   0.1000054811416094E+01
   0.1000043347973378E+01
   0.1000092955333086E+01
   0.9999600733169548E+00
   0.9997592630777804E+00
   0.9995323429950494E+00
   0.9993617055358972E+00
   0.9992632311345030E+00
   0.9992807499489228E+00
   0.9994094300803967E+00
   0.9996514524736319E+00
   0.9999721893656122E+00
   0.1820485269262955E+01
   0.8021991630172859E+00
   0.8629219279757308E+00
   0.1000934356883993E+01
   0.1006719803887566E+01
   0.9914322709363542E+00
   0.9931116637825564E+00
   0.9994808472274846E+00
   0.9929628303503623E+00
   0.9054605788653463E+00
   0.5955656457920199E+00
   0.1114399217582762E+01
   0.9414706207821418E+00
   0.9974623455684037E+00
   0.1001341870133692E+01
   0.1004143748695684E+01
   0.1001340677971775E+01
   0.1001317231235044E+01
   0.9986059599709490E+00
   0.9960776124280873E+00
   0.9880478420873102E+00
   0.9981228361472210E+00
   0.1051928580748045E+01
   0.9795430680630203E+00
   0.9767344741483870E+00
   0.9872145564719691E+00
   0.9931529755254860E+00
   0.9919500858935308E+00
   0.9921153647339259E+00
   0.9930087507609383E+00
   0.9901708759145146E+00
   0.9931220591999710E+00
   0.9773115933904087E+00
   0.1026047366029283E+01
   0.1000501046497744E+01
   0.9968497218634020E+00
   0.9938904095849397E+00
   0.9946739918416273E+00
   0.9941762592407255E+00
   0.9943213202605654E+00
   0.9947861710512513E+00
   0.9954536972872097E+00
   0.1000055059402341E+01
   0.1002032422817598E+01
   0.1009814634018998E+01
   0.1002130270001990E+01
   0.9979526223586068E+00
   0.9968548074940567E+00
   0.9971847199403553E+00
   0.9969133771838092E+00
   0.9969780087174241E+00
   0.9976374910804945E+00
   0.9977461720071183E+00
   0.1000277303623095E+01
   0.1001445219504081E+01
   0.1004068965153278E+01
   0.1002157724489245E+01
   0.9998931805711037E+00
   0.9983464315702518E+00
   0.9978951862438588E+00
   0.9976583166098418E+00
   0.9977164011363084E+00
   0.9983048686574111E+00
   0.9988673666312864E+00
   0.1000443633702203E+01
   0.1001711575286368E+01
   0.1001516547737309E+01
   0.1001072693797584E+01
   0.9997844156076792E+00
   0.9989864768224423E+00
   0.9985736949668176E+00
   0.9983762670078139E+00
   0.9983706647222894E+00
   0.9987529787212137E+00
   0.9991152039186680E+00
   0.9999660215508667E+00
   0.1000795537979009E+01
   0.1000684085468193E+01
   0.1000635266164228E+01
   0.9999216166002023E+00
   0.9993438597972345E+00
   0.9989593580758261E+00
   0.9987920675170540E+00
   0.9987800942771253E+00
   0.9990469804490192E+00
   0.9993823386450085E+00
   0.9999018562804830E+00
   0.1000438097598871E+01
   0.1000261131517622E+01
   0.1000270973145313E+01
   0.9998794327395648E+00
   0.9995351831432324E+00
   0.9992416348716873E+00
   0.9990917811180247E+00
   0.9990535790089471E+00
   0.9992032789757532E+00
   0.9994379360722888E+00
   0.9997884560929359E+00
   0.1000184344917859E+01
   0.1000107538470290E+01
   0.1000131782909053E+01
   0.9999057175641848E+00
   0.9996614420921662E+00
   0.9994210421612387E+00
   0.9992734048149539E+00
   0.9992161684376749E+00
   0.9992997512180162E+00
   0.9994758862458155E+00
   0.9997393483446011E+00
   0.1000058511714588E+01
   0.1000043867642246E+01
   0.1000094315260646E+01
   0.9999628769824632E+00
   0.9997636378535862E+00
   0.9995368900735550E+00
   0.9993649146668484E+00
   0.9992672979394257E+00
   0.9992885397048386E+00
   0.9994168366621023E+00
   0.9996521833295886E+00
   0.9999681152172318E+00
   0.1820553840959664E+01
   0.8023299708339264E+00
   0.8630708541305712E+00
   0.1000944541814356E+01
   0.1006705750524287E+01
   0.9914256190980160E+00
   0.9931086041987619E+00
   0.9994739861329556E+00
   0.9929613990738972E+00
   0.9054851495940165E+00
   0.5956181744000340E+00
   0.1114184311704251E+01
   0.9413780106509785E+00
   0.9976099069271390E+00
   0.1001353719471213E+01
   0.1004161350848743E+01
   0.1001334517785485E+01
   0.1001303103639410E+01
   0.9985654568138481E+00
   0.9960209675175612E+00
   0.9879737242729095E+00
   0.9980900837800815E+00
   0.1051862597541040E+01
   0.9795401622898315E+00
   0.9767976288237187E+00
   0.9872292857441642E+00
   0.9931651883613911E+00
   0.9919527468132163E+00
   0.9921213609624704E+00
   0.9930096513281244E+00
   0.9901682312299314E+00
   0.9931191000167984E+00
   0.9773189587768696E+00
   0.1026000206273815E+01
   0.1000467004516219E+01
   0.9968772178725462E+00
   0.9939037644555542E+00
   0.9946912479509360E+00
   0.9941835972714900E+00
   0.9943230501374062E+00
   0.9947799101188455E+00
   0.9954439888683360E+00
   0.1000036162271546E+01
   0.1002017044151915E+01
   0.1009794196644684E+01
   0.1002104496930720E+01
   0.9979532188908162E+00
   0.9968544136432045E+00
   0.9971878173353164E+00
   0.9969166280311297E+00
   0.9969836326449820E+00
   0.9976376431129876E+00
   0.9977406539456789E+00
   0.1000268810430493E+01
   0.1001439324776742E+01
   0.1004060594681478E+01
   0.1002142021279423E+01
   0.9998886462129646E+00
   0.9983450756789510E+00
   0.9978977351900737E+00
   0.9976570287523771E+00
   0.9977138421591316E+00
   0.9983056779998932E+00
   0.9988698209382295E+00
   0.1000439071708187E+01
   0.1001703435797093E+01
   0.1001512280292533E+01
   0.1001063945272304E+01
   0.9997783866428563E+00
   0.9989807501407770E+00
   0.9985724264423463E+00
   0.9983787677703446E+00
   0.9983703468622096E+00
   0.9987460804937971E+00
   0.9991111134693610E+00
   0.9999699014099923E+00
   0.1000803100452822E+01
   0.1000681304440386E+01
   0.1000630328684702E+01
   0.9999177755729869E+00
   0.9993397545187159E+00
   0.9989546520716729E+00
   0.9987894808890068E+00
   0.9987825750744499E+00
   0.9990483085083242E+00
   0.9993774022354113E+00
   0.9998954698775725E+00
   0.1000432730026372E+01
   0.1000259661706451E+01
   0.1000267849252198E+01
   0.9998761210960883E+00
   0.9995323875282824E+00
   0.9992386186626737E+00
   0.9990870042454345E+00
   0.9990496637187234E+00
   0.9992032883322963E+00
   0.9994384602641899E+00
   0.9997858806867682E+00
   0.1000181976689369E+01
   0.1000106733851398E+01
   0.1000129986039349E+01
   0.9999032594569559E+00
   0.9996588415466605E+00
   0.9994186709496017E+00
   0.9992703084768367E+00
   0.9992124984984160E+00
   0.9992978192957258E+00
   0.9994758488506279E+00
   0.9997378163239972E+00
   0.1000055518062638E+01
   0.1000043479799306E+01
   0.1000093233792203E+01
   0.9999608034852313E+00
   0.9997603901588364E+00
   0.9995338667711477E+00
   0.9993634756468470E+00
   0.9992651520367642E+00
   0.9992826694720603E+00
   0.9994112685525496E+00
   0.9996529345653498E+00
   0.9999729674102953E+00
   0.1820584459423023E+01
   0.8023575880239341E+00
   0.8631029243747490E+00
   0.1000944337405402E+01
   0.1006701760990636E+01
   0.9914245687124102E+00
   0.9931096608155303E+00
   0.9994751152766301E+00
   0.9929643325607855E+00
   0.9054952075788313E+00
   0.5956397215058502E+00
   0.1114160268446379E+01
   0.9413592037497933E+00
   0.9976171970618267E+00
   0.1001348483732347E+01
   0.1004161983008117E+01
   0.1001329888730625E+01
   0.1001307214954110E+01
   0.9985729533008788E+00
   0.9960230762826612E+00
   0.9879626344763786E+00
   0.9980790052150446E+00
   0.1051855791626000E+01
   0.9795441736111219E+00
   0.9768026428660768E+00
   0.9872243234263768E+00
   0.9931658853673291E+00
   0.9919524404463479E+00
   0.9921202323172333E+00
   0.9930085484184774E+00
   0.9901717056528376E+00
   0.9931242655770637E+00
   0.9773260610865193E+00
   0.1025995561342466E+01
   0.1000470738277687E+01
   0.9968841253657096E+00
   0.9939027260541353E+00
   0.9946904225279845E+00
   0.9941820561545075E+00
   0.9943262515453661E+00
   0.9947838797876944E+00
   0.9954460530940479E+00
   0.1000036105009693E+01
   0.1002015585110666E+01
   0.1009794781103686E+01
   0.1002108007493320E+01
   0.9979557125463774E+00
   0.9968534864414252E+00
   0.9971888067562866E+00
   0.9969148764277611E+00
   0.9969802548416665E+00
   0.9976374808877575E+00
   0.9977452937550800E+00
   0.1000272364212808E+01
   0.1001440070827482E+01
   0.1004061247472350E+01
   0.1002145912095148E+01
   0.9998925682258816E+00
   0.9983441025643903E+00
   0.9978956195962096E+00
   0.9976575128645957E+00
   0.9977161362667513E+00
   0.9983032717741961E+00
   0.9988650943851277E+00
   0.1000439215138819E+01
   0.1001707573438382E+01
   0.1001513430162937E+01
   0.1001066315373909E+01
   0.9997817580678894E+00
   0.9989836940487762E+00
   0.9985726846462504E+00
   0.9983751424904858E+00
   0.9983700722341439E+00
   0.9987519850505452E+00
   0.9991141489284833E+00
   0.9999642484820463E+00
   0.1000793657630060E+01
   0.1000682737179988E+01
   0.1000632246209735E+01
   0.9999195175673121E+00
   0.9993414019273609E+00
   0.9989576105491136E+00
   0.9987903687722605E+00
   0.9987788012263548E+00
   0.9990456667704073E+00
   0.9993811563099083E+00
   0.9999006783335072E+00
   0.1000437187128512E+01
   0.1000260437381599E+01
   0.1000269458621008E+01
   0.9998779924090959E+00
   0.9995334118512834E+00
   0.9992400118602641E+00
   0.9990901022416881E+00
   0.9990520649640680E+00
   0.9992018277140604E+00
   0.9994366711061393E+00
   0.9997874122416702E+00
   0.1000183649072500E+01
   0.1000107179188348E+01
   0.1000131009756678E+01
   0.9999047753648627E+00
   0.9996601696181456E+00
   0.9994196590514298E+00
   0.9992718739048557E+00
   0.9992146427876012E+00
   0.9992982558172399E+00
   0.9994745189744073E+00
   0.9997382541037777E+00
   0.1000057941502346E+01
   0.1000043702655157E+01
   0.1000093824438877E+01
   0.9999621710496840E+00
   0.9997626352326203E+00
   0.9995356802363827E+00
   0.9993634989114377E+00
   0.9992657714460575E+00
   0.9992869930458761E+00
   0.9994154201605958E+00
   0.9996510806718889E+00
   0.9999676327362946E+00
   0.1820584777724134E+01
   0.8023589003933481E+00
   0.8631134520211943E+00
   0.1000947452319357E+01
   0.1006701913571308E+01
   0.9914235425853051E+00
   0.9931085799975811E+00
   0.9994734264715217E+00
   0.9929635927986098E+00
   0.9054971458688112E+00
   0.5956421285868647E+00
   0.1114152398345492E+01
   0.9413481229268307E+00
   0.9976303573752464E+00
   0.1001348861595116E+01
   0.1004165593630229E+01
   0.1001330356084304E+01
   0.1001300171858275E+01
   0.9985592677842872E+00
   0.9960131547014160E+00
   0.9879572518134642E+00
   0.9980810308664969E+00
   0.1051848794844174E+01
   0.9795410471503643E+00
   0.9768109845821259E+00
   0.9872266508366313E+00
   0.9931651591234465E+00
   0.9919494039815511E+00
   0.9921200738560711E+00
   0.9930082399515550E+00
   0.9901686482426271E+00
   0.9931196324115673E+00
   0.9773228105212820E+00
   0.1025990836797467E+01
   0.1000465184975409E+01
   0.9968884071334629E+00
   0.9939057355651791E+00
   0.9946947442234897E+00
   0.9941829495468243E+00
   0.9943225682302496E+00
   0.9947780756450393E+00
   0.9954421607598313E+00
   0.1000032676127368E+01
   0.1002014654383365E+01
   0.1009791298409242E+01
   0.1002104237404349E+01
   0.9979578175272945E+00
   0.9968544019987551E+00
   0.9971886934484258E+00
   0.9969157856791930E+00
   0.9969831630430099E+00
   0.9976369385198407E+00
   0.9977406567980011E+00
   0.1000268361019614E+01
   0.1001439121014156E+01
   0.1004059732954529E+01
   0.1002142396490120E+01
   0.9998921611467253E+00
   0.9983459347126430E+00
   0.9978983996995561E+00
   0.9976562085442178E+00
   0.9977128770421667E+00
   0.9983041947720500E+00
   0.9988685678136953E+00
   0.1000438126273994E+01
   0.1001703217414586E+01
   0.1001512217519523E+01
   0.1001064347253519E+01
   0.9997805181415192E+00
   0.9989819837210531E+00
   0.9985735466272063E+00
   0.9983789938861762E+00
   0.9983703357972854E+00
   0.9987457783477850E+00
   0.9991106892799791E+00
   0.9999692116525570E+00
   0.1000802511277189E+01
   0.1000681452724832E+01
   0.1000630698633882E+01
   0.9999190906548474E+00
   0.9993407872943114E+00
   0.9989556515572460E+00
   0.9987899930740979E+00
   0.9987828107420593E+00
   0.9990483127221442E+00
   0.9993774584783282E+00
   0.9998954267877493E+00
   0.1000432752087862E+01
   0.1000259808960080E+01
   0.1000268121649876E+01
   0.9998769294206515E+00
   0.9995332289244396E+00
   0.9992395259378636E+00
   0.9990877367816443E+00
   0.9990502487209836E+00
   0.9992036136130298E+00
   0.9994386440047754E+00
   0.9997860301261291E+00
   0.1000182170768359E+01
   0.1000106840687537E+01
   0.1000130170762513E+01
   0.9999037491128332E+00
   0.9996594572282744E+00
   0.9994194090723085E+00
   0.9992710336550180E+00
   0.9992132038715071E+00
   0.9992984087665455E+00
   0.9994762931648411E+00
   0.9997381040858727E+00
   0.1000055590337850E+01
   0.1000043540220967E+01
   0.1000093357541168E+01
   0.9999611430764971E+00
   0.9997608903886848E+00
   0.9995345236595280E+00
   0.9993641891558780E+00
   0.9992658719937373E+00
   0.9992833420685441E+00
   0.9994118565346256E+00
   0.9996533377254662E+00
   0.9999730098583027E+00
   0.1820583628748699E+01
   0.8023575917120649E+00
   0.8631029432591362E+00
   0.1000944338487292E+01
   0.1006701808630099E+01
   0.9914246424132600E+00
   0.9931097096550966E+00
   0.9994751029978168E+00
   0.9929642383444599E+00
   0.9054950087520589E+00
   0.5956393889921715E+00
   0.1114160073249623E+01
   0.9413592186946997E+00
   0.9976171373726538E+00
   0.1001348429661633E+01
   0.1004161919922564E+01
   0.1001329826504221E+01
   0.1001307150191282E+01
   0.9985728844791297E+00
   0.9960230055421935E+00
   0.9879625527870964E+00
   0.9980789381788718E+00
   0.1051855766144204E+01
   0.9795441982662504E+00
   0.9768026575898938E+00
   0.9872243348324924E+00
   0.9931658883043899E+00
   0.9919524439266191E+00
   0.9921202334181896E+00
   0.9930085477014775E+00
   0.9901717009792025E+00
   0.9931242584188282E+00
   0.9773260431387287E+00
   0.1025995528535761E+01
   0.1000470740516542E+01
   0.9968841266814488E+00
   0.9939027320855931E+00
   0.9946904261868540E+00
   0.9941820599499035E+00
   0.9943262536468519E+00
   0.9947838804490426E+00