# vtk DataFile Version 2.0
FUN3D:global_image_vtk
ASCII
DATASET UNSTRUCTURED_GRID
POINTS 1331 double
    0.0000000000000000E+00    0.2500000000000000E+01    0.0000000000000000E+00
    0.5000000000000000E+00    0.2500000000000000E+01    0.0000000000000000E+00
    0.1000000000000000E+01    0.2500000000000000E+01    0.0000000000000000E+00
    0.1500000000000000E+01    0.2500000000000000E+01    0.0000000000000000E+00
    0.2000000000000000E+01    0.2500000000000000E+01    0.0000000000000000E+00
    0.2500000000000000E+01    0.2500000000000000E+01    0.0000000000000000E+00
    0.3000000000000000E+01    0.2500000000000000E+01    0.0000000000000000E+00
    0.3500000000000000E+01    0.2500000000000000E+01    0.0000000000000000E+00
    0.4000000000000000E+01    0.2500000000000000E+01    0.0000000000000000E+00
    0.4500000000000000E+01    0.2500000000000000E+01    0.0000000000000000E+00
    0.5000000000000000E+01    0.2500000000000000E+01    0.0000000000000000E+00
    0.0000000000000000E+00    0.2500000000000000E+01    0.4999999999999982E+00
    0.4999999999999998E+00    0.2500000000000000E+01    0.4999999999999984E+00
    0.9999999999999998E+00    0.2500000000000000E+01    0.4999999999999987E+00
    0.1500000000000000E+01    0.2500000000000000E+01    0.4999999999999989E+00
    0.2000000000000000E+01    0.2500000000000000E+01    0.4999999999999991E+00
    0.2500000000000000E+01    0.2500000000000000E+01    0.4999999999999993E+00
    0.3000000000000000E+01    0.2500000000000000E+01    0.4999999999999996E+00
    0.3500000000000000E+01    0.2500000000000000E+01    0.4999999999999998E+00
    0.4000000000000000E+01    0.2500000000000000E+01    0.5000000000000000E+00
    0.4500000000000002E+01    0.2500000000000000E+01    0.5000000000000002E+00
    0.5000000000000000E+01    0.2500000000000000E+01    0.5000000000000004E+00
    0.0000000000000000E+00    0.2500000000000000E+01    0.1000000000000001E+01
    0.4999999999999997E+00    0.2500000000000000E+01    0.1000000000000001E+01
    0.1000000000000000E+01    0.2500000000000000E+01    0.1000000000000001E+01
    0.1500000000000000E+01    0.2500000000000000E+01    0.1000000000000001E+01
    0.2000000000000000E+01    0.2500000000000000E+01    0.1000000000000001E+01
    0.2500000000000000E+01    0.2500000000000000E+01    0.1000000000000001E+01
    0.3000000000000000E+01    0.2500000000000000E+01    0.1000000000000001E+01
    0.3500000000000000E+01    0.2500000000000000E+01    0.1000000000000001E+01
    0.4000000000000000E+01    0.2500000000000000E+01    0.1000000000000001E+01
    0.4499999999999999E+01    0.2500000000000000E+01    0.1000000000000001E+01
    0.5000000000000000E+01    0.2500000000000000E+01    0.1000000000000001E+01
    0.0000000000000000E+00    0.2500000000000000E+01    0.1499999999999999E+01
    0.4999999999999994E+00    0.2500000000000000E+01    0.1499999999999999E+01
    0.1000000000000000E+01    0.2500000000000000E+01    0.1499999999999999E+01
    0.1500000000000000E+01    0.2500000000000000E+01    0.1499999999999999E+01
    0.2000000000000001E+01    0.2500000000000000E+01    0.1499999999999999E+01
    0.2500000000000000E+01    0.2500000000000000E+01    0.1499999999999999E+01
    0.2999999999999999E+01    0.2500000000000000E+01    0.1499999999999999E+01
    0.3500000000000000E+01    0.2500000000000000E+01    0.1499999999999999E+01
    0.4000000000000001E+01    0.2500000000000000E+01    0.1499999999999999E+01
    0.4500000000000001E+01    0.2500000000000000E+01    0.1499999999999999E+01
    0.5000000000000000E+01    0.2500000000000000E+01    0.1499999999999999E+01
    0.0000000000000000E+00    0.2500000000000000E+01    0.2000000000000002E+01
    0.4999999999999992E+00    0.2500000000000000E+01    0.2000000000000001E+01
    0.1000000000000000E+01    0.2500000000000000E+01    0.2000000000000001E+01
    0.1500000000000000E+01    0.2500000000000000E+01    0.2000000000000001E+01
    0.2000000000000001E+01    0.2500000000000000E+01    0.2000000000000001E+01
    0.2500000000000000E+01    0.2500000000000000E+01    0.2000000000000001E+01
    0.2999999999999999E+01    0.2500000000000000E+01    0.2000000000000000E+01
    0.3500000000000000E+01    0.2500000000000000E+01    0.2000000000000000E+01
    0.4000000000000000E+01    0.2500000000000000E+01    0.2000000000000000E+01
    0.4500000000000000E+01    0.2500000000000000E+01    0.2000000000000000E+01
    0.5000000000000000E+01    0.2500000000000000E+01    0.2000000000000000E+01
    0.0000000000000000E+00    0.2500000000000000E+01    0.2500000000000000E+01
    0.4999999999999991E+00    0.2500000000000000E+01    0.2500000000000000E+01
    0.1000000000000000E+01    0.2500000000000000E+01    0.2500000000000000E+01
    0.1500000000000000E+01    0.2500000000000000E+01    0.2500000000000000E+01
    0.2000000000000001E+01    0.2500000000000000E+01    0.2500000000000000E+01
    0.2500000000000000E+01    0.2500000000000000E+01    0.2500000000000000E+01
    0.2999999999999999E+01    0.2500000000000000E+01    0.2500000000000000E+01
    0.3500000000000001E+01    0.2500000000000000E+01    0.2500000000000000E+01
    0.4000000000000000E+01    0.2500000000000000E+01    0.2500000000000000E+01
    0.4500000000000001E+01    0.2500000000000000E+01    0.2500000000000000E+01
    0.5000000000000000E+01    0.2500000000000000E+01    0.2500000000000000E+01
    0.0000000000000000E+00    0.2500000000000000E+01    0.2999999999999998E+01
    0.4999999999999989E+00    0.2500000000000000E+01    0.2999999999999998E+01
    0.1000000000000000E+01    0.2500000000000000E+01    0.2999999999999999E+01
    0.1499999999999999E+01    0.2500000000000000E+01    0.2999999999999999E+01
    0.2000000000000001E+01    0.2500000000000000E+01    0.2999999999999999E+01
    0.2500000000000000E+01    0.2500000000000000E+01    0.2999999999999999E+01
    0.2999999999999999E+01    0.2500000000000000E+01    0.2999999999999999E+01
    0.3500000000000001E+01    0.2500000000000000E+01    0.3000000000000000E+01
    0.4000000000000000E+01    0.2500000000000000E+01    0.3000000000000000E+01
    0.4500000000000001E+01    0.2500000000000000E+01    0.3000000000000000E+01
    0.5000000000000000E+01    0.2500000000000000E+01    0.3000000000000000E+01
    0.0000000000000000E+00    0.2500000000000000E+01    0.3500000000000001E+01
    0.4999999999999988E+00    0.2500000000000000E+01    0.3500000000000001E+01
    0.1000000000000001E+01    0.2500000000000000E+01    0.3500000000000001E+01
    0.1499999999999999E+01    0.2500000000000000E+01    0.3500000000000001E+01
    0.2000000000000001E+01    0.2500000000000000E+01    0.3500000000000001E+01
    0.2500000000000000E+01    0.2500000000000000E+01    0.3500000000000001E+01
    0.2999999999999999E+01    0.2500000000000000E+01    0.3500000000000001E+01
    0.3500000000000001E+01    0.2500000000000000E+01    0.3500000000000001E+01
    0.4000000000000001E+01    0.2500000000000000E+01    0.3500000000000001E+01
    0.4500000000000001E+01    0.2500000000000000E+01    0.3500000000000001E+01
    0.5000000000000000E+01    0.2500000000000000E+01    0.3500000000000001E+01
    0.0000000000000000E+00    0.2500000000000000E+01    0.3999999999999999E+01
    0.4999999999999986E+00    0.2500000000000000E+01    0.4000000000000000E+01
    0.1000000000000001E+01    0.2500000000000000E+01    0.3999999999999999E+01
    0.1499999999999999E+01    0.2500000000000000E+01    0.3999999999999999E+01
    0.2000000000000001E+01    0.2500000000000000E+01    0.3999999999999999E+01
    0.2500000000000000E+01    0.2500000000000000E+01    0.3999999999999999E+01
    0.2999999999999998E+01    0.2500000000000000E+01    0.3999999999999999E+01
    0.3500000000000001E+01    0.2500000000000000E+01    0.3999999999999999E+01
    0.3999999999999999E+01    0.2500000000000000E+01    0.3999999999999999E+01
    0.4500000000000003E+01    0.2500000000000000E+01    0.3999999999999999E+01
    0.5000000000000000E+01    0.2500000000000000E+01    0.3999999999999999E+01
    0.0000000000000000E+00    0.2500000000000000E+01    0.4500000000000002E+01
    0.4999999999999984E+00    0.2500000000000000E+01    0.4500000000000002E+01
    0.1000000000000001E+01    0.2500000000000000E+01    0.4500000000000001E+01
    0.1499999999999999E+01    0.2500000000000000E+01    0.4500000000000003E+01
    0.2000000000000002E+01    0.2500000000000000E+01    0.4500000000000001E+01
    0.2500000000000000E+01    0.2500000000000000E+01    0.4500000000000001E+01
    0.2999999999999998E+01    0.2500000000000000E+01    0.4500000000000001E+01
    0.3500000000000001E+01    0.2500000000000000E+01    0.4499999999999999E+01
    0.3999999999999999E+01    0.2500000000000000E+01    0.4499999999999999E+01
    0.4500000000000002E+01    0.2500000000000000E+01    0.4500000000000000E+01
    0.5000000000000000E+01    0.2500000000000000E+01    0.4500000000000000E+01
    0.0000000000000000E+00    0.2500000000000000E+01    0.5000000000000000E+01
    0.4999999999999982E+00    0.2500000000000000E+01    0.5000000000000000E+01
    0.1000000000000001E+01    0.2500000000000000E+01    0.5000000000000000E+01
    0.1499999999999999E+01    0.2500000000000000E+01    0.5000000000000000E+01
    0.2000000000000002E+01    0.2500000000000000E+01    0.5000000000000000E+01
    0.2500000000000000E+01    0.2500000000000000E+01    0.5000000000000000E+01
    0.2999999999999998E+01    0.2500000000000000E+01    0.5000000000000000E+01
    0.3500000000000001E+01    0.2500000000000000E+01    0.5000000000000000E+01
    0.3999999999999999E+01    0.2500000000000000E+01    0.5000000000000000E+01
    0.4500000000000002E+01    0.2500000000000000E+01    0.5000000000000000E+01
    0.5000000000000000E+01    0.2500000000000000E+01    0.5000000000000000E+01
    0.0000000000000000E+00    0.2000000000000000E+01    0.0000000000000000E+00
    0.5000000000000000E+00    0.2000000000000000E+01    0.0000000000000000E+00
    0.1000000000000000E+01    0.2000000000000000E+01    0.0000000000000000E+00
    0.1500000000000000E+01    0.2000000000000000E+01    0.0000000000000000E+00
[...]
POINT_DATA 1331
SCALARS rho double 1
LOOKUP_TABLE default
   0.1822861399646107E+01
   0.8026044124251019E+00
   0.8627426522428843E+00
   0.1001061686702893E+01
   0.1006837211917467E+01
   0.9915625385909369E+00
   0.9932621853516297E+00
   0.9996108476476601E+00
   0.9930092369518547E+00
   0.9054232087058346E+00
   0.5955561814388939E+00
   0.1117381538422871E+01
   0.9417669076856136E+00
   0.9963262899092530E+00
   0.1001336646065626E+01
   0.1004118020373601E+01
   0.1001207611891483E+01
   0.1000873360650204E+01
   0.9983227057397215E+00
   0.9962275394389809E+00
   0.9884714295524618E+00
   0.9980389479790815E+00
   0.1052187532410847E+01
   0.9795027988844299E+00
   0.9765496538668877E+00
   0.9872234057986010E+00
   0.9930648058985628E+00
   0.9920242260127171E+00
   0.9923903578537684E+00
   0.9931948596455645E+00
   0.9900341534685948E+00
   0.9927142252925556E+00
   0.9766401158808425E+00
   0.1026239299685057E+01
   0.1000492187098373E+01
   0.9966871354207552E+00
   0.9939276813830523E+00
   0.9947178182068181E+00
   0.9940471315233671E+00
   0.9940345147577803E+00
   0.9946868481742299E+00
   0.9956874485589665E+00
   0.1000405459485086E+01
   0.1002364935727308E+01
   0.1009899938038563E+01
   0.1002217429432544E+01
   0.9979297775192807E+00
   0.9967591853805895E+00
   0.9971890635659555E+00
   0.9971761444818048E+00
   0.9972535233745270E+00
   0.9975053790629077E+00
   0.9973502876466954E+00
   0.1000168293738165E+01
   0.1001495821958379E+01
   0.1004019991312326E+01
   0.1002177936256881E+01
   0.9999585976938621E+00
   0.9983917700808627E+00
   0.9977570538500269E+00
   0.9974118246408213E+00
   0.9977104086546138E+00
   0.9986555790931001E+00
   0.9990736372041464E+00
   0.1000235128434568E+01
   0.1001428594544313E+01
   0.1001562154862959E+01
   0.1001069320655487E+01
   0.9997582782105736E+00
   0.9990303417101991E+00
   0.9987150025554544E+00
   0.9984768887798862E+00
   0.9982440659391006E+00
   0.9985352313368885E+00
   0.9991572358035066E+00
   0.1000195522666739E+01
   0.1000972066288337E+01
   0.1000690190184658E+01
   0.1000647083230874E+01
   0.9999103103385854E+00
   0.9992773615140342E+00
   0.9989045471865687E+00
   0.9988644245169160E+00
   0.9989405789127436E+00
   0.9990515770977104E+00
   0.9991714483491030E+00
   0.9997428379409481E+00
   0.1000314238163802E+01
   0.1000241973256484E+01
   0.1000281487884423E+01
   0.9999063615948386E+00
   0.9995825905170403E+00
   0.9992479348893684E+00
   0.9990036259838957E+00
   0.9989727176774594E+00
   0.9993034039979937E+00
   0.9996227227698495E+00
   0.9998513817432592E+00
   0.1000185547077204E+01
   0.1000115489680671E+01
   0.1000124050960675E+01
   0.9998919558007059E+00
   0.9996943562214161E+00
   0.9995009461329567E+00
   0.9992923179710645E+00
   0.9990892100950571E+00
   0.9991845920150849E+00
   0.9996100660743781E+00
   0.9999997475121477E+00
   0.1000329497299538E+01
   0.1000051368255793E+01
   0.1000109150168599E+01
   0.9999663495531115E+00
   0.9996924761316941E+00
   0.9994203457545225E+00
   0.9993990543916768E+00
   0.9995457366215782E+00
   0.9994640026344943E+00
   0.9991153422684461E+00
   0.9991890637463391E+00
   0.9996145566405691E+00
   0.1820869578443976E+01
   0.8020587504245177E+00
   0.8628470094356244E+00
   0.1001091893934494E+01
   0.1006884419027485E+01
   0.9915660920098975E+00
   0.9932499825637117E+00
   0.9996502245517030E+00
   0.9931165802627049E+00
   0.9054968275724814E+00
   0.5954016112277231E+00
   0.1114418466522836E+01
   0.9410287327875034E+00
   0.9973682803106796E+00
   0.1001431282099113E+01
   0.1004205184743796E+01
   0.1001312236579520E+01
   0.1001124764782409E+01
   0.9984228054394227E+00
   0.9961173991619788E+00
   0.9882000287561067E+00
   0.9983256190308760E+00
   0.1051848252916137E+01
   0.9794508853198677E+00
   0.9767472782810622E+00
   0.9871815099873416E+00
   0.9931153925938784E+00
   0.9920517847596136E+00
   0.9923482748359272E+00
   0.9931534032184575E+00
   0.9900657034927709E+00
   0.9928549173569883E+00
   0.9769730413309863E+00
   0.1025991656173794E+01
   0.1000374127003512E+01
   0.9968297594329166E+00
   0.9939797216997477E+00
   0.9946883044986544E+00
   0.9940230737415454E+00
   0.9941060485136414E+00
   0.9947628294453257E+00
   0.9956537452641158E+00
   0.1000241438458231E+01
   0.1002228044310594E+01
   0.1009849373132321E+01
   0.1002096828394463E+01
   0.9978929184873263E+00
   0.9968098330375781E+00
   0.9972476370114765E+00
   0.9970842288714845E+00
   0.9971055678157168E+00
   0.9975944094655093E+00
   0.9976045344574609E+00
   0.1000132804484534E+01
   0.1001278542168145E+01
   0.1004010865395429E+01
   0.1002133659945264E+01
   0.9999074422905810E+00
   0.9983473937651860E+00
   0.9977970587625711E+00
   0.9974920144437642E+00
   0.9976583404272756E+00
   0.9984646599582334E+00
   0.9990679637385571E+00
   0.1000445039377823E+01
   0.1001615933957891E+01
   0.1001551193459134E+01
   0.1001052957719830E+01
   0.9997384636798194E+00
   0.9989910448760384E+00
   0.9986763292754713E+00
   0.9984824615436313E+00
   0.9982842900855422E+00
   0.9985054391100621E+00
   0.9990464955951480E+00
   0.1000216340157180E+01
   0.1001137495614908E+01
   0.1000681709017407E+01
   0.1000639977465566E+01
   0.9999070214165413E+00
   0.9992680517338828E+00
   0.9988862019641651E+00
   0.9988543924370994E+00
   0.9989561302746085E+00
   0.9990680229923770E+00
   0.9991407434822879E+00
   0.9996400333292480E+00
   0.1000165371466813E+01
   0.1000238347980274E+01
   0.1000273538194327E+01
   0.9998991655997266E+00
   0.9995753139367337E+00
   0.9992310571955209E+00
   0.9989789861416229E+00
   0.9989580985360570E+00
   0.9993047640618548E+00
   0.9996348588275853E+00
   0.9998475029283282E+00
   0.1000177741648945E+01
   0.1000114827512831E+01
   0.1000122376362553E+01
   0.9998870645301917E+00
   0.9996913216877038E+00
   0.9995019151087202E+00
   0.9992936606097396E+00
   0.9990844317711269E+00
   0.9991631189060289E+00
   0.9995844994189381E+00
   0.9999945336092589E+00
   0.1000323113889465E+01
   0.1000047221046233E+01
   0.1000106993333145E+01
   0.9999664597590163E+00
   0.9996869449803832E+00
   0.9993986250127317E+00
   0.9993699608382953E+00
   0.9995416697028493E+00
   0.9994986335734696E+00
   0.9991467371944459E+00
   0.9991650353402082E+00
   0.9995524051202825E+00
   0.1820504988783965E+01
   0.8021946725411753E+00
   0.8629520716991431E+00
   0.1001013336522965E+01
   0.1006814608855693E+01
   0.9915491709744366E+00
   0.9932470065886162E+00
   0.9995727563778062E+00
   0.9929756100018204E+00
   0.9053999765344535E+00
   0.5954269948610889E+00
   0.1114472161840347E+01
   0.9414182663807238E+00
   0.9973497382782466E+00
   0.1001375523091690E+01
   0.1004294757522013E+01
   0.1001314021173083E+01
   0.1001031265991693E+01
   0.9983933402670018E+00
   0.9962118396129050E+00
   0.9883703393253110E+00
   0.9984449796268926E+00
   0.1051916746609177E+01
   0.9795681576915776E+00
   0.9767971249878455E+00
   0.9871882476553168E+00
   0.9930750084007770E+00
   0.9920272101769906E+00
   0.9923992941205675E+00
   0.9931923952355501E+00
   0.9900281959221051E+00
   0.9928030199490155E+00
   0.9769001206141872E+00
   0.1026044766734453E+01
   0.1000459184558226E+01
   0.9968159774908822E+00
   0.9939637097895859E+00
   0.9947573825572218E+00
   0.9940696618504656E+00
   0.9940641173691432E+00
   0.9947136970471240E+00
   0.9957107536289195E+00
   0.1000404718182021E+01
   0.1002382404651601E+01
   0.1009843223330040E+01
   0.1002163423232086E+01
   0.9979388302577562E+00
   0.9967603573560174E+00
   0.9971995947824981E+00
   0.9971821128133147E+00
   0.9972574160626118E+00
   0.9975052627747872E+00
   0.9973526391557141E+00
   0.1000170211309880E+01
   0.1001508480369915E+01
   0.1004005682759242E+01
   0.1002156334854073E+01
   0.9999532071114222E+00
   0.9983837699365976E+00
   0.9977537030718459E+00
   0.9974098542240490E+00
   0.9977110616946450E+00
   0.9986545710650183E+00
   0.9990699299431673E+00
   0.1000225630291619E+01
   0.1001421989354764E+01
   0.1001558221745371E+01
   0.1001060686389842E+01
   0.9997535876084883E+00
   0.9990253517368404E+00
   0.9987111519228441E+00
   0.9984728759953965E+00
   0.9982414520303980E+00
   0.9985338044608596E+00
   0.9991575602038490E+00
   0.1000194805294185E+01
   0.1000970518074924E+01
   0.1000688958626462E+01
   0.1000643831673340E+01
   0.9999074629834612E+00
   0.9992742250058654E+00
   0.9989018742873795E+00
   0.9988614595069694E+00
   0.9989376240891955E+00
   0.9990485945064781E+00
   0.9991695531820347E+00
   0.9997423455703009E+00
   0.1000314152934543E+01
   0.1000241413534052E+01
   0.1000280146326807E+01
   0.9999048330009794E+00
   0.9995807405557694E+00
   0.9992461610373911E+00
   0.9990017063378820E+00
   0.9989706990194610E+00
   0.9993011173776252E+00
   0.9996205155121062E+00
   0.9998500155332637E+00
   0.1000184783823685E+01
   0.1000115224057648E+01
   0.1000123430814587E+01
   0.9998910962469670E+00
   0.9996932229322851E+00
   0.9994996986040543E+00
   0.9992908732729632E+00
   0.9990876291655635E+00
   0.9991828837894511E+00
   0.9996084041239552E+00
   0.9999985603712773E+00
   0.1000328649013806E+01
   0.1000051281299715E+01
   0.1000108790014469E+01
   0.9999657022730293E+00
   0.9996915395464969E+00
   0.9994193162303467E+00
   0.9993979867350783E+00
   0.9995446245747345E+00
   0.9994626909725035E+00
   0.9991137145513208E+00
   0.9991875416320188E+00
   0.9996132645967801E+00
   0.1820586344879122E+01
   0.8023110351004130E+00
   0.8630816276677383E+00
   0.1001033275539915E+01
   0.1006817433008232E+01
   0.9915263803456367E+00
   0.9932258966825130E+00
   0.9996331290966647E+00
   0.9931235341038264E+00
   0.9055237460236966E+00
   0.5953977777823080E+00
   0.1114197303283451E+01
   0.9413014408321293E+00
   0.9975537020558944E+00
   0.1001391439058164E+01
   0.1004214522108166E+01
   0.1001296581277471E+01
   0.1001107133893503E+01
   0.9983935904054796E+00
   0.9960992007757761E+00
   0.9882289550406467E+00
   0.9983893711521958E+00
   0.1051849782936932E+01
   0.9795730164790630E+00
   0.9768233693812686E+00
   0.9871706112956646E+00
   0.9931165894507880E+00
   0.9920473665571991E+00
   0.9923566429547848E+00
   0.9931666915740970E+00
   0.9900885101683526E+00
   0.9928826970903187E+00
   0.9769928045940350E+00
   0.1025960753159934E+01
   0.1000420204817237E+01
   0.9968789599858362E+00
   0.9939828478188889E+00
   0.9946924001943703E+00
   0.9940117653007117E+00
   0.9940907916245497E+00
   0.9947444217641573E+00
   0.9956438447808745E+00
   0.1000248775848630E+01
   0.1002254091326153E+01
   0.1009840974732040E+01
   0.1002115204407666E+01
   0.9979194978767908E+00
   0.9968180969645598E+00
   0.9972561074705849E+00
   0.9970881038976455E+00
   0.9971084247317404E+00
   0.9975916082961620E+00
   0.9975960976811057E+00
   0.1000125840779401E+01
   0.1001276375019351E+01
   0.1004008670001503E+01
   0.1002141166482807E+01
   0.9999222692773259E+00
   0.9983545118436913E+00
   0.9978025585587893E+00
   0.9974936487071255E+00
   0.9976603919007195E+00
   0.9984674211088607E+00
   0.9990709544357318E+00
   0.1000447075900043E+01
   0.1001615436635184E+01
   0.1001551699306896E+01
   0.1001056120426996E+01
   0.9997461906960485E+00
   0.9989969325863101E+00
   0.9986818086994687E+00
   0.9984854591470201E+00
   0.9982857192907822E+00
   0.9985059801501877E+00
   0.9990475063682389E+00
   0.1000217625601605E+01
   0.1001137368852403E+01
   0.1000682385295000E+01
   0.1000641543384862E+01
   0.9999109338094502E+00
   0.9992716858414374E+00
   0.9988901275267834E+00
   0.9988576814164032E+00
   0.9989586630639973E+00
   0.9990693790706230E+00
   0.9991411218513391E+00
   0.9996396241006870E+00
   0.1000164638915528E+01
   0.1000238680461282E+01
   0.1000274385188242E+01
   0.9999012728412264E+00
   0.9995775916185492E+00
   0.9992336107208932E+00
   0.9989815512502550E+00
   0.9989606708493296E+00
   0.9993069581652873E+00
   0.9996362592679408E+00
   0.9998477223617284E+00
   0.1000177796313852E+01
   0.1000114993147083E+01
   0.1000122839976565E+01
   0.9998882218226212E+00
   0.9996927270380375E+00
   0.9995035921722476E+00
   0.9992956050072391E+00
   0.9990866677708192E+00
   0.9991653636583152E+00
   0.9995863726493095E+00
   0.9999955157837167E+00
   0.1000323796099361E+01
   0.1000047298475709E+01
   0.1000107222468122E+01
   0.9999671976517431E+00
   0.9996881354055027E+00
   0.9994001622411903E+00
   0.9993716549928640E+00
   0.9995434889063828E+00
   0.9995005417332961E+00
   0.9991486487884099E+00
   0.9991665033536993E+00
   0.9995534829136872E+00
   0.1820602956935324E+01
   0.8023535209863599E+00
   0.8631346596292652E+00
   0.1001025424599283E+01
   0.1006797201350127E+01
   0.9915409592236489E+00
   0.9932446375169821E+00
   0.9995659687421122E+00
   0.9929749177727288E+00
   0.9054304011768644E+00
   0.5954979173169186E+00
   0.1114233262997886E+01
   0.9413079701758672E+00
   0.9975033962882249E+00
   0.1001378076301072E+01
   0.1004313266003241E+01
   0.1001311225018576E+01
   0.1001029956076745E+01
   0.9983614016702758E+00
   0.9961488795755814E+00
   0.9882757863327716E+00
   0.9983902042343400E+00
   0.1051842773808177E+01
   0.9795688131323421E+00
   0.9768668213778836E+00
   0.9872010542837973E+00
   0.9930876500008543E+00
   0.9920249905153901E+00
   0.9924002777219324E+00
   0.9931933922632437E+00
   0.9900340709025278E+00
   0.9928077438927101E+00
   0.9769146984203910E+00
   0.1025993490456597E+01
   0.1000428116457622E+01
   0.9968490456001584E+00
   0.9939761248298794E+00
   0.9947768150734146E+00
   0.9940795670968899E+00
   0.9940707431780686E+00
   0.9947086422196765E+00
   0.9956966887355042E+00
   0.1000382971988978E+01
   0.1002364209019443E+01
   0.1009824010355252E+01
   0.1002141298380065E+01
   0.9979414723781396E+00
   0.9967579546298106E+00
   0.9972028039427219E+00
   0.9971841984910190E+00
   0.9972625279542020E+00
   0.9975096152115145E+00
   0.9973542391033740E+00
   0.1000161560571580E+01
   0.1001490744685677E+01
   0.1003998123447812E+01
   0.1002144796837613E+01
   0.9999527400829301E+00
   0.9983812281370998E+00
   0.9977535974496522E+00
   0.9974081971784953E+00
   0.9977097534418679E+00
   0.9986525480215471E+00
   0.9990682519443441E+00
   0.1000220832801093E+01
   0.1001418031464653E+01
   0.1001554968949706E+01
   0.1001054404941205E+01
   0.9997511183561538E+00
   0.9990227371210826E+00
   0.9987102864477747E+00
   0.9984719959816934E+00
   0.9982409543231552E+00
   0.9985324765209040E+00
   0.9991557929972801E+00
   0.1000192224662560E+01
   0.1000970181404054E+01
   0.1000687392924203E+01
   0.1000640795031503E+01
   0.9999054512735364E+00
   0.9992717996365451E+00
   0.9989000545497040E+00
   0.9988598389462143E+00
   0.9989367186479369E+00
   0.9990478658279378E+00
   0.9991688409202072E+00
   0.9997413101758666E+00
   0.1000313954534673E+01
   0.1000240577819651E+01
   0.1000278592638550E+01
   0.9999035000574922E+00
   0.9995790939420246E+00
   0.9992444689769355E+00
   0.9989998404945714E+00
   0.9989691949922420E+00
   0.9993001126159297E+00
   0.9996201873218441E+00
   0.9998500290381527E+00
   0.1000184984003893E+01
   0.1000114870433654E+01
   0.1000122580435443E+01
   0.9998902648890882E+00
   0.9996921543883727E+00
   0.9994982977421247E+00
   0.9992890041329321E+00
   0.9990857666234360E+00
   0.9991814504005735E+00
   0.9996078407108682E+00
   0.9999987188405607E+00
   0.1000329080197749E+01
   0.1000051267261040E+01
   0.1000108200608462E+01
   0.9999648173824297E+00
   0.9996905884861133E+00
   0.9994184846256584E+00
   0.9993969263922844E+00
   0.9995430737545951E+00
   0.9994606511062587E+00
   0.9991118168991099E+00
   0.9991867381013101E+00
   0.9996132388148393E+00
   0.1820616412590320E+01
   0.8023408593296365E+00
   0.8631253735182389E+00
   0.1001037741288494E+01
   0.1006815779111378E+01
   0.9915261077597181E+00
   0.9932266343824341E+00
   0.9996311838274076E+00
   0.9931223738548651E+00
   0.9055356028585886E+00
   0.5954340742408246E+00
   0.1114164698629528E+01
   0.9412719414538514E+00
   0.9975763098891519E+00
   0.1001385363046154E+01
   0.1004211677821899E+01
   0.1001287091165209E+01
   0.1001108812885160E+01
   0.9983989353942397E+00
   0.9960991502311275E+00
   0.9882066350499565E+00
   0.9983660608981685E+00
   0.1051836254474774E+01
   0.9795728174977149E+00
   0.9768354963299345E+00
   0.9871696437662361E+00
   0.9931199797341504E+00
   0.9920440538525528E+00
   0.9923500504257573E+00
   0.9931594763561810E+00
   0.9900887397732973E+00
   0.9928912415062549E+00
   0.9770120913538196E+00
   0.1025952227410422E+01
   0.1000418632874188E+01
   0.9968891366787310E+00
   0.9939821059687811E+00
   0.9946943314878607E+00
   0.9940133729964478E+00
   0.9940951900288300E+00
   0.9947462868603818E+00
   0.9956418864410556E+00
   0.1000241885356781E+01
   0.1002242027314796E+01
   0.1009837812057760E+01
   0.1002115609692303E+01
   0.9979250214080991E+00
   0.9968175497669096E+00
   0.9972541902673644E+00
   0.9970838397655324E+00
   0.9971066913729231E+00
   0.9975930528730939E+00
   0.9975999904503484E+00
   0.1000126320237041E+01
   0.1001275497338123E+01
   0.1004007289210895E+01
   0.1002141508246245E+01
   0.9999265200545178E+00
   0.9983566211208417E+00
   0.9978035243501336E+00
   0.9974912391579616E+00
   0.9976565671454189E+00
   0.9984638633084912E+00
   0.9990706181603209E+00
   0.1000450078003336E+01
   0.1001624175284271E+01
   0.1001551588490832E+01
   0.1001056183188613E+01
   0.9997481038043632E+00
   0.9989987147884498E+00
   0.9986839696973228E+00
   0.9984862457119186E+00
   0.9982850077598070E+00
   0.9985038504954044E+00
   0.9990457637483454E+00
   0.1000218738630400E+01
   0.1001141044140488E+01
   0.1000682693877766E+01
   0.1000641805043991E+01
   0.9999119267924798E+00
   0.9992725117282543E+00
   0.9988914364322249E+00
   0.9988589075244202E+00
   0.9989594925225921E+00
   0.9990692657780508E+00
   0.9991403169816454E+00
   0.9996393404237404E+00
   0.1000163244911376E+01
   0.1000238944755896E+01
   0.1000274705731637E+01
   0.9999019524276214E+00
   0.9995781195662838E+00
   0.9992343486637171E+00
   0.9989824603886158E+00
   0.9989616816578200E+00
   0.9993076180563297E+00
   0.9996361914659422E+00
   0.9998469750412405E+00
   0.1000175362171857E+01
   0.1000115186231253E+01
   0.1000123084631534E+01
   0.9998886708177849E+00
   0.9996932515709022E+00
   0.9995043256964538E+00
   0.9992963609120831E+00
   0.9990872748921609E+00
   0.9991656168637233E+00
   0.9995861656212013E+00
   0.9999947924502638E+00
   0.1000322545053195E+01
   0.1000047417795294E+01
   0.1000107479998132E+01
   0.9999675686161260E+00
   0.9996884044801613E+00
   0.9994004461901117E+00
   0.9993721930060067E+00
   0.9995444485391063E+00
   0.9995016921622110E+00
   0.9991492033277594E+00
   0.9991658514432581E+00
   0.9995523556712601E+00
   0.1820602123206281E+01
   0.8023535241903239E+00
   0.8631346788314040E+00
   0.1001025425542394E+01
   0.1006797247935187E+01
   0.9915410311591674E+00
   0.9932446843832181E+00
   0.9995659546733928E+00
   0.9929748222907625E+00
   0.9054302007973294E+00
   0.5954975835575456E+00
   0.1114233067302324E+01
   0.9413079852713873E+00
   0.9975033364728069E+00
   0.1001378022169186E+01
   0.1004313203064506E+01
   0.1001311163370034E+01
   0.1001029891690927E+01
   0.9983613322481862E+00
   0.9961488049737651E+00
   0.9882756999850054E+00
   0.9983901334518956E+00
   0.1051842748227171E+01
   0.9795688377955547E+00
   0.9768668361092044E+00
   0.9872010654813872E+00
   0.9930876523832731E+00
   0.9920249932167321E+00
   0.9924002784333565E+00
   0.9931933922303096E+00
   0.9900340688060886E+00
   0.9928077387317531E+00
   0.9769146817003418E+00
   0.1025993457670462E+01
   0.1000428118697400E+01
   0.9968490470410388E+00
   0.9939761311985792E+00
   0.9947768192145447E+00
   0.9940795710563384E+00
   0.9940707444753503E+00
   0.9947086409546534E+00