title="tecplot geometry and solution file"
variables = x y z rho u v w p mach temperature
zone t="boundary 1 bc-1", solutiontime= 0.8000000E+02, strandid=1001, i=121, j=100, f=feblock
  0.000000000000E+00  0.000000000000E+00  0.000000000000E+00  0.000000000000E+00  0.000000000000E+00  0.000000000000E+00  0.000000000000E+00
  0.000000000000E+00  0.000000000000E+00  0.000000000000E+00  0.000000000000E+00  0.000000000000E+00  0.000000000000E+00  0.000000000000E+00
  0.000000000000E+00  0.000000000000E+00  0.000000000000E+00  0.000000000000E+00  0.000000000000E+00  0.000000000000E+00  0.000000000000E+00
  0.000000000000E+00  0.000000000000E+00  0.000000000000E+00  0.000000000000E+00  0.000000000000E+00  0.000000000000E+00  0.000000000000E+00
  0.000000000000E+00  0.000000000000E+00  0.000000000000E+00  0.000000000000E+00  0.000000000000E+00  0.000000000000E+00  0.000000000000E+00
  0.000000000000E+00  0.000000000000E+00  0.000000000000E+00  0.000000000000E+00  0.000000000000E+00  0.000000000000E+00  0.000000000000E+00
  0.000000000000E+00  0.000000000000E+00  0.000000000000E+00  0.000000000000E+00  0.000000000000E+00  0.000000000000E+00  0.000000000000E+00
  0.000000000000E+00  0.000000000000E+00  0.000000000000E+00  0.000000000000E+00  0.000000000000E+00  0.000000000000E+00  0.000000000000E+00
  0.000000000000E+00  0.000000000000E+00  0.000000000000E+00  0.000000000000E+00  0.000000000000E+00  0.000000000000E+00  0.000000000000E+00
  0.000000000000E+00  0.000000000000E+00  0.000000000000E+00  0.000000000000E+00  0.000000000000E+00  0.000000000000E+00  0.000000000000E+00
  0.000000000000E+00  0.000000000000E+00  0.000000000000E+00  0.000000000000E+00  0.000000000000E+00  0.000000000000E+00  0.000000000000E+00
  0.000000000000E+00  0.000000000000E+00  0.000000000000E+00  0.000000000000E+00  0.000000000000E+00  0.000000000000E+00  0.000000000000E+00
  0.000000000000E+00  0.000000000000E+00  0.000000000000E+00  0.000000000000E+00  0.000000000000E+00  0.000000000000E+00  0.000000000000E+00
  0.000000000000E+00  0.000000000000E+00  0.000000000000E+00  0.000000000000E+00  0.000000000000E+00  0.000000000000E+00  0.000000000000E+00
  0.000000000000E+00  0.000000000000E+00  0.000000000000E+00  0.000000000000E+00  0.000000000000E+00  0.000000000000E+00  0.000000000000E+00
  0.000000000000E+00  0.000000000000E+00  0.000000000000E+00  0.000000000000E+00  0.000000000000E+00  0.000000000000E+00  0.000000000000E+00
  0.000000000000E+00  0.000000000000E+00  0.000000000000E+00  0.000000000000E+00  0.000000000000E+00  0.000000000000E+00  0.000000000000E+00
  0.000000000000E+00  0.000000000000E+00
  0.250000000000E+01  0.250000000000E+01  0.200000000000E+01  0.250000000000E+01  0.200000000000E+01  0.150000000000E+01  0.250000000000E+01
  0.200000000000E+01  0.150000000000E+01  0.100000000000E+01  0.250000000000E+01  0.200000000000E+01  0.150000000000E+01  0.100000000000E+01
  0.500000000000E+00  0.250000000000E+01  0.200000000000E+01  0.150000000000E+01  0.100000000000E+01  0.500000000000E+00  0.000000000000E+00
  0.250000000000E+01  0.200000000000E+01  0.150000000000E+01  0.100000000000E+01  0.500000000000E+00  0.000000000000E+00 -0.500000000000E+00
  0.250000000000E+01  0.200000000000E+01  0.150000000000E+01  0.100000000000E+01  0.500000000000E+00  0.000000000000E+00 -0.500000000000E+00
 -0.100000000000E+01  0.250000000000E+01  0.200000000000E+01  0.150000000000E+01  0.100000000000E+01  0.500000000000E+00  0.000000000000E+00
 -0.500000000000E+00 -0.100000000000E+01 -0.150000000000E+01  0.250000000000E+01  0.200000000000E+01  0.150000000000E+01  0.100000000000E+01
  0.500000000000E+00  0.000000000000E+00 -0.500000000000E+00 -0.100000000000E+01 -0.150000000000E+01 -0.200000000000E+01  0.250000000000E+01
  0.200000000000E+01  0.150000000000E+01  0.100000000000E+01  0.500000000000E+00  0.000000000000E+00 -0.500000000000E+00 -0.100000000000E+01
 -0.150000000000E+01 -0.200000000000E+01 -0.250000000000E+01  0.200000000000E+01  0.150000000000E+01  0.100000000000E+01  0.500000000000E+00
  0.000000000000E+00 -0.500000000000E+00 -0.100000000000E+01 -0.150000000000E+01 -0.200000000000E+01 -0.250000000000E+01  0.150000000000E+01
  0.100000000000E+01  0.500000000000E+00  0.000000000000E+00 -0.500000000000E+00 -0.100000000000E+01 -0.150000000000E+01 -0.200000000000E+01
 -0.250000000000E+01  0.100000000000E+01  0.500000000000E+00  0.000000000000E+00 -0.500000000000E+00 -0.100000000000E+01 -0.150000000000E+01
 -0.200000000000E+01 -0.250000000000E+01  0.500000000000E+00  0.000000000000E+00 -0.500000000000E+00 -0.100000000000E+01 -0.150000000000E+01
 -0.200000000000E+01 -0.250000000000E+01  0.000000000000E+00 -0.500000000000E+00 -0.100000000000E+01 -0.150000000000E+01 -0.200000000000E+01
 -0.250000000000E+01 -0.500000000000E+00 -0.100000000000E+01 -0.150000000000E+01 -0.200000000000E+01 -0.250000000000E+01 -0.100000000000E+01
 -0.150000000000E+01 -0.200000000000E+01 -0.250000000000E+01 -0.150000000000E+01 -0.200000000000E+01 -0.250000000000E+01 -0.200000000000E+01
 -0.250000000000E+01 -0.250000000000E+01
  0.000000000000E+00  0.500000000000E+00  0.000000000000E+00  0.100000000000E+01  0.500000000000E+00  0.000000000000E+00  0.150000000000E+01
  0.100000000000E+01  0.500000000000E+00  0.000000000000E+00  0.200000000000E+01  0.150000000000E+01  0.100000000000E+01  0.500000000000E+00
  0.000000000000E+00  0.250000000000E+01  0.200000000000E+01  0.150000000000E+01  0.100000000000E+01  0.500000000000E+00  0.000000000000E+00
  0.300000000000E+01  0.250000000000E+01  0.200000000000E+01  0.150000000000E+01  0.100000000000E+01  0.500000000000E+00  0.000000000000E+00
  0.350000000000E+01  0.300000000000E+01  0.250000000000E+01  0.200000000000E+01  0.150000000000E+01  0.100000000000E+01  0.500000000000E+00
  0.000000000000E+00  0.400000000000E+01  0.350000000000E+01  0.300000000000E+01  0.250000000000E+01  0.200000000000E+01  0.150000000000E+01
  0.100000000000E+01  0.500000000000E+00  0.000000000000E+00  0.450000000000E+01  0.400000000000E+01  0.350000000000E+01  0.300000000000E+01
  0.250000000000E+01  0.200000000000E+01  0.150000000000E+01  0.100000000000E+01  0.500000000000E+00  0.000000000000E+00  0.500000000000E+01
  0.450000000000E+01  0.400000000000E+01  0.350000000000E+01  0.300000000000E+01  0.250000000000E+01  0.200000000000E+01  0.150000000000E+01
  0.100000000000E+01  0.500000000000E+00  0.000000000000E+00  0.500000000000E+01  0.450000000000E+01  0.400000000000E+01  0.350000000000E+01
  0.300000000000E+01  0.250000000000E+01  0.200000000000E+01  0.150000000000E+01  0.100000000000E+01  0.500000000000E+00  0.500000000000E+01
  0.450000000000E+01  0.400000000000E+01  0.350000000000E+01  0.300000000000E+01  0.250000000000E+01  0.200000000000E+01  0.150000000000E+01
  0.100000000000E+01  0.500000000000E+01  0.450000000000E+01  0.400000000000E+01  0.350000000000E+01  0.300000000000E+01  0.250000000000E+01
  0.200000000000E+01  0.150000000000E+01  0.500000000000E+01  0.450000000000E+01  0.400000000000E+01  0.350000000000E+01  0.300000000000E+01
  0.250000000000E+01  0.200000000000E+01  0.500000000000E+01  0.450000000000E+01  0.400000000000E+01  0.350000000000E+01  0.300000000000E+01
  0.250000000000E+01  0.500000000000E+01  0.450000000000E+01  0.400000000000E+01  0.350000000000E+01  0.300000000000E+01  0.500000000000E+01
  0.450000000000E+01  0.400000000000E+01  0.350000000000E+01  0.500000000000E+01  0.450000000000E+01  0.400000000000E+01  0.500000000000E+01
  0.450000000000E+01  0.500000000000E+01
  0.182284235541E+01  0.111730816038E+01  0.182083788884E+01  0.105220067157E+01  0.111440719342E+01  0.182048526926E+01  0.102624143630E+01
  0.105186056228E+01  0.111439921758E+01  0.182055384096E+01  0.100987166842E+01  0.102603035962E+01  0.105192858075E+01  0.111418431170E+01
  0.182058445942E+01  0.100408307688E+01  0.100980263118E+01  0.102604736603E+01  0.105186259754E+01  0.111416026845E+01  0.182058477772E+01
  0.100152026065E+01  0.100406282009E+01  0.100981463402E+01  0.102600020627E+01  0.105185579163E+01  0.111415239835E+01  0.182058362875E+01
  0.100068532869E+01  0.100151207658E+01  0.100406896515E+01  0.100979419664E+01  0.102599556134E+01  0.105184879484E+01  0.111416007325E+01
  0.182055198391E+01  0.100026171993E+01  0.100068072961E+01  0.100151654774E+01  0.100406059468E+01  0.100979478110E+01  0.102599083680E+01
  0.105185576614E+01  0.111418389207E+01  0.182048205866E+01  0.100010783024E+01  0.100025921397E+01  0.100068408547E+01  0.100151228029E+01
  0.100406124747E+01  0.100979129841E+01  0.102599552854E+01  0.105186254602E+01  0.111439852025E+01  0.182083301691E+01  0.100004399905E+01
  0.100010646755E+01  0.100026113152E+01  0.100068130444E+01  0.100151343016E+01  0.100405973295E+01  0.100979476705E+01  0.102600013759E+01
  0.105192850903E+01  0.111440620833E+01  0.182283575584E+01  0.100004334797E+01  0.100010753847E+01  0.100025966171E+01  0.100068273718E+01
  0.100151221752E+01  0.100406124009E+01  0.100979416771E+01  0.102604726149E+01  0.105186045488E+01  0.111730685814E+01  0.100004386764E+01
  0.100010673385E+01  0.100026043738E+01  0.100068145272E+01  0.100151342643E+01  0.100406057981E+01  0.100981459133E+01  0.102603021254E+01
  0.105220053576E+01  0.100004347980E+01  0.100010717919E+01  0.100025980896E+01  0.100068273491E+01  0.100151227287E+01  0.100406894384E+01
  0.100980257116E+01  0.102624125471E+01  0.100004370266E+01  0.100010684069E+01  0.100026043594E+01  0.100068130002E+01  0.100151653729E+01
  0.100406279266E+01  0.100987159626E+01  0.100004354022E+01  0.100010717825E+01  0.100025965892E+01  0.100068407930E+01  0.100151206373E+01
  0.100408304510E+01  0.100004370211E+01  0.100010673205E+01  0.100026112765E+01  0.100068072227E+01  0.100152024594E+01  0.100004347875E+01
  0.100010753598E+01  0.100025920942E+01  0.100068532040E+01  0.100004386620E+01  0.100010646463E+01  0.100026171486E+01  0.100004334628E+01
  0.100010782703E+01  0.100004399719E+01
  0.000000000000E+00  0.449563031191E+00  0.000000000000E+00  0.466814900717E+00  0.440670600193E+00  0.000000000000E+00  0.478292241899E+00
  0.466811252288E+00  0.440494780393E+00  0.000000000000E+00  0.490773544937E+00  0.478612933565E+00  0.466704874470E+00  0.440695795302E+00
  0.000000000000E+00  0.495753550698E+00  0.490881222687E+00  0.478559043354E+00  0.466797100903E+00  0.440719320076E+00  0.000000000000E+00
  0.498208843633E+00  0.495787027175E+00  0.490856271538E+00  0.478629354567E+00  0.466804869132E+00  0.440732966912E+00  0.000000000000E+00
  0.499122030346E+00  0.498220862643E+00  0.495775563627E+00  0.490887370156E+00  0.478633953724E+00  0.466814893668E+00  0.440719419779E+00
  0.000000000000E+00  0.499624937265E+00  0.499127436421E+00  0.498215202036E+00  0.495789790623E+00  0.490886227610E+00  0.478642681168E+00
  0.466804887507E+00  0.440696013041E+00  0.000000000000E+00  0.499825425589E+00  0.499627632972E+00  0.499123957753E+00  0.498221676876E+00
  0.495788448313E+00  0.490891668671E+00  0.478633977698E+00  0.466797138277E+00  0.440495149404E+00  0.000000000000E+00  0.499911686239E+00
  0.499826728183E+00  0.499625696860E+00  0.499127493263E+00  0.498220520757E+00  0.495791630000E+00  0.490886239697E+00  0.478629404335E+00
  0.466704927601E+00  0.440671143962E+00  0.000000000000E+00  0.499912145506E+00  0.499825742576E+00  0.499627515497E+00  0.499126118687E+00
  0.498222297183E+00  0.495788455040E+00  0.490887394945E+00  0.478559119350E+00  0.466811330823E+00  0.449563709952E+00  0.499911818953E+00
  0.499826619508E+00  0.499626670752E+00  0.499127630026E+00  0.498220524473E+00  0.495789803980E+00  0.490856308668E+00  0.478613034602E+00
  0.466815011863E+00  0.499912103706E+00  0.499826179602E+00  0.499627504977E+00  0.499126120996E+00  0.498221684177E+00  0.495775583024E+00
  0.490881272827E+00  0.478292368541E+00  0.499912013077E+00  0.499826592716E+00  0.499626672239E+00  0.499127497716E+00  0.498215212514E+00
  0.495787051006E+00  0.490773606040E+00  0.499912111957E+00  0.499826180561E+00  0.499627518346E+00  0.499123964060E+00  0.498220875149E+00
  0.495753578446E+00  0.499912013670E+00  0.499826621340E+00  0.499625700857E+00  0.499127443789E+00  0.498208857967E+00  0.499912104837E+00
  0.499825745138E+00  0.499627637623E+00  0.499122038698E+00  0.499911820535E+00  0.499826731161E+00  0.499624942464E+00  0.499912147337E+00
  0.499825428870E+00  0.499911688254E+00
  0.000000000000E+00  0.000000000000E+00  0.000000000000E+00  0.000000000000E+00 -0.100255634383E-02  0.000000000000E+00  0.000000000000E+00
 -0.248578561231E-03 -0.682968718598E-04  0.000000000000E+00  0.000000000000E+00 -0.722808251212E-04 -0.185853355815E-04  0.245659063454E-05
  0.000000000000E+00  0.000000000000E+00 -0.120104300554E-05 -0.691808734781E-05 -0.111685965861E-04  0.229706365564E-04  0.000000000000E+00
  0.000000000000E+00  0.327660139555E-05  0.458409221104E-05 -0.219037887689E-05  0.642249337124E-05 -0.105692518798E-06  0.000000000000E+00
  0.000000000000E+00  0.195536394960E-05  0.269028833819E-05  0.228480664330E-05  0.533294285440E-05 -0.472691981515E-07 -0.231977696468E-04
  0.000000000000E+00  0.000000000000E+00  0.646782462794E-06  0.167295982381E-05  0.224012046893E-05  0.306854667495E-05 -0.187480887646E-07
 -0.652289615996E-05 -0.272299866586E-05  0.000000000000E+00  0.000000000000E+00  0.177293187812E-06  0.812671238361E-06  0.140270316035E-05
  0.180774625678E-05 -0.490156548804E-08 -0.537259256518E-05  0.110552243735E-04  0.680072617938E-04  0.000000000000E+00  0.000000000000E+00
  0.473935757465E-07  0.388091390729E-06  0.619861934695E-06  0.944873342780E-06 -0.166422325392E-08 -0.307855538875E-05  0.214560042647E-05
  0.184646193577E-04  0.100229729176E-02  0.000000000000E+00  0.423809833904E-07  0.171450992543E-06  0.239700089129E-06  0.438568935208E-06
 -0.344520253281E-09 -0.181119908565E-05 -0.229507573753E-05  0.686318920708E-05  0.248496778464E-03  0.000000000000E+00  0.795953218195E-07
  0.860807773804E-07  0.207979061069E-06 -0.796541406949E-10 -0.945590030571E-06 -0.224361937682E-05 -0.459592722550E-05  0.722300539748E-04
  0.000000000000E+00  0.686859237286E-07  0.957626307400E-07  0.452879877371E-11 -0.438743229999E-06 -0.140335575014E-05 -0.269386393869E-05
  0.119021772038E-05  0.000000000000E+00  0.498255926012E-07  0.356684966399E-10 -0.207976375100E-06 -0.619992434996E-06 -0.167367840272E-05
 -0.327896976008E-05  0.000000000000E+00  0.121579992789E-09 -0.956953457380E-07 -0.239679987390E-06 -0.812843853910E-06 -0.195573186892E-05
  0.000000000000E+00 -0.495928958460E-07 -0.860176653159E-07 -0.388102811107E-06 -0.646857514701E-06  0.000000000000E+00 -0.684824514212E-07
 -0.171413101551E-06 -0.177300965711E-06  0.000000000000E+00 -0.794455888060E-07 -0.473775894873E-07  0.000000000000E+00 -0.423035239992E-07
  0.000000000000E+00  0.000000000000E+00
  0.000000000000E+00  0.287469543573E+00  0.000000000000E+00  0.101261603274E+00  0.288318385511E+00  0.000000000000E+00  0.313941238833E-01
  0.100469008168E+00  0.288179463291E+00  0.000000000000E+00  0.895734564716E-02  0.313220212646E-01  0.100327038646E+00  0.288173876795E+00
  0.000000000000E+00  0.205133566043E-02  0.899108886624E-02  0.312656349938E-01  0.100252518608E+00  0.288180606928E+00  0.000000000000E+00
  0.382454356016E-03  0.207901819560E-02  0.895721936620E-02  0.312547003370E-01  0.100250145327E+00  0.288182508239E+00  0.000000000000E+00
 -0.368853628264E-04  0.394427389995E-03  0.206388337886E-02  0.896152508244E-02  0.312545162128E-01  0.100252220969E+00  0.288180449646E+00
  0.000000000000E+00 -0.562457974769E-04 -0.327037102866E-04  0.388298190539E-03  0.207111723585E-02  0.896011816619E-02  0.312552749945E-01
  0.100250020208E+00  0.288173526196E+00  0.000000000000E+00 -0.365320132645E-04 -0.550190575118E-04 -0.349606029209E-04  0.392947055328E-03
  0.207049893204E-02  0.896118683463E-02  0.312544805356E-01  0.100252252109E+00  0.288178856510E+00  0.000000000000E+00  0.280332379099E-04
 -0.363143269657E-04 -0.556866420440E-04 -0.326168278395E-04  0.392383769852E-03  0.207144338816E-02  0.896010431092E-02  0.312546271074E-01
  0.100326598103E+00  0.288317412371E+00  0.000000000000E+00  0.274921919800E-04 -0.364023798503E-04 -0.548030318738E-04 -0.330400142115E-04
  0.393207071995E-03  0.207049523344E-02  0.896149646379E-02  0.312655200214E-01  0.100468315234E+00  0.287468259300E+00  0.279460736845E-04
 -0.361981915459E-04 -0.549036809317E-04 -0.324248744792E-04  0.392382628898E-03  0.207110975367E-02  0.895717486014E-02  0.313218412450E-01
  0.101260665201E+00  0.275698787626E-04 -0.361490571340E-04 -0.546958242215E-04 -0.330402582419E-04  0.392944827657E-03  0.206387175039E-02
  0.899102692619E-02  0.313938847799E-01  0.278592035215E-04 -0.361486031373E-04 -0.549037593907E-04 -0.326173008193E-04  0.388294857631E-03
  0.207900255753E-02  0.895727000248E-02  0.276045595878E-04 -0.361491618879E-04 -0.548031803650E-04 -0.349612724753E-04  0.394423208270E-03
  0.205131665229E-02  0.278588647309E-04 -0.361983864044E-04 -0.556868352316E-04 -0.327045597331E-04  0.382449024205E-03  0.275692358295E-04
 -0.364026449409E-04 -0.550193118203E-04 -0.368866190414E-04  0.279451780347E-04 -0.363146528198E-04 -0.562461810387E-04  0.274911428060E-04
 -0.365323791208E-04  0.280320911642E-04
  0.130200502622E+01  0.805738469026E+00  0.130057320742E+01  0.774934461271E+00  0.803186077333E+00  0.130032127333E+01  0.741415136577E+00
  0.774527986768E+00  0.803205712042E+00  0.130037021371E+01  0.724194565493E+00  0.741191151833E+00  0.774593065977E+00  0.802987098285E+00
  0.130039209269E+01  0.718373002512E+00  0.724126126157E+00  0.741205603604E+00  0.774514700598E+00  0.802961783610E+00  0.130039240115E+01
  0.715806141759E+00  0.718352504108E+00  0.724137625004E+00  0.741156989861E+00  0.774506369832E+00  0.802953119110E+00  0.130039176384E+01
  0.714970833289E+00  0.715797921894E+00  0.718358892750E+00  0.724117496413E+00  0.741152510536E+00  0.774498991683E+00  0.802961660557E+00
  0.130036947779E+01  0.714547480291E+00  0.714966483923E+00  0.715802434078E+00  0.718350266394E+00  0.724117777319E+00  0.741147528281E+00
  0.774506328492E+00  0.802986837760E+00  0.130032000415E+01  0.714393585800E+00  0.714544967137E+00  0.714969591722E+00  0.715798125707E+00
  0.718351180889E+00  0.724114591843E+00  0.741152475072E+00  0.774514614450E+00  0.803205287360E+00  0.130057130586E+01  0.714329727754E+00
  0.714392177019E+00  0.714546891993E+00  0.714967058179E+00  0.715799321626E+00  0.718349401996E+00  0.724117763162E+00  0.741156915581E+00
  0.774592935758E+00  0.803185509919E+00  0.130200253420E+01  0.714329019399E+00  0.714393293743E+00  0.714545416096E+00  0.714968244063E+00
  0.715798066651E+00  0.718351173491E+00  0.724117467262E+00  0.741205490065E+00  0.774527788729E+00  0.805737740690E+00  0.714329595999E+00
  0.714392443498E+00  0.714546196664E+00  0.714967206350E+00  0.715799317892E+00  0.718350251492E+00  0.724137581995E+00  0.741190990562E+00
  0.774934202320E+00  0.714329151060E+00  0.714392934709E+00  0.714545563786E+00  0.714968241797E+00  0.715798118283E+00  0.718358871380E+00
  0.724126065702E+00  0.741414935905E+00  0.714329431355E+00  0.714392550421E+00  0.714546195221E+00  0.714967053755E+00  0.715802423624E+00
  0.718352476616E+00  0.724194492875E+00  0.714329210574E+00  0.714392933772E+00  0.714545413307E+00  0.714969585553E+00  0.715797909041E+00
  0.718372970652E+00  0.714329430810E+00  0.714392441701E+00  0.714546888123E+00  0.714966476585E+00  0.715806127041E+00  0.714329150015E+00
  0.714393291253E+00  0.714544962589E+00  0.714970824992E+00  0.714329594553E+00  0.714392174103E+00  0.714547475222E+00  0.714329017706E+00
  0.714393582598E+00  0.714329725893E+00
  0.000000000000E+00  0.531072694975E+00  0.000000000000E+00  0.470416031968E+00  0.524251547036E+00  0.000000000000E+00  0.476603143380E+00
  0.470295082542E+00  0.524020134513E+00  0.000000000000E+00  0.489885869985E+00  0.476939650038E+00  0.470158634838E+00  0.524205353854E+00
  0.000000000000E+00  0.495353636789E+00  0.490000337953E+00  0.476881816275E+00  0.470241062859E+00  0.524231229678E+00  0.000000000000E+00
  0.498057749672E+00  0.495389271703E+00  0.489973843751E+00  0.476955554941E+00  0.470249060167E+00  0.524244612974E+00  0.000000000000E+00
  0.499053753257E+00  0.498070599108E+00  0.495377067465E+00  0.490006806283E+00  0.476960468298E+00  0.470259818522E+00  0.524231221317E+00
  0.000000000000E+00  0.499598780858E+00  0.499059529441E+00  0.498064477354E+00  0.495392222435E+00  0.490005687304E+00  0.476969682424E+00
  0.470249058842E+00  0.524205330578E+00  0.000000000000E+00  0.499814634736E+00  0.499601729041E+00  0.499055803568E+00  0.498071391670E+00
  0.495390724353E+00  0.490011369058E+00  0.476960493562E+00  0.470241058367E+00  0.524020085768E+00  0.000000000000E+00  0.499907283103E+00
  0.499816089594E+00  0.499599599068E+00  0.499059529188E+00  0.498070105307E+00  0.495394147133E+00  0.490005700494E+00  0.476955607514E+00
  0.470158618295E+00  0.524251422604E+00  0.000000000000E+00  0.499907827467E+00  0.499814980967E+00  0.499601566412E+00  0.499058098211E+00
  0.498072016930E+00  0.495390731790E+00  0.490006833342E+00  0.476881896459E+00  0.470295050638E+00  0.531072506071E+00  0.499907429070E+00
  0.499815954238E+00  0.499600642554E+00  0.499059651182E+00  0.498070109392E+00  0.495392237220E+00  0.489973884187E+00  0.476939756298E+00
  0.470415991336E+00  0.499907772552E+00  0.499815453785E+00  0.499601541024E+00  0.499058100745E+00  0.498071399706E+00  0.495377088908E+00
  0.490000392746E+00  0.476603275792E+00  0.499907639561E+00  0.499815916736E+00  0.499600644185E+00  0.499059534081E+00  0.498064488866E+00
  0.495389298163E+00  0.489885936639E+00  0.499907775082E+00  0.499815454837E+00  0.499601569539E+00  0.499055810489E+00  0.498070612885E+00
  0.495353667580E+00  0.499907640209E+00  0.499815956250E+00  0.499599603451E+00  0.499059537539E+00  0.498057765460E+00  0.499907773787E+00
  0.499814983778E+00  0.499601734146E+00  0.499053762435E+00  0.499907430797E+00  0.499816092863E+00  0.499598786564E+00  0.499907829468E+00
  0.499814638337E+00  0.499907285305E+00
  0.999980624383E+00  0.100959958643E+01  0.999980559253E+00  0.103108492048E+01  0.100902122214E+01  0.999980507062E+00  0.101143956431E+01
  0.103087730481E+01  0.100905311052E+01  0.999980477498E+00  0.100396161551E+01  0.101134201618E+01  0.103089726072E+01  0.100897304494E+01
  0.999980484477E+00  0.100163246117E+01  0.100393536847E+01  0.101134497237E+01  0.103085762663E+01  0.100896300908E+01  0.999980546848E+00
  0.100060741439E+01  0.100162408729E+01  0.100393937744E+01  0.101132512397E+01  0.103085320858E+01  0.100895924868E+01  0.999980687857E+00
  0.100027365037E+01  0.100060410063E+01  0.100162686504E+01  0.100393178961E+01  0.101132359032E+01  0.103085024546E+01  0.100896303123E+01
  0.999980931605E+00  0.100010472506E+01  0.100027216261E+01  0.100060594103E+01  0.100162318716E+01  0.100393159800E+01  0.101132144887E+01
  0.103085317853E+01  0.100897309759E+01  0.999981294598E+00  0.100004318523E+01  0.100010371314E+01  0.100027315608E+01  0.100060418200E+01
  0.100162381107E+01  0.100393064406E+01  0.101132357427E+01  0.103085756245E+01  0.100905320840E+01  0.999981772786E+00  0.100001761903E+01
  0.100004257575E+01  0.100010448999E+01  0.100027239143E+01  0.100060470493E+01  0.100162284154E+01  0.100393159234E+01  0.101132509032E+01
  0.103089715770E+01  0.100902140124E+01  0.999982330849E+00  0.100001727844E+01  0.100004306814E+01  0.100010389385E+01  0.100027261838E+01
  0.100060416217E+01  0.100162380812E+01  0.100393177796E+01  0.101134492049E+01  0.103087714647E+01  0.100959985052E+01  0.100001756599E+01
  0.100004268249E+01  0.100010421081E+01  0.100027245050E+01  0.100060470344E+01  0.100162318122E+01  0.100393936025E+01  0.101134194111E+01
  0.103108470902E+01  0.100001733093E+01  0.100004292480E+01  0.100010395333E+01  0.100027261748E+01  0.100060417904E+01  0.100162685651E+01
  0.100393534433E+01  0.101143946953E+01  0.100001750048E+01  0.100004272534E+01  0.100010421023E+01  0.100027238966E+01  0.100060593686E+01
  0.100162407632E+01  0.100396158658E+01  0.100001735383E+01  0.100004292443E+01  0.100010389274E+01  0.100027315362E+01  0.100060409550E+01
  0.100163244845E+01  0.100001750026E+01  0.100004268177E+01  0.100010448844E+01  0.100027215968E+01  0.100060740851E+01  0.100001733051E+01
  0.100004306714E+01  0.100010371132E+01  0.100027364706E+01  0.100001756541E+01  0.100004257458E+01  0.100010472304E+01  0.100001727776E+01
  0.100004318395E+01  0.100001761829E+01
        67        57        46        56
        57        47        37        46
        47        38        29        37
        38        30        22        29
        30        23        16        22
        23        17        11        16
        17        12         7        11
        12         8         4         7
         8         5         2         4
         5         3         1         2
        77        68        57        67
        68        58        47        57
        58        48        38        47
        48        39        30        38
        39        31        23        30
        31        24        17        23
        24        18        12        17
        18        13         8        12
        13         9         5         8
         9         6         3         5
        86        78        68        77
        78        69        58        68
        69        59        48        58
        59        49        39        48
        49        40        31        39
        40        32        24        31
        32        25        18        24
        25        19        13        18
        19        14         9        13
        14        10         6         9
        94        87        78        86
        87        79        69        78
        79        70        59        69
        70        60        49        59
        60        50        40        49
        50        41        32        40
        41        33        25        32
        33        26        19        25
        26        20        14        19
        20        15        10        14
       101        95        87        94
        95        88        79        87
        88        80        70        79
        80        71        60        70
        71        61        50        60
        61        51        41        50
        51        42        33        41
        42        34        26        33
        34        27        20        26
        27        21        15        20
       107       102        95       101
       102        96        88        95
        96        89        80        88
        89        81        71        80
        81        72        61        71
        72        62        51        61
        62        52        42        51
        52        43        34        42
        43        35        27        34
        35        28        21        27
       112       108       102       107
       108       103        96       102
       103        97        89        96
        97        90        81        89
        90        82        72        81
        82        73        62        72
        73        63        52        62
        63        53        43        52
        53        44        35        43
        44        36        28        35
       116       113       108       112
       113       109       103       108
       109       104        97       103
       104        98        90        97
        98        91        82        90
        91        83        73        82
        83        74        63        73
        74        64        53        63
        64        54        44        53
        54        45        36        44
       119       117       113       116
       117       114       109       113
       114       110       104       109
       110       105        98       104
       105        99        91        98
        99        92        83        91
        92        84        74        83
        84        75        64        74
        75        65        54        64
        65        55        45        54
       121       120       117       119
       120       118       114       117
       118       115       110       114
       115       111       105       110
       111       106        99       105
       106       100        92        99
       100        93        84        92
        93        85        75        84
        85        76        65        75
        76        66        55        65
zone t="boundary 2 bc-2", solutiontime= 0.8000000E+02, strandid=1002, i=121, j=100, f=feblock
  0.000000000000E+00  0.500000000000E+00  0.000000000000E+00  0.100000000000E+01  0.500000000000E+00  0.000000000000E+00  0.150000000000E+01
  0.100000000000E+01  0.500000000000E+00  0.000000000000E+00  0.200000000000E+01  0.150000000000E+01  0.100000000000E+01  0.500000000000E+00
  0.000000000000E+00  0.250000000000E+01  0.200000000000E+01  0.150000000000E+01  0.100000000000E+01  0.500000000000E+00  0.000000000000E+00
  0.300000000000E+01  0.250000000000E+01  0.200000000000E+01  0.150000000000E+01  0.100000000000E+01  0.500000000000E+00  0.000000000000E+00
  0.350000000000E+01  0.300000000000E+01  0.250000000000E+01  0.200000000000E+01  0.150000000000E+01  0.100000000000E+01  0.500000000000E+00
  0.000000000000E+00  0.400000000000E+01  0.350000000000E+01  0.300000000000E+01  0.250000000000E+01  0.200000000000E+01  0.150000000000E+01
  0.100000000000E+01  0.500000000000E+00  0.000000000000E+00  0.450000000000E+01  0.400000000000E+01  0.350000000000E+01  0.300000000000E+01
  0.250000000000E+01  0.200000000000E+01  0.150000000000E+01  0.100000000000E+01  0.500000000000E+00  0.000000000000E+00  0.500000000000E+01