title="tecplot geometry and solution file"
variables = x y z rho u v w p mach temperature
zone t="boundary 1 bc-1", solutiontime= 0.1000000E+02, strandid=1001, i=121, j=100, f=feblock
  0.000000000000E+00  0.000000000000E+00  0.000000000000E+00  0.000000000000E+00  0.000000000000E+00  0.000000000000E+00  0.000000000000E+00
  0.000000000000E+00  0.000000000000E+00  0.000000000000E+00  0.000000000000E+00  0.000000000000E+00  0.000000000000E+00  0.000000000000E+00
  0.000000000000E+00  0.000000000000E+00  0.000000000000E+00  0.000000000000E+00  0.000000000000E+00  0.000000000000E+00  0.000000000000E+00
  0.000000000000E+00  0.000000000000E+00  0.000000000000E+00  0.000000000000E+00  0.000000000000E+00  0.000000000000E+00  0.000000000000E+00
  0.000000000000E+00  0.000000000000E+00  0.000000000000E+00  0.000000000000E+00  0.000000000000E+00  0.000000000000E+00  0.000000000000E+00
  0.000000000000E+00  0.000000000000E+00  0.000000000000E+00  0.000000000000E+00  0.000000000000E+00  0.000000000000E+00  0.000000000000E+00
  0.000000000000E+00  0.000000000000E+00  0.000000000000E+00  0.000000000000E+00  0.000000000000E+00  0.000000000000E+00  0.000000000000E+00
  0.000000000000E+00  0.000000000000E+00  0.000000000000E+00  0.000000000000E+00  0.000000000000E+00  0.000000000000E+00  0.000000000000E+00
  0.000000000000E+00  0.000000000000E+00  0.000000000000E+00  0.000000000000E+00  0.000000000000E+00  0.000000000000E+00  0.000000000000E+00
  0.000000000000E+00  0.000000000000E+00  0.000000000000E+00  0.000000000000E+00  0.000000000000E+00  0.000000000000E+00  0.000000000000E+00
  0.000000000000E+00  0.000000000000E+00  0.000000000000E+00  0.000000000000E+00  0.000000000000E+00  0.000000000000E+00  0.000000000000E+00
  0.000000000000E+00  0.000000000000E+00  0.000000000000E+00  0.000000000000E+00  0.000000000000E+00  0.000000000000E+00  0.000000000000E+00
  0.000000000000E+00  0.000000000000E+00  0.000000000000E+00  0.000000000000E+00  0.000000000000E+00  0.000000000000E+00  0.000000000000E+00
  0.000000000000E+00  0.000000000000E+00  0.000000000000E+00  0.000000000000E+00  0.000000000000E+00  0.000000000000E+00  0.000000000000E+00
  0.000000000000E+00  0.000000000000E+00  0.000000000000E+00  0.000000000000E+00  0.000000000000E+00  0.000000000000E+00  0.000000000000E+00
  0.000000000000E+00  0.000000000000E+00  0.000000000000E+00  0.000000000000E+00  0.000000000000E+00  0.000000000000E+00  0.000000000000E+00
  0.000000000000E+00  0.000000000000E+00  0.000000000000E+00  0.000000000000E+00  0.000000000000E+00  0.000000000000E+00  0.000000000000E+00
  0.000000000000E+00  0.000000000000E+00
  0.250000000000E+01  0.250000000000E+01  0.200000000000E+01  0.250000000000E+01  0.200000000000E+01  0.150000000000E+01  0.250000000000E+01
  0.200000000000E+01  0.150000000000E+01  0.100000000000E+01  0.250000000000E+01  0.200000000000E+01  0.150000000000E+01  0.100000000000E+01
  0.500000000000E+00  0.250000000000E+01  0.200000000000E+01  0.150000000000E+01  0.100000000000E+01  0.500000000000E+00  0.000000000000E+00
  0.250000000000E+01  0.200000000000E+01  0.150000000000E+01  0.100000000000E+01  0.500000000000E+00  0.000000000000E+00 -0.500000000000E+00
  0.250000000000E+01  0.200000000000E+01  0.150000000000E+01  0.100000000000E+01  0.500000000000E+00  0.000000000000E+00 -0.500000000000E+00
 -0.100000000000E+01  0.250000000000E+01  0.200000000000E+01  0.150000000000E+01  0.100000000000E+01  0.500000000000E+00  0.000000000000E+00
 -0.500000000000E+00 -0.100000000000E+01 -0.150000000000E+01  0.250000000000E+01  0.200000000000E+01  0.150000000000E+01  0.100000000000E+01
  0.500000000000E+00  0.000000000000E+00 -0.500000000000E+00 -0.100000000000E+01 -0.150000000000E+01 -0.200000000000E+01  0.250000000000E+01
  0.200000000000E+01  0.150000000000E+01  0.100000000000E+01  0.500000000000E+00  0.000000000000E+00 -0.500000000000E+00 -0.100000000000E+01
 -0.150000000000E+01 -0.200000000000E+01 -0.250000000000E+01  0.200000000000E+01  0.150000000000E+01  0.100000000000E+01  0.500000000000E+00
  0.000000000000E+00 -0.500000000000E+00 -0.100000000000E+01 -0.150000000000E+01 -0.200000000000E+01 -0.250000000000E+01  0.150000000000E+01
  0.100000000000E+01  0.500000000000E+00  0.000000000000E+00 -0.500000000000E+00 -0.100000000000E+01 -0.150000000000E+01 -0.200000000000E+01
 -0.250000000000E+01  0.100000000000E+01  0.500000000000E+00  0.000000000000E+00 -0.500000000000E+00 -0.100000000000E+01 -0.150000000000E+01
 -0.200000000000E+01 -0.250000000000E+01  0.500000000000E+00  0.000000000000E+00 -0.500000000000E+00 -0.100000000000E+01 -0.150000000000E+01
 -0.200000000000E+01 -0.250000000000E+01  0.000000000000E+00 -0.500000000000E+00 -0.100000000000E+01 -0.150000000000E+01 -0.200000000000E+01
 -0.250000000000E+01 -0.500000000000E+00 -0.100000000000E+01 -0.150000000000E+01 -0.200000000000E+01 -0.250000000000E+01 -0.100000000000E+01
 -0.150000000000E+01 -0.200000000000E+01 -0.250000000000E+01 -0.150000000000E+01 -0.200000000000E+01 -0.250000000000E+01 -0.200000000000E+01
 -0.250000000000E+01 -0.250000000000E+01
  0.000000000000E+00  0.500000000000E+00  0.000000000000E+00  0.100000000000E+01  0.500000000000E+00  0.000000000000E+00  0.150000000000E+01
  0.100000000000E+01  0.500000000000E+00  0.000000000000E+00  0.200000000000E+01  0.150000000000E+01  0.100000000000E+01  0.500000000000E+00
  0.000000000000E+00  0.250000000000E+01  0.200000000000E+01  0.150000000000E+01  0.100000000000E+01  0.500000000000E+00  0.000000000000E+00
  0.300000000000E+01  0.250000000000E+01  0.200000000000E+01  0.150000000000E+01  0.100000000000E+01  0.500000000000E+00  0.000000000000E+00
  0.350000000000E+01  0.300000000000E+01  0.250000000000E+01  0.200000000000E+01  0.150000000000E+01  0.100000000000E+01  0.500000000000E+00
  0.000000000000E+00  0.400000000000E+01  0.350000000000E+01  0.300000000000E+01  0.250000000000E+01  0.200000000000E+01  0.150000000000E+01
  0.100000000000E+01  0.500000000000E+00  0.000000000000E+00  0.450000000000E+01  0.400000000000E+01  0.350000000000E+01  0.300000000000E+01
  0.250000000000E+01  0.200000000000E+01  0.150000000000E+01  0.100000000000E+01  0.500000000000E+00  0.000000000000E+00  0.500000000000E+01
  0.450000000000E+01  0.400000000000E+01  0.350000000000E+01  0.300000000000E+01  0.250000000000E+01  0.200000000000E+01  0.150000000000E+01
  0.100000000000E+01  0.500000000000E+00  0.000000000000E+00  0.500000000000E+01  0.450000000000E+01  0.400000000000E+01  0.350000000000E+01
  0.300000000000E+01  0.250000000000E+01  0.200000000000E+01  0.150000000000E+01  0.100000000000E+01  0.500000000000E+00  0.500000000000E+01
  0.450000000000E+01  0.400000000000E+01  0.350000000000E+01  0.300000000000E+01  0.250000000000E+01  0.200000000000E+01  0.150000000000E+01
  0.100000000000E+01  0.500000000000E+01  0.450000000000E+01  0.400000000000E+01  0.350000000000E+01  0.300000000000E+01  0.250000000000E+01
  0.200000000000E+01  0.150000000000E+01  0.500000000000E+01  0.450000000000E+01  0.400000000000E+01  0.350000000000E+01  0.300000000000E+01
  0.250000000000E+01  0.200000000000E+01  0.500000000000E+01  0.450000000000E+01  0.400000000000E+01  0.350000000000E+01  0.300000000000E+01
  0.250000000000E+01  0.500000000000E+01  0.450000000000E+01  0.400000000000E+01  0.350000000000E+01  0.300000000000E+01  0.500000000000E+01
  0.450000000000E+01  0.400000000000E+01  0.350000000000E+01  0.500000000000E+01  0.450000000000E+01  0.400000000000E+01  0.500000000000E+01
  0.450000000000E+01  0.500000000000E+01
  0.190062522501E+01  0.114984379338E+01  0.189825511148E+01  0.104818656230E+01  0.114686246123E+01  0.189762753943E+01  0.101493007996E+01
  0.104799849948E+01  0.114657007817E+01  0.189764211496E+01  0.101052706701E+01  0.101473299304E+01  0.104808779837E+01  0.114650976351E+01
  0.189765536405E+01  0.100596850361E+01  0.101030979270E+01  0.101470617576E+01  0.104794015367E+01  0.114623661424E+01  0.189768404069E+01
  0.100145369893E+01  0.100594025922E+01  0.101047359194E+01  0.101466950992E+01  0.104798391943E+01  0.114647823605E+01  0.189765604830E+01
  0.998815080941E+00  0.100158171973E+01  0.100595381789E+01  0.101029439203E+01  0.101464475735E+01  0.104792696010E+01  0.114623674358E+01
  0.189764359180E+01  0.998615046620E+00  0.998736752484E+00  0.100145139539E+01  0.100593539407E+01  0.101045300656E+01  0.101466020504E+01
  0.104798393629E+01  0.114651003900E+01  0.189763003395E+01  0.998233027868E+00  0.998565126288E+00  0.998814058486E+00  0.100158016743E+01
  0.100594638828E+01  0.101029163462E+01  0.101464477893E+01  0.104794018726E+01  0.114657053115E+01  0.189825897112E+01  0.998190217047E+00
  0.998200918606E+00  0.998614444219E+00  0.998735791214E+00  0.100144858990E+01  0.100593442138E+01  0.101045301712E+01  0.101466955349E+01
  0.104808785454E+01  0.114686312337E+01  0.190063035189E+01  0.998144867078E+00  0.998232680909E+00  0.998564609936E+00  0.998812716280E+00
  0.100157971814E+01  0.100594639289E+01  0.101029441095E+01  0.101470624608E+01  0.104799853321E+01  0.114984465416E+01  0.998189882115E+00
  0.998200724522E+00  0.998613807235E+00  0.998735471843E+00  0.100144859205E+01  0.100593540259E+01  0.101047362479E+01  0.101473307190E+01
  0.104818657305E+01  0.998144673565E+00  0.998232384392E+00  0.998564401614E+00  0.998812718067E+00  0.100158017173E+01  0.100595383064E+01
  0.101030982453E+01  0.101493016640E+01  0.998189855533E+00  0.998200595046E+00  0.998613808296E+00  0.998735794375E+00  0.100145140026E+01
  0.100594027380E+01  0.101052710705E+01  0.998144670658E+00  0.998232384925E+00  0.998564611696E+00  0.998814063076E+00  0.100158172870E+01
  0.100596851108E+01  0.998189855812E+00  0.998200725272E+00  0.998614446848E+00  0.998736757821E+00  0.100145369995E+01  0.998144673897E+00
  0.998232682165E+00  0.998565129656E+00  0.998815086704E+00  0.998189882817E+00  0.998200919601E+00  0.998615046033E+00  0.998144867638E+00
  0.998233031640E+00  0.998190221585E+00
  0.000000000000E+00  0.437329095553E+00  0.000000000000E+00  0.466891447131E+00  0.426270645254E+00  0.000000000000E+00  0.487114387232E+00
  0.466602439805E+00  0.425975924066E+00  0.000000000000E+00  0.489395713947E+00  0.487290492664E+00  0.466466365460E+00  0.426144626059E+00
  0.000000000000E+00  0.495772424463E+00  0.489559024523E+00  0.487326367517E+00  0.466551752378E+00  0.426215595279E+00  0.000000000000E+00
  0.499083253955E+00  0.495925388327E+00  0.489501711836E+00  0.487336299123E+00  0.466587728842E+00  0.426199984259E+00  0.000000000000E+00
  0.500400202361E+00  0.499321330679E+00  0.495818904069E+00  0.489579695607E+00  0.487402947428E+00  0.466586220624E+00  0.426215528802E+00
  0.000000000000E+00  0.501167463169E+00  0.500351629027E+00  0.499098659166E+00  0.495932900074E+00  0.489536555625E+00  0.487359364797E+00
  0.466587712005E+00  0.426144483156E+00  0.000000000000E+00  0.501677508132E+00  0.501355069831E+00  0.500404426873E+00  0.499322118328E+00
  0.495834835726E+00  0.489590227641E+00  0.487402931796E+00  0.466551718459E+00  0.425975684867E+00  0.000000000000E+00  0.500895310117E+00
  0.501691909943E+00  0.501168096752E+00  0.500350793946E+00  0.499105144924E+00  0.495937999679E+00  0.489536547576E+00  0.487336269235E+00
  0.466466307356E+00  0.426270285430E+00  0.000000000000E+00  0.500904340883E+00  0.501677292940E+00  0.501354076350E+00  0.500407125399E+00
  0.499324302087E+00  0.495834831433E+00  0.489579677110E+00  0.487326316176E+00  0.466602392461E+00  0.437328667294E+00  0.500894731865E+00
  0.501691201933E+00  0.501169102708E+00  0.500351779418E+00  0.499105142745E+00  0.495932891910E+00  0.489501687126E+00  0.487290431959E+00
  0.466891411556E+00  0.500903779770E+00  0.501677701575E+00  0.501354491069E+00  0.500407124433E+00  0.499322114080E+00  0.495818891611E+00
  0.489558988583E+00  0.487114314469E+00  0.500894950474E+00  0.501691402226E+00  0.501169101760E+00  0.500350792472E+00  0.499098652725E+00
  0.495925373082E+00  0.489395687574E+00  0.500903905152E+00  0.501677701153E+00  0.501354074736E+00  0.500404424845E+00  0.499321323005E+00
  0.495772400207E+00  0.500894949986E+00  0.501691201306E+00  0.501168093842E+00  0.500351626630E+00  0.499083249345E+00  0.500903778977E+00
  0.501677291405E+00  0.501355067162E+00  0.500400190655E+00  0.500894729906E+00  0.501691909052E+00  0.501167468016E+00  0.500904341414E+00
  0.501677504676E+00  0.500895305926E+00
  0.000000000000E+00  0.000000000000E+00  0.000000000000E+00  0.000000000000E+00 -0.128445889810E-02  0.000000000000E+00  0.000000000000E+00
 -0.195024542271E-03 -0.113846487833E-03  0.000000000000E+00  0.000000000000E+00 -0.643853089632E-04  0.210415025453E-04 -0.513170352778E-05
  0.000000000000E+00  0.000000000000E+00 -0.385403688502E-05  0.154055464239E-04  0.145209037854E-04  0.262963456804E-04  0.000000000000E+00
  0.000000000000E+00  0.559457552609E-05  0.130591762106E-04  0.390892951659E-05  0.177844573184E-04  0.708020135355E-07  0.000000000000E+00
  0.000000000000E+00  0.456368253777E-05  0.806902021544E-05  0.298091497131E-05  0.582827352929E-05  0.275017911174E-07 -0.261458448085E-04
  0.000000000000E+00  0.000000000000E+00  0.193597495496E-05  0.394256893013E-05  0.249733021148E-05  0.240912457905E-05  0.100590593145E-07
 -0.177233579733E-04  0.530479146888E-05  0.000000000000E+00  0.000000000000E+00  0.685819769638E-06  0.131711593744E-05  0.123509164282E-05
  0.142838908053E-05  0.525427939298E-08 -0.580099328923E-05 -0.144543810869E-04  0.114042759530E-03  0.000000000000E+00  0.000000000000E+00
  0.120282496726E-06  0.336244595490E-06  0.270400432864E-06  0.648142083517E-06  0.733695916601E-08 -0.239922512052E-05 -0.388864839024E-05
 -0.209720509423E-04  0.128463235458E-02  0.000000000000E+00 -0.683822545890E-07 -0.233799632836E-07 -0.263740690317E-07  0.153899832147E-06
  0.243663354661E-08 -0.143218950251E-05 -0.297131990911E-05 -0.153856427575E-04  0.195098205815E-03  0.000000000000E+00 -0.201797259659E-06
 -0.115876752809E-06  0.149975314248E-08 -0.404650776474E-09 -0.644126779608E-06 -0.248376268647E-05 -0.130534441013E-04  0.643924305343E-04
  0.000000000000E+00 -0.137589829954E-06 -0.396760235898E-07  0.135042144641E-08 -0.150486846376E-06 -0.123178048196E-05 -0.807555115968E-05
  0.385916234065E-05  0.000000000000E+00 -0.392375241062E-07 -0.102505368474E-08 -0.286098614605E-08 -0.270470930274E-06 -0.394272548334E-05
 -0.558689147048E-05  0.000000000000E+00 -0.299439549569E-08  0.417173965628E-07  0.289770619098E-07 -0.131242087599E-05 -0.457125025053E-05
  0.000000000000E+00  0.361569123968E-07  0.113749797359E-06 -0.338012398649E-06 -0.193420316252E-05  0.000000000000E+00  0.132548188523E-06
  0.248332599252E-07 -0.684270246970E-06  0.000000000000E+00  0.200353956018E-06 -0.123167657556E-06  0.000000000000E+00  0.666543016124E-07
  0.000000000000E+00  0.000000000000E+00
  0.000000000000E+00  0.287404422886E+00  0.000000000000E+00  0.113363996600E+00  0.288458899894E+00  0.000000000000E+00  0.349164398709E-01
  0.112293355300E+00  0.288387103524E+00  0.000000000000E+00  0.796422883305E-02  0.349467350924E-01  0.112209303662E+00  0.288361455400E+00
  0.000000000000E+00  0.153251668121E-02  0.800264664302E-02  0.347899252032E-01  0.112194875372E+00  0.288360338003E+00  0.000000000000E+00
  0.114967327778E-02  0.157896608663E-02  0.800114193630E-02  0.349715493925E-01  0.112070021833E+00  0.288360603092E+00  0.000000000000E+00
  0.908926519599E-03  0.101702307830E-02  0.158522238711E-02  0.801920329907E-02  0.347434922782E-01  0.112180876797E+00  0.288360443687E+00
  0.000000000000E+00 -0.641906626081E-04  0.916866696076E-03  0.117602670810E-02  0.158697301242E-02  0.798619622307E-02  0.349701423381E-01
  0.112070107171E+00  0.288361681736E+00  0.000000000000E+00 -0.202832440919E-03 -0.192443020617E-03  0.918637825096E-03  0.101717132293E-02
  0.158174842145E-02  0.802109302224E-02  0.347435184220E-01  0.112195056611E+00  0.288387478922E+00  0.000000000000E+00 -0.873710265143E-03
 -0.233200330039E-03 -0.619671194412E-04  0.914557741563E-03  0.117478998137E-02  0.158929918522E-02  0.798620524074E-02  0.349716017070E-01
  0.112209593335E+00  0.288459407402E+00  0.000000000000E+00 -0.923047231762E-03 -0.202921381469E-03 -0.194833168175E-03  0.917911633341E-03
  0.101864784254E-02  0.158175210801E-02  0.801922389521E-02  0.347900102958E-01  0.112293697114E+00  0.287405010938E+00 -0.874511311846E-03
 -0.234714732267E-03 -0.624608077542E-04  0.915382317281E-03  0.117479125209E-02  0.158698255477E-02  0.800117145890E-02  0.349468083058E-01
  0.113364365990E+00 -0.923882494390E-03 -0.203128898292E-03 -0.194390578019E-03  0.917911669645E-03  0.101717422424E-02  0.158523621302E-02
  0.800267677332E-02  0.349164978994E-01 -0.874515546690E-03 -0.234460622675E-03 -0.624606165581E-04  0.914557955358E-03  0.117603205534E-02
  0.157898476287E-02  0.796423838089E-02 -0.923734580746E-03 -0.203129058519E-03 -0.194832765132E-03  0.918638773464E-03  0.101703274766E-02
  0.153252009974E-02 -0.874515585911E-03 -0.234715052570E-03 -0.619656665485E-04  0.916871070680E-03  0.114968499032E-02 -0.923882722176E-03
 -0.202921444518E-03 -0.192439972207E-03  0.908925929981E-03 -0.874511600188E-03 -0.233199541589E-03 -0.641900075090E-04 -0.923047084291E-03
 -0.202835014786E-03 -0.873707581133E-03
  0.135760322677E+01  0.819020616513E+00  0.135591030248E+01  0.772718290190E+00  0.815912956893E+00  0.135546205132E+01  0.735021422560E+00
  0.772419332238E+00  0.815887641440E+00  0.135547246257E+01  0.724627015293E+00  0.734763047252E+00  0.772515198008E+00  0.815631259127E+00
  0.135548189737E+01  0.718405231112E+00  0.724418352387E+00  0.734784518129E+00  0.772381889763E+00  0.815574670503E+00  0.135550231015E+01
  0.715012671641E+00  0.718461560556E+00  0.724575905903E+00  0.734716571205E+00  0.772412660390E+00  0.815594740153E+00  0.135548218777E+01
  0.713231847786E+00  0.715112216142E+00  0.718390343440E+00  0.724408186374E+00  0.734724074755E+00  0.772366218143E+00  0.815574750278E+00
  0.135547309119E+01  0.712824793941E+00  0.713206882425E+00  0.715009705974E+00  0.718457094523E+00  0.724554586384E+00  0.734706369312E+00
  0.772412686372E+00  0.815631427867E+00  0.135546312846E+01  0.712682949010E+00  0.712823724519E+00  0.713230750337E+00  0.715110595213E+00
  0.718381785682E+00  0.724404642086E+00  0.734724097961E+00  0.772381942692E+00  0.815887915805E+00  0.135591202223E+01  0.712779850990E+00
  0.712676918248E+00  0.712824227333E+00  0.713206011472E+00  0.715006348783E+00  0.718455526696E+00  0.724554597007E+00  0.734716617890E+00
  0.772515284890E+00  0.815913355549E+00  0.135760548429E+01  0.712747723987E+00  0.712682644475E+00  0.712823283137E+00  0.713229223990E+00
  0.715109896734E+00  0.718381790601E+00  0.724408206393E+00  0.734784593220E+00  0.772419409797E+00  0.819021130784E+00  0.712779579362E+00
  0.712676762620E+00  0.712823534200E+00  0.713205618454E+00  0.715006351112E+00  0.718457103856E+00  0.724575938468E+00  0.734763130939E+00
  0.772718357728E+00  0.712747560845E+00  0.712682330191E+00  0.712823057387E+00  0.713229225574E+00  0.715110599872E+00  0.718390357237E+00
  0.724418385339E+00  0.735021517767E+00  0.712779529530E+00  0.712676632244E+00  0.712823535128E+00  0.713206014295E+00  0.715009711595E+00
  0.718461576409E+00  0.724627054336E+00  0.712747553157E+00  0.712682330711E+00  0.712823284690E+00  0.713230754483E+00  0.715112225153E+00
  0.718405239393E+00  0.712779529822E+00  0.712676763385E+00  0.712824229689E+00  0.713206887066E+00  0.715012673628E+00  0.712747561264E+00
  0.712682645783E+00  0.712823727209E+00  0.713231853765E+00  0.712779580295E+00  0.712676918971E+00  0.712824793469E+00  0.712747724355E+00
  0.712682952874E+00  0.712779855709E+00
  0.000000000000E+00  0.524047599185E+00  0.000000000000E+00  0.472932641890E+00  0.515732531879E+00  0.000000000000E+00  0.485006834646E+00
  0.472457562118E+00  0.515388342580E+00  0.000000000000E+00  0.488506512522E+00  0.485221617097E+00  0.472298741099E+00  0.515581354548E+00
  0.000000000000E+00  0.495824374644E+00  0.488687937029E+00  0.485232536140E+00  0.472384632446E+00  0.515596083962E+00  0.000000000000E+00
  0.499193245807E+00  0.495951092916E+00  0.488617194197E+00  0.485268922764E+00  0.472390801536E+00  0.515631271551E+00  0.000000000000E+00
  0.500473811707E+00  0.499428243108E+00  0.495872543010E+00  0.488708540460E+00  0.485310392724E+00  0.472416220762E+00  0.515596091997E+00
  0.000000000000E+00  0.501333248222E+00  0.500414381592E+00  0.499209176911E+00  0.495958972646E+00  0.488653933582E+00  0.485292817006E+00
  0.472390800892E+00  0.515581371670E+00  0.000000000000E+00  0.501797428664E+00  0.501508790410E+00  0.500478183445E+00  0.499429210207E+00
  0.495889587469E+00  0.488719610455E+00  0.485310376579E+00  0.472384633079E+00  0.515388370175E+00  0.000000000000E+00  0.500970964544E+00
  0.501805899543E+00  0.501333929773E+00  0.500413606906E+00  0.499216133872E+00  0.495964381273E+00  0.488653924667E+00  0.485268891875E+00
  0.472298738273E+00  0.515732541596E+00  0.000000000000E+00  0.500979995125E+00  0.501797233462E+00  0.501507823152E+00  0.500481080278E+00
  0.499431529326E+00  0.495889582626E+00  0.488708520162E+00  0.485232483316E+00  0.472457579451E+00  0.524047595827E+00  0.500970399013E+00
  0.501805198085E+00  0.501335019973E+00  0.500414651875E+00  0.499216131417E+00  0.495958963390E+00  0.488617166983E+00  0.485221553382E+00
  0.472932675413E+00  0.500979444241E+00  0.501797678394E+00  0.501508264927E+00  0.500481079204E+00  0.499429205409E+00  0.495872528976E+00
  0.488687898238E+00  0.485006755928E+00  0.500970628503E+00  0.501805411660E+00  0.501335018964E+00  0.500413605234E+00  0.499209169732E+00
  0.495951075854E+00  0.488506482874E+00  0.500979571342E+00  0.501797677923E+00  0.501507821433E+00  0.500478181114E+00  0.499428234542E+00
  0.495824349381E+00  0.500970627982E+00  0.501805197377E+00  0.501333926693E+00  0.500414378912E+00  0.499193240784E+00  0.500979443384E+00
  0.501797231781E+00  0.501508787639E+00  0.500473799343E+00  0.500970396902E+00  0.501805898648E+00  0.501333253089E+00  0.500979995667E+00
  0.501797424796E+00  0.500970959828E+00
  0.100001015059E+01  0.997204028685E+00  0.100001017355E+01  0.103207353078E+01  0.996002727677E+00  0.100001018768E+01  0.101389249555E+01
  0.103185936399E+01  0.996225804042E+00  0.100001018772E+01  0.100390959780E+01  0.101373294571E+01  0.103189950201E+01  0.995965144928E+00
  0.100001016637E+01  0.999800013571E+00  0.100383634868E+01  0.101378936086E+01  0.103186679304E+01  0.996133367683E+00  0.100001011418E+01
  0.999564674198E+00  0.999906481088E+00  0.100389191400E+01  0.101373224447E+01  0.103186480679E+01  0.995947938923E+00  0.100001002004E+01
  0.999709161338E+00  0.999576053431E+00  0.999793890070E+00  0.100383756351E+01  0.101376732813E+01  0.103185884759E+01  0.996133352714E+00
  0.100000987323E+01  0.999338749096E+00  0.999752570345E+00  0.999562827485E+00  0.999905101519E+00  0.100388282716E+01  0.101372746456E+01
  0.103186482490E+01  0.995965111658E+00  0.100000966779E+01  0.999522256586E+00  0.999387208761E+00  0.999708646457E+00  0.999575336908E+00
  0.999789364195E+00  0.100383539185E+01  0.101376733859E+01  0.103186683068E+01  0.996225745472E+00  0.100000940863E+01  0.999701033275E+00
  0.999545950068E+00  0.999338557583E+00  0.999752311717E+00  0.999560934418E+00  0.999903886371E+00  0.100388283139E+01  0.101373226536E+01
  0.103189956277E+01  0.996002639282E+00  0.100000911598E+01  0.999701392547E+00  0.999522176890E+00  0.999387106715E+00  0.999707850442E+00
  0.999574808968E+00  0.999789366456E+00  0.100383757245E+01  0.101378939420E+01  0.103185943439E+01  0.997203908331E+00  0.999700987745E+00
  0.999545926142E+00  0.999338223294E+00  0.999752080491E+00  0.999560935532E+00  0.999905106044E+00  0.100389192648E+01  0.101373298239E+01
  0.103207361039E+01  0.999701357539E+00  0.999522033014E+00  0.999386998704E+00  0.999707850872E+00  0.999575339131E+00  0.999793896598E+00
  0.100383636272E+01  0.101389254054E+01  0.999700944475E+00  0.999545872937E+00  0.999338223535E+00  0.999752312509E+00  0.999562830480E+00
  0.999906488652E+00  0.100390961212E+01  0.999701349666E+00  0.999522033209E+00  0.999387107130E+00  0.999708647674E+00  0.999576057074E+00
  0.999800017663E+00  0.999700944606E+00  0.999545926463E+00  0.999338558254E+00  0.999752571509E+00  0.999564675958E+00  0.999701357793E+00
  0.999522177467E+00  0.999387209161E+00  0.999709163952E+00  0.999700988350E+00  0.999545950086E+00  0.999338749022E+00  0.999701392503E+00
  0.999522258228E+00  0.999701035348E+00
        67        57        46        56
        57        47        37        46
        47        38        29        37
        38        30        22        29
        30        23        16        22
        23        17        11        16
        17        12         7        11
        12         8         4         7
         8         5         2         4
         5         3         1         2
        77        68        57        67
        68        58        47        57
        58        48        38        47
        48        39        30        38
        39        31        23        30
        31        24        17        23
        24        18        12        17
        18        13         8        12
        13         9         5         8
         9         6         3         5
        86        78        68        77
        78        69        58        68
        69        59        48        58
        59        49        39        48
        49        40        31        39
        40        32        24        31
        32        25        18        24
        25        19        13        18
        19        14         9        13
        14        10         6         9
        94        87        78        86
        87        79        69        78
        79        70        59        69
        70        60        49        59
        60        50        40        49
        50        41        32        40
        41        33        25        32
        33        26        19        25
        26        20        14        19
        20        15        10        14
       101        95        87        94
        95        88        79        87
        88        80        70        79
        80        71        60        70
        71        61        50        60
        61        51        41        50
        51        42        33        41
        42        34        26        33
        34        27        20        26
        27        21        15        20
       107       102        95       101
       102        96        88        95
        96        89        80        88
        89        81        71        80
        81        72        61        71
        72        62        51        61
        62        52        42        51
        52        43        34        42
        43        35        27        34
        35        28        21        27
       112       108       102       107
       108       103        96       102
       103        97        89        96
        97        90        81        89
        90        82        72        81
        82        73        62        72
        73        63        52        62
        63        53        43        52
        53        44        35        43
        44        36        28        35
       116       113       108       112
       113       109       103       108
       109       104        97       103
       104        98        90        97
        98        91        82        90
        91        83        73        82
        83        74        63        73
        74        64        53        63
        64        54        44        53
        54        45        36        44
       119       117       113       116
       117       114       109       113
       114       110       104       109
       110       105        98       104
       105        99        91        98
        99        92        83        91
        92        84        74        83
        84        75        64        74
        75        65        54        64
        65        55        45        54
       121       120       117       119
       120       118       114       117
       118       115       110       114
       115       111       105       110
       111       106        99       105
       106       100        92        99
       100        93        84        92
        93        85        75        84
        85        76        65        75
        76        66        55        65
zone t="boundary 2 bc-2", solutiontime= 0.1000000E+02, strandid=1002, i=121, j=100, f=feblock
  0.000000000000E+00  0.500000000000E+00  0.000000000000E+00  0.100000000000E+01  0.500000000000E+00  0.000000000000E+00  0.150000000000E+01
  0.100000000000E+01  0.500000000000E+00  0.000000000000E+00  0.200000000000E+01  0.150000000000E+01  0.100000000000E+01  0.500000000000E+00
  0.000000000000E+00  0.250000000000E+01  0.200000000000E+01  0.150000000000E+01  0.100000000000E+01  0.500000000000E+00  0.000000000000E+00
  0.300000000000E+01  0.250000000000E+01  0.200000000000E+01  0.150000000000E+01  0.100000000000E+01  0.500000000000E+00  0.000000000000E+00
  0.350000000000E+01  0.300000000000E+01  0.250000000000E+01  0.200000000000E+01  0.150000000000E+01  0.100000000000E+01  0.500000000000E+00
  0.000000000000E+00  0.400000000000E+01  0.350000000000E+01  0.300000000000E+01  0.250000000000E+01  0.200000000000E+01  0.150000000000E+01
  0.100000000000E+01  0.500000000000E+00  0.000000000000E+00  0.450000000000E+01  0.400000000000E+01  0.350000000000E+01  0.300000000000E+01
  0.250000000000E+01  0.200000000000E+01  0.150000000000E+01  0.100000000000E+01  0.500000000000E+00  0.000000000000E+00  0.500000000000E+01