title="tecplot geometry and solution file"
variables = x y z rho u v w p mach temperature
zone t="boundary 1 bc-1", solutiontime= 0.6000000E+02, strandid=1001, i=121, j=100, f=feblock
  0.000000000000E+00  0.000000000000E+00  0.000000000000E+00  0.000000000000E+00  0.000000000000E+00  0.000000000000E+00  0.000000000000E+00
  0.000000000000E+00  0.000000000000E+00  0.000000000000E+00  0.000000000000E+00  0.000000000000E+00  0.000000000000E+00  0.000000000000E+00
  0.000000000000E+00  0.000000000000E+00  0.000000000000E+00  0.000000000000E+00  0.000000000000E+00  0.000000000000E+00  0.000000000000E+00
  0.000000000000E+00  0.000000000000E+00  0.000000000000E+00  0.000000000000E+00  0.000000000000E+00  0.000000000000E+00  0.000000000000E+00
  0.000000000000E+00  0.000000000000E+00  0.000000000000E+00  0.000000000000E+00  0.000000000000E+00  0.000000000000E+00  0.000000000000E+00
  0.000000000000E+00  0.000000000000E+00  0.000000000000E+00  0.000000000000E+00  0.000000000000E+00  0.000000000000E+00  0.000000000000E+00
  0.000000000000E+00  0.000000000000E+00  0.000000000000E+00  0.000000000000E+00  0.000000000000E+00  0.000000000000E+00  0.000000000000E+00
  0.000000000000E+00  0.000000000000E+00  0.000000000000E+00  0.000000000000E+00  0.000000000000E+00  0.000000000000E+00  0.000000000000E+00
  0.000000000000E+00  0.000000000000E+00  0.000000000000E+00  0.000000000000E+00  0.000000000000E+00  0.000000000000E+00  0.000000000000E+00
  0.000000000000E+00  0.000000000000E+00  0.000000000000E+00  0.000000000000E+00  0.000000000000E+00  0.000000000000E+00  0.000000000000E+00
  0.000000000000E+00  0.000000000000E+00  0.000000000000E+00  0.000000000000E+00  0.000000000000E+00  0.000000000000E+00  0.000000000000E+00
  0.000000000000E+00  0.000000000000E+00  0.000000000000E+00  0.000000000000E+00  0.000000000000E+00  0.000000000000E+00  0.000000000000E+00
  0.000000000000E+00  0.000000000000E+00  0.000000000000E+00  0.000000000000E+00  0.000000000000E+00  0.000000000000E+00  0.000000000000E+00
  0.000000000000E+00  0.000000000000E+00  0.000000000000E+00  0.000000000000E+00  0.000000000000E+00  0.000000000000E+00  0.000000000000E+00
  0.000000000000E+00  0.000000000000E+00  0.000000000000E+00  0.000000000000E+00  0.000000000000E+00  0.000000000000E+00  0.000000000000E+00
  0.000000000000E+00  0.000000000000E+00  0.000000000000E+00  0.000000000000E+00  0.000000000000E+00  0.000000000000E+00  0.000000000000E+00
  0.000000000000E+00  0.000000000000E+00  0.000000000000E+00  0.000000000000E+00  0.000000000000E+00  0.000000000000E+00  0.000000000000E+00
  0.000000000000E+00  0.000000000000E+00
  0.250000000000E+01  0.250000000000E+01  0.200000000000E+01  0.250000000000E+01  0.200000000000E+01  0.150000000000E+01  0.250000000000E+01
  0.200000000000E+01  0.150000000000E+01  0.100000000000E+01  0.250000000000E+01  0.200000000000E+01  0.150000000000E+01  0.100000000000E+01
  0.500000000000E+00  0.250000000000E+01  0.200000000000E+01  0.150000000000E+01  0.100000000000E+01  0.500000000000E+00  0.000000000000E+00
  0.250000000000E+01  0.200000000000E+01  0.150000000000E+01  0.100000000000E+01  0.500000000000E+00  0.000000000000E+00 -0.500000000000E+00
  0.250000000000E+01  0.200000000000E+01  0.150000000000E+01  0.100000000000E+01  0.500000000000E+00  0.000000000000E+00 -0.500000000000E+00
 -0.100000000000E+01  0.250000000000E+01  0.200000000000E+01  0.150000000000E+01  0.100000000000E+01  0.500000000000E+00  0.000000000000E+00
 -0.500000000000E+00 -0.100000000000E+01 -0.150000000000E+01  0.250000000000E+01  0.200000000000E+01  0.150000000000E+01  0.100000000000E+01
  0.500000000000E+00  0.000000000000E+00 -0.500000000000E+00 -0.100000000000E+01 -0.150000000000E+01 -0.200000000000E+01  0.250000000000E+01
  0.200000000000E+01  0.150000000000E+01  0.100000000000E+01  0.500000000000E+00  0.000000000000E+00 -0.500000000000E+00 -0.100000000000E+01
 -0.150000000000E+01 -0.200000000000E+01 -0.250000000000E+01  0.200000000000E+01  0.150000000000E+01  0.100000000000E+01  0.500000000000E+00
  0.000000000000E+00 -0.500000000000E+00 -0.100000000000E+01 -0.150000000000E+01 -0.200000000000E+01 -0.250000000000E+01  0.150000000000E+01
  0.100000000000E+01  0.500000000000E+00  0.000000000000E+00 -0.500000000000E+00 -0.100000000000E+01 -0.150000000000E+01 -0.200000000000E+01
 -0.250000000000E+01  0.100000000000E+01  0.500000000000E+00  0.000000000000E+00 -0.500000000000E+00 -0.100000000000E+01 -0.150000000000E+01
 -0.200000000000E+01 -0.250000000000E+01  0.500000000000E+00  0.000000000000E+00 -0.500000000000E+00 -0.100000000000E+01 -0.150000000000E+01
 -0.200000000000E+01 -0.250000000000E+01  0.000000000000E+00 -0.500000000000E+00 -0.100000000000E+01 -0.150000000000E+01 -0.200000000000E+01
 -0.250000000000E+01 -0.500000000000E+00 -0.100000000000E+01 -0.150000000000E+01 -0.200000000000E+01 -0.250000000000E+01 -0.100000000000E+01
 -0.150000000000E+01 -0.200000000000E+01 -0.250000000000E+01 -0.150000000000E+01 -0.200000000000E+01 -0.250000000000E+01 -0.200000000000E+01
 -0.250000000000E+01 -0.250000000000E+01
  0.000000000000E+00  0.500000000000E+00  0.000000000000E+00  0.100000000000E+01  0.500000000000E+00  0.000000000000E+00  0.150000000000E+01
  0.100000000000E+01  0.500000000000E+00  0.000000000000E+00  0.200000000000E+01  0.150000000000E+01  0.100000000000E+01  0.500000000000E+00
  0.000000000000E+00  0.250000000000E+01  0.200000000000E+01  0.150000000000E+01  0.100000000000E+01  0.500000000000E+00  0.000000000000E+00
  0.300000000000E+01  0.250000000000E+01  0.200000000000E+01  0.150000000000E+01  0.100000000000E+01  0.500000000000E+00  0.000000000000E+00
  0.350000000000E+01  0.300000000000E+01  0.250000000000E+01  0.200000000000E+01  0.150000000000E+01  0.100000000000E+01  0.500000000000E+00
  0.000000000000E+00  0.400000000000E+01  0.350000000000E+01  0.300000000000E+01  0.250000000000E+01  0.200000000000E+01  0.150000000000E+01
  0.100000000000E+01  0.500000000000E+00  0.000000000000E+00  0.450000000000E+01  0.400000000000E+01  0.350000000000E+01  0.300000000000E+01
  0.250000000000E+01  0.200000000000E+01  0.150000000000E+01  0.100000000000E+01  0.500000000000E+00  0.000000000000E+00  0.500000000000E+01
  0.450000000000E+01  0.400000000000E+01  0.350000000000E+01  0.300000000000E+01  0.250000000000E+01  0.200000000000E+01  0.150000000000E+01
  0.100000000000E+01  0.500000000000E+00  0.000000000000E+00  0.500000000000E+01  0.450000000000E+01  0.400000000000E+01  0.350000000000E+01
  0.300000000000E+01  0.250000000000E+01  0.200000000000E+01  0.150000000000E+01  0.100000000000E+01  0.500000000000E+00  0.500000000000E+01
  0.450000000000E+01  0.400000000000E+01  0.350000000000E+01  0.300000000000E+01  0.250000000000E+01  0.200000000000E+01  0.150000000000E+01
  0.100000000000E+01  0.500000000000E+01  0.450000000000E+01  0.400000000000E+01  0.350000000000E+01  0.300000000000E+01  0.250000000000E+01
  0.200000000000E+01  0.150000000000E+01  0.500000000000E+01  0.450000000000E+01  0.400000000000E+01  0.350000000000E+01  0.300000000000E+01
  0.250000000000E+01  0.200000000000E+01  0.500000000000E+01  0.450000000000E+01  0.400000000000E+01  0.350000000000E+01  0.300000000000E+01
  0.250000000000E+01  0.500000000000E+01  0.450000000000E+01  0.400000000000E+01  0.350000000000E+01  0.300000000000E+01  0.500000000000E+01
  0.450000000000E+01  0.400000000000E+01  0.350000000000E+01  0.500000000000E+01  0.450000000000E+01  0.400000000000E+01  0.500000000000E+01
  0.450000000000E+01  0.500000000000E+01
  0.182284170495E+01  0.111731123910E+01  0.182083557117E+01  0.105220019548E+01  0.111440093065E+01  0.182048450161E+01  0.102624324985E+01
  0.105185900818E+01  0.111440220529E+01  0.182055141277E+01  0.100987044572E+01  0.102603081963E+01  0.105192807293E+01  0.111417806698E+01
  0.182058372563E+01  0.100408232485E+01  0.100980067503E+01  0.102604919666E+01  0.105186100237E+01  0.111416327050E+01  0.182058238822E+01
  0.100152147080E+01  0.100406564610E+01  0.100981341521E+01  0.102600070647E+01  0.105185528465E+01  0.111414594333E+01  0.182058289483E+01
  0.100068377653E+01  0.100151230744E+01  0.100406820609E+01  0.100979221913E+01  0.102599740965E+01  0.105184726382E+01  0.111416307528E+01
  0.182054955548E+01  0.100026329290E+01  0.100067828373E+01  0.100151775811E+01  0.100406335383E+01  0.100979355405E+01  0.102599128204E+01
  0.105185525918E+01  0.111417764728E+01  0.182048129065E+01  0.100010650887E+01  0.100026041307E+01  0.100068253503E+01  0.100151253815E+01
  0.100406053989E+01  0.100978930886E+01  0.102599737684E+01  0.105186095082E+01  0.111440150796E+01  0.182083069865E+01  0.100004500306E+01
  0.100010531573E+01  0.100026269746E+01  0.100067889120E+01  0.100151463514E+01  0.100406253804E+01  0.100979353998E+01  0.102600063781E+01
  0.105192800122E+01  0.111439994539E+01  0.182283510451E+01  0.100004424294E+01  0.100010621656E+01  0.100026086754E+01  0.100068115162E+01
  0.100151244524E+01  0.100406053252E+01  0.100979219018E+01  0.102604909208E+01  0.105185890078E+01  0.111730993676E+01  0.100004488135E+01
  0.100010557293E+01  0.100026199706E+01  0.100067901047E+01  0.100151463142E+01  0.100406333895E+01  0.100981337254E+01  0.102603067255E+01
  0.105220005968E+01  0.100004435692E+01  0.100010586139E+01  0.100026103114E+01  0.100068114935E+01  0.100151253074E+01  0.100406818477E+01
  0.100980061497E+01  0.102624306820E+01  0.100004472374E+01  0.100010570303E+01  0.100026199561E+01  0.100067888677E+01  0.100151774765E+01
  0.100406561867E+01  0.100987037359E+01  0.100004441596E+01  0.100010586046E+01  0.100026086475E+01  0.100068252886E+01  0.100151229460E+01
  0.100408229308E+01  0.100004472319E+01  0.100010557113E+01  0.100026269359E+01  0.100067827639E+01  0.100152145608E+01  0.100004435587E+01
  0.100010621408E+01  0.100026040853E+01  0.100068376823E+01  0.100004487989E+01  0.100010531282E+01  0.100026328783E+01  0.100004424124E+01
  0.100010650567E+01  0.100004500120E+01
  0.000000000000E+00  0.449561476172E+00  0.000000000000E+00  0.466815025241E+00  0.440673503593E+00  0.000000000000E+00  0.478291997158E+00
  0.466812714025E+00  0.440493082471E+00  0.000000000000E+00  0.490773768061E+00  0.478612851553E+00  0.466704966825E+00  0.440698724816E+00
  0.000000000000E+00  0.495755180235E+00  0.490883376861E+00  0.478558795641E+00  0.466798568252E+00  0.440717556837E+00  0.000000000000E+00
  0.498207816120E+00  0.495785899216E+00  0.490856503451E+00  0.478629326190E+00  0.466804973011E+00  0.440735977003E+00  0.000000000000E+00
  0.499123218224E+00  0.498220102265E+00  0.495777187039E+00  0.490889530453E+00  0.478633664932E+00  0.466816346067E+00  0.440717656585E+00
  0.000000000000E+00  0.499624209624E+00  0.499129302949E+00  0.498214178316E+00  0.495788598930E+00  0.490886472024E+00  0.478642606005E+00
  0.466804991389E+00  0.440698942586E+00  0.000000000000E+00  0.499826176401E+00  0.499627098616E+00  0.499125129443E+00  0.498220860764E+00
  0.495790075683E+00  0.490893905312E+00  0.478633688897E+00  0.466798605644E+00  0.440493451475E+00  0.000000000000E+00  0.499913302808E+00
  0.499827261094E+00  0.499624950613E+00  0.499129401039E+00  0.498219540451E+00  0.495790519971E+00  0.490886484129E+00  0.478629375942E+00
  0.466705019925E+00  0.440674047440E+00  0.000000000000E+00  0.499913268177E+00  0.499826493533E+00  0.499627036180E+00  0.499127319928E+00
  0.498221455488E+00  0.495790082402E+00  0.490889555258E+00  0.478558871673E+00  0.466812792575E+00  0.449562154935E+00  0.499913453604E+00
  0.499827155213E+00  0.499625888426E+00  0.499129445835E+00  0.498219544155E+00  0.495788612291E+00  0.490856540565E+00  0.478612952559E+00
  0.466815136383E+00  0.499913189490E+00  0.499826890883E+00  0.499626995191E+00  0.499127322249E+00  0.498220868056E+00  0.495777206447E+00
  0.490883427029E+00  0.478292123825E+00  0.499913641149E+00  0.499827187732E+00  0.499625889906E+00  0.499129405501E+00  0.498214188801E+00
  0.495785923060E+00  0.490773829126E+00  0.499913284890E+00  0.499826891839E+00  0.499627039033E+00  0.499125135729E+00  0.498220114774E+00
  0.495755207994E+00  0.499913641742E+00  0.499827157042E+00  0.499624954611E+00  0.499129310315E+00  0.498207830478E+00  0.499913190607E+00
  0.499826496103E+00  0.499627103258E+00  0.499123226574E+00  0.499913455191E+00  0.499827264080E+00  0.499624214824E+00  0.499913270020E+00
  0.499826179673E+00  0.499913304793E+00
  0.000000000000E+00  0.000000000000E+00  0.000000000000E+00  0.000000000000E+00 -0.100265415810E-02  0.000000000000E+00  0.000000000000E+00
 -0.248573146042E-03 -0.683506648295E-04  0.000000000000E+00  0.000000000000E+00 -0.722632476227E-04 -0.185808979760E-04  0.252783427052E-05
  0.000000000000E+00  0.000000000000E+00 -0.123679971597E-05 -0.688206383410E-05 -0.111823618974E-04  0.230317879805E-04  0.000000000000E+00
  0.000000000000E+00  0.328540810671E-05  0.453384911326E-05 -0.215543763129E-05  0.638492300221E-05 -0.105744639197E-06  0.000000000000E+00
  0.000000000000E+00  0.197918344072E-05  0.267231893764E-05  0.227568077360E-05  0.535813029609E-05 -0.472709713987E-07 -0.232589591285E-04
  0.000000000000E+00  0.000000000000E+00  0.640358050614E-06  0.171122812711E-05  0.224255757611E-05  0.309052382428E-05 -0.187386485633E-07
 -0.648531411851E-05 -0.279424862200E-05  0.000000000000E+00  0.000000000000E+00  0.165950069801E-06  0.822416852008E-06  0.142822391493E-05
  0.178892216120E-05 -0.491915482678E-08 -0.539778848952E-05  0.110689656160E-04  0.680610545432E-04  0.000000000000E+00  0.000000000000E+00
  0.483956078372E-07  0.381052087186E-06  0.610625592062E-06  0.917872998927E-06 -0.166185744309E-08 -0.310053337464E-05  0.211067037876E-05
  0.184601741131E-04  0.100239509338E-02  0.000000000000E+00  0.518403609630E-07  0.169655680164E-06  0.223570996820E-06  0.424832418373E-06
 -0.332870094592E-09 -0.179235680259E-05 -0.228594277449E-05  0.682714663996E-05  0.248491353347E-03  0.000000000000E+00  0.763749241711E-07
  0.811614302570E-07  0.216948150364E-06 -0.798145802503E-10 -0.918597534501E-06 -0.224606898156E-05 -0.454567406256E-05  0.722124714357E-04
  0.000000000000E+00  0.700186823485E-07  0.111513465720E-06  0.213506607323E-12 -0.425007176289E-06 -0.142887778198E-05 -0.267587631827E-05
  0.122596990444E-05  0.000000000000E+00  0.630949895353E-07  0.368164570524E-10 -0.216944083113E-06 -0.610747806535E-06 -0.171196383341E-05
 -0.328778507802E-05  0.000000000000E+00  0.111704999218E-09 -0.111437975102E-06 -0.223544272393E-06 -0.822598523632E-06 -0.197953466627E-05
  0.000000000000E+00 -0.628631840987E-07 -0.811098146782E-07 -0.381054153536E-06 -0.640427625184E-06  0.000000000000E+00 -0.698280782405E-07
 -0.169613975747E-06 -0.165963952965E-06  0.000000000000E+00 -0.762113207490E-07 -0.483926134456E-07  0.000000000000E+00 -0.517688866275E-07
  0.000000000000E+00  0.000000000000E+00
  0.000000000000E+00  0.287469563059E+00  0.000000000000E+00  0.101261951281E+00  0.288319595356E+00  0.000000000000E+00  0.313933244603E-01
  0.100468457537E+00  0.288179512689E+00  0.000000000000E+00  0.895717579306E-02  0.313208749127E-01  0.100327384190E+00  0.288175106167E+00
  0.000000000000E+00  0.205109314775E-02  0.899029949185E-02  0.312648181226E-01  0.100252028944E+00  0.288180638426E+00  0.000000000000E+00
  0.382977235593E-03  0.207793231297E-02  0.895708546811E-02  0.312535854861E-01  0.100250467483E+00  0.288183742643E+00  0.000000000000E+00
 -0.360920268679E-04  0.395538495871E-03  0.206368278373E-02  0.896075267004E-02  0.312536792810E-01  0.100251632366E+00  0.288180481127E+00
  0.000000000000E+00 -0.565013439845E-04 -0.318950821417E-04  0.388812646840E-03  0.206997638645E-02  0.895996286122E-02  0.312541555854E-01
  0.100250342363E+00  0.288174755530E+00  0.000000000000E+00 -0.368491266137E-04 -0.557662032435E-04 -0.342073006822E-04  0.394025172592E-03
  0.207031768952E-02  0.896044390050E-02  0.312536436014E-01  0.100251762451E+00  0.288178905819E+00  0.000000000000E+00  0.280768693987E-04
 -0.370630101182E-04 -0.559704211915E-04 -0.317264233175E-04  0.392924361379E-03  0.207034290198E-02  0.895994901173E-02  0.312535122442E-01
  0.100326943616E+00  0.288318622090E+00  0.000000000000E+00  0.272962746153E-04 -0.367235181847E-04 -0.554466268302E-04 -0.323513772981E-04
  0.394279102155E-03  0.207031398800E-02  0.896072406082E-02  0.312647031505E-01  0.100467764525E+00  0.287468278660E+00  0.280076043760E-04
 -0.369046498570E-04 -0.553288324447E-04 -0.315401986358E-04  0.392923218734E-03  0.206996890307E-02  0.895704096620E-02  0.313206948785E-01
  0.101261013152E+00  0.273601254574E-04 -0.365743084797E-04 -0.552538544817E-04 -0.323516184827E-04  0.394022936640E-03  0.206367115947E-02
  0.899023757194E-02  0.313930853130E-01  0.279161678543E-04 -0.367302793594E-04 -0.553289113830E-04 -0.317268954932E-04  0.388809302383E-03
  0.207791668435E-02  0.895710019466E-02  0.274518049192E-04 -0.365744092739E-04 -0.554467738020E-04 -0.342079817791E-04  0.395534329575E-03
  0.205107416248E-02  0.279158327626E-04 -0.369048453316E-04 -0.559706006884E-04 -0.318959349277E-04  0.382971882232E-03  0.273594783460E-04
 -0.367237550015E-04 -0.557664667946E-04 -0.360933164048E-04  0.280067147711E-04 -0.370633264524E-04 -0.565017370934E-04  0.272952308686E-04
 -0.368494654001E-04  0.280757324009E-04
  0.130200455963E+01  0.805739049264E+00  0.130057154999E+01  0.774934350366E+00  0.803182799466E+00  0.130032072302E+01  0.741415606353E+00
  0.774526794589E+00  0.803206236386E+00  0.130036847733E+01  0.724194322068E+00  0.741190941883E+00  0.774592938341E+00  0.802983829169E+00
  0.130039156657E+01  0.718372697517E+00  0.724125471937E+00  0.741206085127E+00  0.774513489938E+00  0.802962294768E+00  0.130039069241E+01
  0.715806893753E+00  0.718353470526E+00  0.724137380410E+00  0.741156807487E+00  0.774506241295E+00  0.802949750815E+00  0.130039123765E+01
  0.714969774150E+00  0.715798224935E+00  0.718358584192E+00  0.724116818610E+00  0.741152992269E+00  0.774497802976E+00  0.802962171719E+00
  0.130036774129E+01  0.714548220058E+00  0.714965051517E+00  0.715803189365E+00  0.718351192898E+00  0.724117535864E+00  0.741147310010E+00
  0.774506199960E+00  0.802983568613E+00  0.130031945367E+01  0.714392575136E+00  0.714545512461E+00  0.714968528711E+00  0.715798445805E+00
  0.718350899961E+00  0.724113932340E+00  0.741152956805E+00  0.774513403766E+00  0.803205811696E+00  0.130056964812E+01  0.714330631170E+00
  0.714391194120E+00  0.714547624358E+00  0.714965649983E+00  0.715800077653E+00  0.718350348078E+00  0.724117521699E+00  0.741156733214E+00
  0.774592808118E+00  0.803182231961E+00  0.130200206717E+01  0.714329806201E+00  0.714392284008E+00  0.714545967289E+00  0.714967163721E+00
  0.715798350154E+00  0.718350892570E+00  0.724116789446E+00  0.741205971579E+00  0.774526596527E+00  0.805738320874E+00  0.714330509197E+00
  0.714391454178E+00  0.714546919431E+00  0.714965778963E+00  0.715800073925E+00  0.718351177987E+00  0.724137337407E+00  0.741190780598E+00
  0.774934091422E+00  0.714329925956E+00  0.714391923807E+00  0.714546132145E+00  0.714967161453E+00  0.715798438384E+00  0.718358562820E+00
  0.724125411462E+00  0.741415405646E+00  0.714330349728E+00  0.714391580547E+00  0.714546917984E+00  0.714965645560E+00  0.715803178907E+00
  0.718353443029E+00  0.724194249462E+00  0.714329987006E+00  0.714391922873E+00  0.714545964501E+00  0.714968522542E+00  0.715798212084E+00
  0.718372665667E+00  0.714330349179E+00  0.714391452382E+00  0.714547620494E+00  0.714965044174E+00  0.715806879030E+00  0.714329924903E+00
  0.714392281521E+00  0.714545507917E+00  0.714969765846E+00  0.714330507741E+00  0.714391191208E+00  0.714548214990E+00  0.714329804500E+00
  0.714392571939E+00  0.714330629311E+00
  0.000000000000E+00  0.531071942044E+00  0.000000000000E+00  0.470416151703E+00  0.524254221987E+00  0.000000000000E+00  0.476603118615E+00
  0.470296390405E+00  0.524019278368E+00  0.000000000000E+00  0.489885875306E+00  0.476939668684E+00  0.470158720544E+00  0.524208062639E+00
  0.000000000000E+00  0.495355183632E+00  0.490002219856E+00  0.476881788036E+00  0.470242385549E+00  0.524230317059E+00  0.000000000000E+00
  0.498056762160E+00  0.495388504045E+00  0.489973859791E+00  0.476955629491E+00  0.470249152517E+00  0.524247374550E+00  0.000000000000E+00
  0.499054923516E+00  0.498069791814E+00  0.495378607851E+00  0.490008697450E+00  0.476960402119E+00  0.470261114043E+00  0.524230308720E+00
  0.000000000000E+00  0.499598187490E+00  0.499061285680E+00  0.498063492542E+00  0.495391388154E+00  0.490005712349E+00  0.476969709038E+00
  0.470249151195E+00  0.524208039364E+00  0.000000000000E+00  0.499815408920E+00  0.499601303613E+00  0.499056959429E+00  0.498070529408E+00
  0.495392271944E+00  0.490013327829E+00  0.476960427373E+00  0.470242381076E+00  0.524019229571E+00  0.000000000000E+00  0.499908834488E+00
  0.499816678567E+00  0.499598987931E+00  0.499061326353E+00  0.498069162320E+00  0.495393399200E+00  0.490005725557E+00  0.476955682051E+00
  0.470158703969E+00  0.524254097540E+00  0.000000000000E+00  0.499908898497E+00  0.499815754836E+00  0.499601195635E+00  0.499059280917E+00
  0.498071134327E+00  0.495392279373E+00  0.490008724523E+00  0.476881868252E+00  0.470296358506E+00  0.531071753068E+00  0.499908997538E+00
  0.499816545973E+00  0.499599997148E+00  0.499061355857E+00  0.498069166394E+00  0.495391402943E+00  0.489973900213E+00  0.476939774917E+00
  0.470416111056E+00  0.499908806398E+00  0.499816189419E+00  0.499601137853E+00  0.499059283464E+00  0.498070537435E+00  0.495378629304E+00
  0.490002274674E+00  0.476603251048E+00  0.499909201483E+00  0.499816566781E+00  0.499599998772E+00  0.499061331254E+00  0.498063504060E+00
  0.495388530518E+00  0.489885941927E+00  0.499908895197E+00  0.499816190469E+00  0.499601198767E+00  0.499056966329E+00  0.498069805595E+00
  0.495355214433E+00  0.499909202131E+00  0.499816547982E+00  0.499598992314E+00  0.499061293776E+00  0.498056777972E+00  0.499908807620E+00
  0.499815757655E+00  0.499601308709E+00  0.499054932693E+00  0.499908999270E+00  0.499816681845E+00  0.499598193196E+00  0.499908900510E+00
  0.499815412512E+00  0.499908836658E+00
  0.999980622859E+00  0.100959753155E+01  0.999980557725E+00  0.103108523946E+01  0.100902277477E+01  0.999980505529E+00  0.101143841779E+01
  0.103087724114E+01  0.100905106397E+01  0.999980475964E+00  0.100396249360E+01  0.101134127629E+01  0.103089758852E+01  0.100897459226E+01
  0.999980482943E+00  0.100163278611E+01  0.100393640624E+01  0.101134382499E+01  0.103085757859E+01  0.100896093278E+01  0.999980545320E+00
  0.100060725653E+01  0.100162261566E+01  0.100394025006E+01  0.101132438208E+01  0.103085353436E+01  0.100896086179E+01  0.999980686341E+00
  0.100027372012E+01  0.100060429359E+01  0.100162719203E+01  0.100393281593E+01  0.101132242579E+01  0.103085016377E+01  0.100896095495E+01
  0.999980930108E+00  0.100010418775E+01  0.100027260349E+01  0.100060578756E+01  0.100162172657E+01  0.100393248318E+01  0.101132071215E+01
  0.103085350430E+01  0.100897464493E+01  0.999981293130E+00  0.100004309173E+01  0.100010327748E+01  0.100027321869E+01  0.100060437185E+01
  0.100162412523E+01  0.100393170772E+01  0.101132240973E+01  0.103085751441E+01  0.100905116185E+01  0.999981771356E+00  0.100001787977E+01
  0.100004235158E+01  0.100010394934E+01  0.100027283355E+01  0.100060455789E+01  0.100162136242E+01  0.100393247752E+01  0.101132434841E+01
  0.103089748548E+01  0.100902295392E+01  0.999982329463E+00  0.100001748496E+01  0.100004297648E+01  0.100010345968E+01  0.100027269184E+01
  0.100060433096E+01  0.100162412228E+01  0.100393280428E+01  0.101134377314E+01  0.103087708279E+01  0.100959779566E+01  0.100001783073E+01
  0.100004245844E+01  0.100010366298E+01  0.100027289478E+01  0.100060455639E+01  0.100162172063E+01  0.100394023285E+01  0.101134120119E+01
  0.103108502799E+01  0.100001753864E+01  0.100004282741E+01  0.100010352684E+01  0.100027269094E+01  0.100060436888E+01  0.100162718350E+01
  0.100393638211E+01  0.101143832301E+01  0.100001776509E+01  0.100004250525E+01  0.100010366241E+01  0.100027283179E+01  0.100060578339E+01
  0.100162260468E+01  0.100396246465E+01  0.100001756506E+01  0.100004282703E+01  0.100010345856E+01  0.100027321622E+01  0.100060428845E+01
  0.100163277340E+01  0.100001776487E+01  0.100004245772E+01  0.100010394779E+01  0.100027260056E+01  0.100060725065E+01  0.100001753822E+01
  0.100004297549E+01  0.100010327566E+01  0.100027371680E+01  0.100001783015E+01  0.100004235041E+01  0.100010418573E+01  0.100001748428E+01
  0.100004309045E+01  0.100001787903E+01
        67        57        46        56
        57        47        37        46
        47        38        29        37
        38        30        22        29
        30        23        16        22
        23        17        11        16
        17        12         7        11
        12         8         4         7
         8         5         2         4
         5         3         1         2
        77        68        57        67
        68        58        47        57
        58        48        38        47
        48        39        30        38
        39        31        23        30
        31        24        17        23
        24        18        12        17
        18        13         8        12
        13         9         5         8
         9         6         3         5
        86        78        68        77
        78        69        58        68
        69        59        48        58
        59        49        39        48
        49        40        31        39
        40        32        24        31
        32        25        18        24
        25        19        13        18
        19        14         9        13
        14        10         6         9
        94        87        78        86
        87        79        69        78
        79        70        59        69
        70        60        49        59
        60        50        40        49
        50        41        32        40
        41        33        25        32
        33        26        19        25
        26        20        14        19
        20        15        10        14
       101        95        87        94
        95        88        79        87
        88        80        70        79
        80        71        60        70
        71        61        50        60
        61        51        41        50
        51        42        33        41
        42        34        26        33
        34        27        20        26
        27        21        15        20
       107       102        95       101
       102        96        88        95
        96        89        80        88
        89        81        71        80
        81        72        61        71
        72        62        51        61
        62        52        42        51
        52        43        34        42
        43        35        27        34
        35        28        21        27
       112       108       102       107
       108       103        96       102
       103        97        89        96
        97        90        81        89
        90        82        72        81
        82        73        62        72
        73        63        52        62
        63        53        43        52
        53        44        35        43
        44        36        28        35
       116       113       108       112
       113       109       103       108
       109       104        97       103
       104        98        90        97
        98        91        82        90
        91        83        73        82
        83        74        63        73
        74        64        53        63
        64        54        44        53
        54        45        36        44
       119       117       113       116
       117       114       109       113
       114       110       104       109
       110       105        98       104
       105        99        91        98
        99        92        83        91
        92        84        74        83
        84        75        64        74
        75        65        54        64
        65        55        45        54
       121       120       117       119
       120       118       114       117
       118       115       110       114
       115       111       105       110
       111       106        99       105
       106       100        92        99
       100        93        84        92
        93        85        75        84
        85        76        65        75
        76        66        55        65
zone t="boundary 2 bc-2", solutiontime= 0.6000000E+02, strandid=1002, i=121, j=100, f=feblock
  0.000000000000E+00  0.500000000000E+00  0.000000000000E+00  0.100000000000E+01  0.500000000000E+00  0.000000000000E+00  0.150000000000E+01
  0.100000000000E+01  0.500000000000E+00  0.000000000000E+00  0.200000000000E+01  0.150000000000E+01  0.100000000000E+01  0.500000000000E+00
  0.000000000000E+00  0.250000000000E+01  0.200000000000E+01  0.150000000000E+01  0.100000000000E+01  0.500000000000E+00  0.000000000000E+00
  0.300000000000E+01  0.250000000000E+01  0.200000000000E+01  0.150000000000E+01  0.100000000000E+01  0.500000000000E+00  0.000000000000E+00
  0.350000000000E+01  0.300000000000E+01  0.250000000000E+01  0.200000000000E+01  0.150000000000E+01  0.100000000000E+01  0.500000000000E+00
  0.000000000000E+00  0.400000000000E+01  0.350000000000E+01  0.300000000000E+01  0.250000000000E+01  0.200000000000E+01  0.150000000000E+01
  0.100000000000E+01  0.500000000000E+00  0.000000000000E+00  0.450000000000E+01  0.400000000000E+01  0.350000000000E+01  0.300000000000E+01
  0.250000000000E+01  0.200000000000E+01  0.150000000000E+01  0.100000000000E+01  0.500000000000E+00  0.000000000000E+00  0.500000000000E+01