title="tecplot geometry and solution file"
variables = x y z rho u v w p mach temperature
zone t="boundary 1 bc-1", solutiontime= 0.5000000E+02, strandid=1001, i=121, j=100, f=feblock
  0.000000000000E+00  0.000000000000E+00  0.000000000000E+00  0.000000000000E+00  0.000000000000E+00  0.000000000000E+00  0.000000000000E+00
  0.000000000000E+00  0.000000000000E+00  0.000000000000E+00  0.000000000000E+00  0.000000000000E+00  0.000000000000E+00  0.000000000000E+00
  0.000000000000E+00  0.000000000000E+00  0.000000000000E+00  0.000000000000E+00  0.000000000000E+00  0.000000000000E+00  0.000000000000E+00
  0.000000000000E+00  0.000000000000E+00  0.000000000000E+00  0.000000000000E+00  0.000000000000E+00  0.000000000000E+00  0.000000000000E+00
  0.000000000000E+00  0.000000000000E+00  0.000000000000E+00  0.000000000000E+00  0.000000000000E+00  0.000000000000E+00  0.000000000000E+00
  0.000000000000E+00  0.000000000000E+00  0.000000000000E+00  0.000000000000E+00  0.000000000000E+00  0.000000000000E+00  0.000000000000E+00
  0.000000000000E+00  0.000000000000E+00  0.000000000000E+00  0.000000000000E+00  0.000000000000E+00  0.000000000000E+00  0.000000000000E+00
  0.000000000000E+00  0.000000000000E+00  0.000000000000E+00  0.000000000000E+00  0.000000000000E+00  0.000000000000E+00  0.000000000000E+00
  0.000000000000E+00  0.000000000000E+00  0.000000000000E+00  0.000000000000E+00  0.000000000000E+00  0.000000000000E+00  0.000000000000E+00
  0.000000000000E+00  0.000000000000E+00  0.000000000000E+00  0.000000000000E+00  0.000000000000E+00  0.000000000000E+00  0.000000000000E+00
  0.000000000000E+00  0.000000000000E+00  0.000000000000E+00  0.000000000000E+00  0.000000000000E+00  0.000000000000E+00  0.000000000000E+00
  0.000000000000E+00  0.000000000000E+00  0.000000000000E+00  0.000000000000E+00  0.000000000000E+00  0.000000000000E+00  0.000000000000E+00
  0.000000000000E+00  0.000000000000E+00  0.000000000000E+00  0.000000000000E+00  0.000000000000E+00  0.000000000000E+00  0.000000000000E+00
  0.000000000000E+00  0.000000000000E+00  0.000000000000E+00  0.000000000000E+00  0.000000000000E+00  0.000000000000E+00  0.000000000000E+00
  0.000000000000E+00  0.000000000000E+00  0.000000000000E+00  0.000000000000E+00  0.000000000000E+00  0.000000000000E+00  0.000000000000E+00
  0.000000000000E+00  0.000000000000E+00  0.000000000000E+00  0.000000000000E+00  0.000000000000E+00  0.000000000000E+00  0.000000000000E+00
  0.000000000000E+00  0.000000000000E+00  0.000000000000E+00  0.000000000000E+00  0.000000000000E+00  0.000000000000E+00  0.000000000000E+00
  0.000000000000E+00  0.000000000000E+00
  0.250000000000E+01  0.250000000000E+01  0.200000000000E+01  0.250000000000E+01  0.200000000000E+01  0.150000000000E+01  0.250000000000E+01
  0.200000000000E+01  0.150000000000E+01  0.100000000000E+01  0.250000000000E+01  0.200000000000E+01  0.150000000000E+01  0.100000000000E+01
  0.500000000000E+00  0.250000000000E+01  0.200000000000E+01  0.150000000000E+01  0.100000000000E+01  0.500000000000E+00  0.000000000000E+00
  0.250000000000E+01  0.200000000000E+01  0.150000000000E+01  0.100000000000E+01  0.500000000000E+00  0.000000000000E+00 -0.500000000000E+00
  0.250000000000E+01  0.200000000000E+01  0.150000000000E+01  0.100000000000E+01  0.500000000000E+00  0.000000000000E+00 -0.500000000000E+00
 -0.100000000000E+01  0.250000000000E+01  0.200000000000E+01  0.150000000000E+01  0.100000000000E+01  0.500000000000E+00  0.000000000000E+00
 -0.500000000000E+00 -0.100000000000E+01 -0.150000000000E+01  0.250000000000E+01  0.200000000000E+01  0.150000000000E+01  0.100000000000E+01
  0.500000000000E+00  0.000000000000E+00 -0.500000000000E+00 -0.100000000000E+01 -0.150000000000E+01 -0.200000000000E+01  0.250000000000E+01
  0.200000000000E+01  0.150000000000E+01  0.100000000000E+01  0.500000000000E+00  0.000000000000E+00 -0.500000000000E+00 -0.100000000000E+01
 -0.150000000000E+01 -0.200000000000E+01 -0.250000000000E+01  0.200000000000E+01  0.150000000000E+01  0.100000000000E+01  0.500000000000E+00
  0.000000000000E+00 -0.500000000000E+00 -0.100000000000E+01 -0.150000000000E+01 -0.200000000000E+01 -0.250000000000E+01  0.150000000000E+01
  0.100000000000E+01  0.500000000000E+00  0.000000000000E+00 -0.500000000000E+00 -0.100000000000E+01 -0.150000000000E+01 -0.200000000000E+01
 -0.250000000000E+01  0.100000000000E+01  0.500000000000E+00  0.000000000000E+00 -0.500000000000E+00 -0.100000000000E+01 -0.150000000000E+01
 -0.200000000000E+01 -0.250000000000E+01  0.500000000000E+00  0.000000000000E+00 -0.500000000000E+00 -0.100000000000E+01 -0.150000000000E+01
 -0.200000000000E+01 -0.250000000000E+01  0.000000000000E+00 -0.500000000000E+00 -0.100000000000E+01 -0.150000000000E+01 -0.200000000000E+01
 -0.250000000000E+01 -0.500000000000E+00 -0.100000000000E+01 -0.150000000000E+01 -0.200000000000E+01 -0.250000000000E+01 -0.100000000000E+01
 -0.150000000000E+01 -0.200000000000E+01 -0.250000000000E+01 -0.150000000000E+01 -0.200000000000E+01 -0.250000000000E+01 -0.200000000000E+01
 -0.250000000000E+01 -0.250000000000E+01
  0.000000000000E+00  0.500000000000E+00  0.000000000000E+00  0.100000000000E+01  0.500000000000E+00  0.000000000000E+00  0.150000000000E+01
  0.100000000000E+01  0.500000000000E+00  0.000000000000E+00  0.200000000000E+01  0.150000000000E+01  0.100000000000E+01  0.500000000000E+00
  0.000000000000E+00  0.250000000000E+01  0.200000000000E+01  0.150000000000E+01  0.100000000000E+01  0.500000000000E+00  0.000000000000E+00
  0.300000000000E+01  0.250000000000E+01  0.200000000000E+01  0.150000000000E+01  0.100000000000E+01  0.500000000000E+00  0.000000000000E+00
  0.350000000000E+01  0.300000000000E+01  0.250000000000E+01  0.200000000000E+01  0.150000000000E+01  0.100000000000E+01  0.500000000000E+00
  0.000000000000E+00  0.400000000000E+01  0.350000000000E+01  0.300000000000E+01  0.250000000000E+01  0.200000000000E+01  0.150000000000E+01
  0.100000000000E+01  0.500000000000E+00  0.000000000000E+00  0.450000000000E+01  0.400000000000E+01  0.350000000000E+01  0.300000000000E+01
  0.250000000000E+01  0.200000000000E+01  0.150000000000E+01  0.100000000000E+01  0.500000000000E+00  0.000000000000E+00  0.500000000000E+01
  0.450000000000E+01  0.400000000000E+01  0.350000000000E+01  0.300000000000E+01  0.250000000000E+01  0.200000000000E+01  0.150000000000E+01
  0.100000000000E+01  0.500000000000E+00  0.000000000000E+00  0.500000000000E+01  0.450000000000E+01  0.400000000000E+01  0.350000000000E+01
  0.300000000000E+01  0.250000000000E+01  0.200000000000E+01  0.150000000000E+01  0.100000000000E+01  0.500000000000E+00  0.500000000000E+01
  0.450000000000E+01  0.400000000000E+01  0.350000000000E+01  0.300000000000E+01  0.250000000000E+01  0.200000000000E+01  0.150000000000E+01
  0.100000000000E+01  0.500000000000E+01  0.450000000000E+01  0.400000000000E+01  0.350000000000E+01  0.300000000000E+01  0.250000000000E+01
  0.200000000000E+01  0.150000000000E+01  0.500000000000E+01  0.450000000000E+01  0.400000000000E+01  0.350000000000E+01  0.300000000000E+01
  0.250000000000E+01  0.200000000000E+01  0.500000000000E+01  0.450000000000E+01  0.400000000000E+01  0.350000000000E+01  0.300000000000E+01
  0.250000000000E+01  0.500000000000E+01  0.450000000000E+01  0.400000000000E+01  0.350000000000E+01  0.300000000000E+01  0.500000000000E+01
  0.450000000000E+01  0.400000000000E+01  0.350000000000E+01  0.500000000000E+01  0.450000000000E+01  0.400000000000E+01  0.500000000000E+01
  0.450000000000E+01  0.500000000000E+01
  0.182283626498E+01  0.111727993733E+01  0.182083448534E+01  0.105220480583E+01  0.111440485608E+01  0.182047949639E+01  0.102622651813E+01
  0.105186433551E+01  0.111437133891E+01  0.182055079074E+01  0.100987535284E+01  0.102602364366E+01  0.105193275506E+01  0.111418189561E+01
  0.182057871948E+01  0.100408875129E+01  0.100980192241E+01  0.102603245329E+01  0.105186657729E+01  0.111413238364E+01  0.182058170517E+01
  0.100151230256E+01  0.100405956479E+01  0.100981823988E+01  0.102599344590E+01  0.105186009743E+01  0.111415039568E+01  0.182057788980E+01
  0.100069080698E+01  0.100150537801E+01  0.100407470880E+01  0.100979354620E+01  0.102598049853E+01  0.105185261004E+01  0.111413218868E+01
  0.182054893570E+01  0.100025889089E+01  0.100068846166E+01  0.100150865253E+01  0.100405749909E+01  0.100979833451E+01  0.102598406248E+01
  0.105186007198E+01  0.111418147639E+01  0.182047628889E+01  0.100010440093E+01  0.100025692733E+01  0.100068955040E+01  0.100150547154E+01
  0.100406685889E+01  0.100979077391E+01  0.102598046574E+01  0.105186652588E+01  0.111437064191E+01  0.182082961832E+01  0.100004924296E+01
  0.100010235054E+01  0.100025829631E+01  0.100068896241E+01  0.100150554105E+01  0.100405665063E+01  0.100979832051E+01  0.102599337718E+01
  0.105193268344E+01  0.111440387223E+01  0.182282967228E+01  0.100004913499E+01  0.100010410216E+01  0.100025739421E+01  0.100068832183E+01
  0.100150542712E+01  0.100406685152E+01  0.100979351730E+01  0.102603234894E+01  0.105186422814E+01  0.111727863624E+01  0.100004909698E+01
  0.100010264291E+01  0.100025765864E+01  0.100068912706E+01  0.100150553728E+01  0.100405748428E+01  0.100981819714E+01  0.102602349669E+01
  0.105220467014E+01  0.100004929364E+01  0.100010371564E+01  0.100025751811E+01  0.100068831956E+01  0.100150546409E+01  0.100407468753E+01
  0.100980186248E+01  0.102622633678E+01  0.100004887074E+01  0.100010269078E+01  0.100025765721E+01  0.100068895796E+01  0.100150864213E+01
  0.100405953735E+01  0.100987528066E+01  0.100004932650E+01  0.100010371470E+01  0.100025739142E+01  0.100068954421E+01  0.100150536517E+01
  0.100408871948E+01  0.100004887021E+01  0.100010264111E+01  0.100025829243E+01  0.100068845432E+01  0.100151228788E+01  0.100004929261E+01
  0.100010409967E+01  0.100025692274E+01  0.100069079870E+01  0.100004909556E+01  0.100010234762E+01  0.100025888580E+01  0.100004913331E+01
  0.100010439773E+01  0.100004924112E+01
  0.000000000000E+00  0.449580085829E+00  0.000000000000E+00  0.466813331672E+00  0.440671798963E+00  0.000000000000E+00  0.478299718828E+00
  0.466809940025E+00  0.440512550029E+00  0.000000000000E+00  0.490778576695E+00  0.478615999978E+00  0.466703420272E+00  0.440697213811E+00
  0.000000000000E+00  0.495748882306E+00  0.490883994548E+00  0.478566390355E+00  0.466795713249E+00  0.440737140008E+00  0.000000000000E+00
  0.498214344607E+00  0.495789256318E+00  0.490861199653E+00  0.478632191498E+00  0.466803315732E+00  0.440733805146E+00  0.000000000000E+00
  0.499119998288E+00  0.498227409915E+00  0.495770953442E+00  0.490890298898E+00  0.478641503499E+00  0.466813584957E+00  0.440737239551E+00
  0.000000000000E+00  0.499625225271E+00  0.499124385739E+00  0.498220786951E+00  0.495792239548E+00  0.490891100375E+00  0.478645784802E+00
  0.466803334074E+00  0.440697431316E+00  0.000000000000E+00  0.499829089293E+00  0.499627597506E+00  0.499121990299E+00  0.498228233321E+00
  0.495783668727E+00  0.490894276422E+00  0.478641527478E+00  0.466795750572E+00  0.440512918851E+00  0.000000000000E+00  0.499912578935E+00
  0.499831585992E+00  0.499625998292E+00  0.499124240489E+00  0.498225995544E+00  0.495793831764E+00  0.490891112432E+00  0.478632241294E+00
  0.466703473441E+00  0.440672342089E+00  0.000000000000E+00  0.499914163316E+00  0.499829394908E+00  0.499627355545E+00  0.499124197663E+00
  0.498229005685E+00  0.495783675425E+00  0.490890323641E+00  0.478566466179E+00  0.466810018486E+00  0.449580764270E+00  0.499912685105E+00
  0.499831527966E+00  0.499627117684E+00  0.499124612143E+00  0.498225999275E+00  0.495792252878E+00  0.490861236783E+00  0.478616101083E+00
  0.466813442713E+00  0.499914248761E+00  0.499829917558E+00  0.499627371745E+00  0.499124199972E+00  0.498228240639E+00  0.495770972793E+00
  0.490884044618E+00  0.478299845319E+00  0.499912848722E+00  0.499831336641E+00  0.499627119184E+00  0.499124244956E+00  0.498220797391E+00
  0.495789280049E+00  0.490778637867E+00  0.499914036027E+00  0.499829918498E+00  0.499627358404E+00  0.499121996681E+00  0.498227422361E+00
  0.495748909998E+00  0.499912849323E+00  0.499831529779E+00  0.499626002288E+00  0.499124393194E+00  0.498214358823E+00  0.499914249906E+00
  0.499829397423E+00  0.499627602202E+00  0.499120006677E+00  0.499912686655E+00  0.499831588904E+00  0.499625230481E+00  0.499914165097E+00
  0.499829092545E+00  0.499912581011E+00
  0.000000000000E+00  0.000000000000E+00  0.000000000000E+00  0.000000000000E+00 -0.100216879780E-02  0.000000000000E+00  0.000000000000E+00
 -0.248624133246E-03 -0.681741360161E-04  0.000000000000E+00  0.000000000000E+00 -0.722953058993E-04 -0.185861992922E-04  0.213732684146E-05
  0.000000000000E+00  0.000000000000E+00 -0.109382679757E-05 -0.695928700553E-05 -0.110557706769E-04  0.227045584008E-04  0.000000000000E+00
  0.000000000000E+00  0.329369283971E-05  0.473777070929E-05 -0.237670618670E-05  0.655507049959E-05 -0.105414031355E-06  0.000000000000E+00
  0.000000000000E+00  0.191221842504E-05  0.275814236820E-05  0.226495162983E-05  0.508159707951E-05 -0.471905820282E-07 -0.229313223075E-04
  0.000000000000E+00  0.000000000000E+00  0.651037460032E-06  0.156544966061E-05  0.228344822842E-05  0.302156528377E-05 -0.187865330784E-07
 -0.665551973656E-05 -0.240366186363E-05  0.000000000000E+00  0.000000000000E+00  0.198710619522E-06  0.762405328948E-06  0.136304807655E-05
  0.195233058928E-05 -0.483779253259E-08 -0.512125145506E-05  0.109425762250E-04  0.678846809224E-04  0.000000000000E+00  0.000000000000E+00
  0.436369149033E-07  0.404001300315E-06  0.635200735833E-06  0.101684049002E-05 -0.165830646970E-08 -0.303150431193E-05  0.233190377878E-05
  0.184655658134E-04  0.100190987705E-02  0.000000000000E+00  0.166266570109E-07  0.182331628051E-06  0.280032290966E-06  0.443456931226E-06
 -0.371705923156E-09 -0.195584873751E-05 -0.227523681219E-05  0.690442688373E-05  0.248542573664E-03  0.000000000000E+00  0.822182012943E-07
  0.990923237168E-07  0.180402292330E-06 -0.703331760098E-10 -0.101756843269E-05 -0.228689941456E-05 -0.474960399959E-05  0.722445161478E-04
  0.000000000000E+00  0.426143064093E-07  0.506234908806E-07  0.801481045620E-11 -0.443612985969E-06 -0.136368204839E-05 -0.276176086575E-05
  0.108301765215E-05  0.000000000000E+00 -0.170475207296E-07  0.484342487902E-10 -0.180403639272E-06 -0.635372063824E-06 -0.156613842223E-05
 -0.329603850343E-05  0.000000000000E+00  0.134732892674E-09 -0.505758911831E-07 -0.279995046173E-06 -0.762566009086E-06 -0.191262302382E-05
  0.000000000000E+00  0.172722229478E-07 -0.990056563303E-07 -0.404030236499E-06 -0.651120799352E-06  0.000000000000E+00 -0.423856772880E-07
 -0.182311453268E-06 -0.198704968511E-06  0.000000000000E+00 -0.821190613150E-07 -0.435860759642E-07  0.000000000000E+00 -0.165414770394E-07
  0.000000000000E+00  0.000000000000E+00
  0.000000000000E+00  0.287470166932E+00  0.000000000000E+00  0.101256682790E+00  0.288317028665E+00  0.000000000000E+00  0.313952140147E-01
  0.100466995686E+00  0.288179975913E+00  0.000000000000E+00  0.895372197301E-02  0.313238423887E-01  0.100322262301E+00  0.288172458677E+00
  0.000000000000E+00  0.204869101685E-02  0.899083467711E-02  0.312666870574E-01  0.100250329462E+00  0.288181136480E+00  0.000000000000E+00
  0.382841687931E-03  0.207858709157E-02  0.895343373403E-02  0.312564820169E-01  0.100245339494E+00  0.288181021920E+00  0.000000000000E+00
 -0.403937874008E-04  0.394287360248E-03  0.206120735760E-02  0.896141743420E-02  0.312556632221E-01  0.100250123094E+00  0.288180979370E+00
  0.000000000000E+00 -0.564111622218E-04 -0.355513263411E-04  0.388856735324E-03  0.207080589845E-02  0.895629489416E-02  0.312570966483E-01
  0.100245214467E+00  0.288172108404E+00  0.000000000000E+00 -0.386634290419E-04 -0.535042924918E-04 -0.383089912132E-04  0.392657937179E-03
  0.206763696987E-02  0.896097554420E-02  0.312556275787E-01  0.100250063100E+00  0.288179369751E+00  0.000000000000E+00  0.211670146497E-04
 -0.373172609826E-04 -0.558141703031E-04 -0.357944717353E-04  0.392942958150E-03  0.207108312287E-02  0.895628102954E-02  0.312564088830E-01
  0.100321821999E+00  0.288316056415E+00  0.000000000000E+00  0.205694963483E-04 -0.385598699669E-04 -0.534647724797E-04 -0.360368613726E-04
  0.392975403712E-03  0.206763326989E-02  0.896138882061E-02  0.312665721554E-01  0.100466303369E+00  0.287468883653E+00  0.210295212519E-04
 -0.371781622914E-04 -0.545593067021E-04 -0.356718054572E-04  0.392941828868E-03  0.207079841287E-02  0.895338924845E-02  0.313236625202E-01
  0.101255745202E+00  0.207354024960E-04 -0.380212530936E-04 -0.536670686519E-04 -0.360371022978E-04  0.392655742321E-03  0.206119568683E-02
  0.899077273931E-02  0.313949750477E-01  0.209505691465E-04 -0.374712814515E-04 -0.545594074696E-04 -0.357949072446E-04  0.388853442121E-03
  0.207857139429E-02  0.895364622171E-02  0.206130392971E-04 -0.380213802255E-04 -0.534649311742E-04 -0.383095952686E-04  0.394283137996E-03
  0.204867187622E-02  0.209502384142E-04 -0.371783720291E-04 -0.558144188675E-04 -0.355520888794E-04  0.382836381459E-03  0.207347818541E-04
 -0.385602149815E-04 -0.535045413289E-04 -0.403948878564E-04  0.210286364239E-04 -0.373176518213E-04 -0.564115044451E-04  0.205684468528E-04
 -0.386638703249E-04  0.211658632789E-04
  0.130200069250E+01  0.805723645544E+00  0.130057079291E+01  0.774934055903E+00  0.803180613000E+00  0.130031716646E+01  0.741406368034E+00
  0.774528518881E+00  0.803191171575E+00  0.130036805156E+01  0.724195900966E+00  0.741185335945E+00  0.774592690775E+00  0.802981651022E+00
  0.130038800931E+01  0.718373967522E+00  0.724125402041E+00  0.741196814352E+00  0.774515323466E+00  0.802947269367E+00  0.130039022292E+01
  0.715802869437E+00  0.718349802097E+00  0.724138939962E+00  0.741151143778E+00  0.774506075292E+00  0.802947758678E+00  0.130038768093E+01
  0.714972942993E+00  0.715795078949E+00  0.718359912125E+00  0.724116856170E+00  0.741143665467E+00  0.774499577672E+00  0.802947146435E+00
  0.130036731656E+01  0.714546546302E+00  0.714969241074E+00  0.715799190961E+00  0.718347648995E+00  0.724119027482E+00  0.741141692396E+00
  0.774506033986E+00  0.802981390695E+00  0.130031589865E+01  0.714391361062E+00  0.714544152847E+00  0.714971702328E+00  0.715795201088E+00
  0.718352113295E+00  0.724113941641E+00  0.741143630031E+00  0.774515237420E+00  0.803190747161E+00  0.130056889360E+01  0.714331907790E+00
  0.714389717020E+00  0.714545962657E+00  0.714969759754E+00  0.715796096229E+00  0.718346802946E+00  0.724119013360E+00  0.741151069497E+00
  0.774592560709E+00  0.803180046209E+00  0.130199820369E+01  0.714331498421E+00  0.714391061700E+00  0.714544610507E+00  0.714970436123E+00
  0.715795204746E+00  0.718352105900E+00  0.724116827048E+00  0.741196700938E+00  0.774528320998E+00  0.805722917954E+00  0.714331758088E+00
  0.714390002405E+00  0.714545308805E+00  0.714969924486E+00  0.715796092480E+00  0.718347634119E+00  0.724138896949E+00  0.741185174798E+00
  0.774933797121E+00  0.714331652160E+00  0.714390688225E+00  0.714544719922E+00  0.714970433862E+00  0.715795193646E+00  0.718359890798E+00
  0.724125341648E+00  0.741406167571E+00  0.714331557362E+00  0.714390054310E+00  0.714545307370E+00  0.714969755317E+00  0.715799180539E+00
  0.718349774601E+00  0.724195828372E+00  0.714331686143E+00  0.714390687292E+00  0.714544607712E+00  0.714971696151E+00  0.715795066109E+00
  0.718373935630E+00  0.714331556833E+00  0.714390000610E+00  0.714545958770E+00  0.714969233740E+00  0.715802854737E+00  0.714331651135E+00
  0.714391059215E+00  0.714544148264E+00  0.714972934716E+00  0.714331756671E+00  0.714389714102E+00  0.714546541210E+00  0.714331496744E+00
  0.714391357854E+00  0.714331905950E+00
  0.000000000000E+00  0.531085506737E+00  0.000000000000E+00  0.470414541847E+00  0.524253038960E+00  0.000000000000E+00  0.476609987136E+00
  0.470294083958E+00  0.524033405663E+00  0.000000000000E+00  0.489891266946E+00  0.476943121238E+00  0.470157292647E+00  0.524206972807E+00
  0.000000000000E+00  0.495350028297E+00  0.490003172298E+00  0.476888536500E+00  0.470239974357E+00  0.524244544083E+00  0.000000000000E+00
  0.498062408913E+00  0.495391625835E+00  0.489979122389E+00  0.476958795117E+00  0.470247622350E+00  0.524245780383E+00  0.000000000000E+00
  0.499052351494E+00  0.498076467715E+00  0.495373515322E+00  0.490009785646E+00  0.476967378935E+00  0.470258799373E+00  0.524244535702E+00
  0.000000000000E+00  0.499598688873E+00  0.499057445152E+00  0.498069226115E+00  0.495394806901E+00  0.490010919253E+00  0.476973183331E+00
  0.470247621008E+00  0.524206949548E+00  0.000000000000E+00  0.499818219857E+00  0.499601407025E+00  0.499054462733E+00  0.498077270346E+00
  0.495386999535E+00  0.490014060155E+00  0.476967404202E+00  0.470239969838E+00  0.524033357099E+00  0.000000000000E+00  0.499908723305E+00
  0.499820779161E+00  0.499599517335E+00  0.499057243780E+00  0.498074739322E+00  0.495396481385E+00  0.490010932413E+00  0.476958847716E+00
  0.470157276171E+00  0.524252914569E+00  0.000000000000E+00  0.499910423907E+00  0.499818555521E+00  0.499601121677E+00  0.499056805188E+00
  0.498078030405E+00  0.495387006945E+00  0.490009812656E+00  0.476888616522E+00  0.470294052072E+00  0.531085318144E+00  0.499908845364E+00
  0.499820694351E+00  0.499600705862E+00  0.499057598940E+00  0.498074743418E+00  0.495394821665E+00  0.489979162812E+00  0.476943227561E+00
  0.470414501199E+00  0.499910495215E+00  0.499819112183E+00  0.499601130587E+00  0.499056807721E+00  0.498077278395E+00  0.495373536715E+00
  0.490003227024E+00  0.476610119398E+00  0.499909022666E+00  0.499820496858E+00  0.499600707508E+00  0.499057248687E+00  0.498069237588E+00
  0.495391652194E+00  0.489891333655E+00  0.499910278801E+00  0.499819113218E+00  0.499601124816E+00  0.499054469726E+00  0.498076481428E+00
  0.495350059036E+00  0.499909023320E+00  0.499820696343E+00  0.499599521722E+00  0.499057453335E+00  0.498062424585E+00  0.499910496461E+00
  0.499818558285E+00  0.499601412180E+00  0.499052360706E+00  0.499908847056E+00  0.499820782365E+00  0.499598694592E+00  0.499910425854E+00
  0.499818223430E+00  0.499908725564E+00
  0.999980637054E+00  0.100960651496E+01  0.999980571952E+00  0.103108032985E+01  0.100901647374E+01  0.999980519777E+00  0.101144230529E+01
  0.103087431509E+01  0.100906008701E+01  0.999980490212E+00  0.100395980405E+01  0.101134070032E+01  0.103089267053E+01  0.100896838825E+01
  0.999980497162E+00  0.100162814615E+01  0.100393506921E+01  0.101134767888E+01  0.103085455538E+01  0.100897002333E+01  0.999980559467E+00
  0.100061079095E+01  0.100162356717E+01  0.100393761561E+01  0.101132381053E+01  0.103084859674E+01  0.100895432655E+01  0.999980700358E+00
  0.100027112592E+01  0.100060681903E+01  0.100162255672E+01  0.100393154864E+01  0.101132636843E+01  0.103084728639E+01  0.100897004541E+01
  0.999980943922E+00  0.100010624643E+01  0.100026829113E+01  0.100060929560E+01  0.100162262570E+01  0.100392979848E+01  0.101132016305E+01
  0.103084856671E+01  0.100896844078E+01  0.999981306659E+00  0.100004350001E+01  0.100010485972E+01  0.100027064623E+01  0.100060689632E+01
  0.100161951339E+01  0.100393026406E+01  0.101132635240E+01  0.103085449124E+01  0.100906018495E+01  0.999981784525E+00  0.100001542719E+01
  0.100004324886E+01  0.100010602403E+01  0.100026851625E+01  0.100060807818E+01  0.100162229242E+01  0.100392979282E+01  0.101132377691E+01
  0.103089256762E+01  0.100901665251E+01  0.999982342226E+00  0.100001496206E+01  0.100004337971E+01  0.100010503346E+01  0.100027010283E+01
  0.100060694581E+01  0.100161951043E+01  0.100393153700E+01  0.101134762699E+01  0.103087415694E+01  0.100960677896E+01  0.100001536359E+01
  0.100004335601E+01  0.100010574644E+01  0.100026858213E+01  0.100060807671E+01  0.100162261973E+01  0.100393759847E+01  0.101134062530E+01
  0.103108011849E+01  0.100001501865E+01  0.100004324339E+01  0.100010506273E+01  0.100027010193E+01  0.100060689336E+01  0.100162254821E+01
  0.100393504506E+01  0.101144221055E+01  0.100001530882E+01  0.100004338080E+01  0.100010574586E+01  0.100026851449E+01  0.100060929143E+01
  0.100162355620E+01  0.100395977517E+01  0.100001503336E+01  0.100004324302E+01  0.100010503234E+01  0.100027064378E+01  0.100060681391E+01
  0.100162813342E+01  0.100001530861E+01  0.100004335529E+01  0.100010602246E+01  0.100026828821E+01  0.100061078507E+01  0.100001501824E+01
  0.100004337871E+01  0.100010485789E+01  0.100027112261E+01  0.100001536303E+01  0.100004324770E+01  0.100010624439E+01  0.100001496140E+01
  0.100004349873E+01  0.100001542645E+01
        67        57        46        56
        57        47        37        46
        47        38        29        37
        38        30        22        29
        30        23        16        22
        23        17        11        16
        17        12         7        11
        12         8         4         7
         8         5         2         4
         5         3         1         2
        77        68        57        67
        68        58        47        57
        58        48        38        47
        48        39        30        38
        39        31        23        30
        31        24        17        23
        24        18        12        17
        18        13         8        12
        13         9         5         8
         9         6         3         5
        86        78        68        77
        78        69        58        68
        69        59        48        58
        59        49        39        48
        49        40        31        39
        40        32        24        31
        32        25        18        24
        25        19        13        18
        19        14         9        13
        14        10         6         9
        94        87        78        86
        87        79        69        78
        79        70        59        69
        70        60        49        59
        60        50        40        49
        50        41        32        40
        41        33        25        32
        33        26        19        25
        26        20        14        19
        20        15        10        14
       101        95        87        94
        95        88        79        87
        88        80        70        79
        80        71        60        70
        71        61        50        60
        61        51        41        50
        51        42        33        41
        42        34        26        33
        34        27        20        26
        27        21        15        20
       107       102        95       101
       102        96        88        95
        96        89        80        88
        89        81        71        80
        81        72        61        71
        72        62        51        61
        62        52        42        51
        52        43        34        42
        43        35        27        34
        35        28        21        27
       112       108       102       107
       108       103        96       102
       103        97        89        96
        97        90        81        89
        90        82        72        81
        82        73        62        72
        73        63        52        62
        63        53        43        52
        53        44        35        43
        44        36        28        35
       116       113       108       112
       113       109       103       108
       109       104        97       103
       104        98        90        97
        98        91        82        90
        91        83        73        82
        83        74        63        73
        74        64        53        63
        64        54        44        53
        54        45        36        44
       119       117       113       116
       117       114       109       113
       114       110       104       109
       110       105        98       104
       105        99        91        98
        99        92        83        91
        92        84        74        83
        84        75        64        74
        75        65        54        64
        65        55        45        54
       121       120       117       119
       120       118       114       117
       118       115       110       114
       115       111       105       110
       111       106        99       105
       106       100        92        99
       100        93        84        92
        93        85        75        84
        85        76        65        75
        76        66        55        65
zone t="boundary 2 bc-2", solutiontime= 0.5000000E+02, strandid=1002, i=121, j=100, f=feblock
  0.000000000000E+00  0.500000000000E+00  0.000000000000E+00  0.100000000000E+01  0.500000000000E+00  0.000000000000E+00  0.150000000000E+01
  0.100000000000E+01  0.500000000000E+00  0.000000000000E+00  0.200000000000E+01  0.150000000000E+01  0.100000000000E+01  0.500000000000E+00
  0.000000000000E+00  0.250000000000E+01  0.200000000000E+01  0.150000000000E+01  0.100000000000E+01  0.500000000000E+00  0.000000000000E+00
  0.300000000000E+01  0.250000000000E+01  0.200000000000E+01  0.150000000000E+01  0.100000000000E+01  0.500000000000E+00  0.000000000000E+00
  0.350000000000E+01  0.300000000000E+01  0.250000000000E+01  0.200000000000E+01  0.150000000000E+01  0.100000000000E+01  0.500000000000E+00
  0.000000000000E+00  0.400000000000E+01  0.350000000000E+01  0.300000000000E+01  0.250000000000E+01  0.200000000000E+01  0.150000000000E+01
  0.100000000000E+01  0.500000000000E+00  0.000000000000E+00  0.450000000000E+01  0.400000000000E+01  0.350000000000E+01  0.300000000000E+01
  0.250000000000E+01  0.200000000000E+01  0.150000000000E+01  0.100000000000E+01  0.500000000000E+00  0.000000000000E+00  0.500000000000E+01