# vtk DataFile Version 2.0
FUN3D:global_image_vtk
ASCII
DATASET UNSTRUCTURED_GRID
POINTS 1331 double
    0.0000000000000000E+00    0.2500000000000000E+01    0.0000000000000000E+00
    0.5000000000000000E+00    0.2500000000000000E+01    0.0000000000000000E+00
    0.1000000000000000E+01    0.2500000000000000E+01    0.0000000000000000E+00
    0.1500000000000000E+01    0.2500000000000000E+01    0.0000000000000000E+00
    0.2000000000000000E+01    0.2500000000000000E+01    0.0000000000000000E+00
    0.2500000000000000E+01    0.2500000000000000E+01    0.0000000000000000E+00
    0.3000000000000000E+01    0.2500000000000000E+01    0.0000000000000000E+00
    0.3500000000000000E+01    0.2500000000000000E+01    0.0000000000000000E+00
    0.4000000000000000E+01    0.2500000000000000E+01    0.0000000000000000E+00
    0.4500000000000000E+01    0.2500000000000000E+01    0.0000000000000000E+00
    0.5000000000000000E+01    0.2500000000000000E+01    0.0000000000000000E+00
    0.0000000000000000E+00    0.2500000000000000E+01    0.4999999999999982E+00
    0.4999999999999998E+00    0.2500000000000000E+01    0.4999999999999984E+00
    0.9999999999999998E+00    0.2500000000000000E+01    0.4999999999999987E+00
    0.1500000000000000E+01    0.2500000000000000E+01    0.4999999999999989E+00
    0.2000000000000000E+01    0.2500000000000000E+01    0.4999999999999991E+00
    0.2500000000000000E+01    0.2500000000000000E+01    0.4999999999999993E+00
    0.3000000000000000E+01    0.2500000000000000E+01    0.4999999999999996E+00
    0.3500000000000000E+01    0.2500000000000000E+01    0.4999999999999998E+00
    0.4000000000000000E+01    0.2500000000000000E+01    0.5000000000000000E+00
    0.4500000000000002E+01    0.2500000000000000E+01    0.5000000000000002E+00
    0.5000000000000000E+01    0.2500000000000000E+01    0.5000000000000004E+00
    0.0000000000000000E+00    0.2500000000000000E+01    0.1000000000000001E+01
    0.4999999999999997E+00    0.2500000000000000E+01    0.1000000000000001E+01
    0.1000000000000000E+01    0.2500000000000000E+01    0.1000000000000001E+01
    0.1500000000000000E+01    0.2500000000000000E+01    0.1000000000000001E+01
    0.2000000000000000E+01    0.2500000000000000E+01    0.1000000000000001E+01
    0.2500000000000000E+01    0.2500000000000000E+01    0.1000000000000001E+01
    0.3000000000000000E+01    0.2500000000000000E+01    0.1000000000000001E+01
    0.3500000000000000E+01    0.2500000000000000E+01    0.1000000000000001E+01
    0.4000000000000000E+01    0.2500000000000000E+01    0.1000000000000001E+01
    0.4499999999999999E+01    0.2500000000000000E+01    0.1000000000000001E+01
    0.5000000000000000E+01    0.2500000000000000E+01    0.1000000000000001E+01
    0.0000000000000000E+00    0.2500000000000000E+01    0.1499999999999999E+01
    0.4999999999999994E+00    0.2500000000000000E+01    0.1499999999999999E+01
    0.1000000000000000E+01    0.2500000000000000E+01    0.1499999999999999E+01
    0.1500000000000000E+01    0.2500000000000000E+01    0.1499999999999999E+01
    0.2000000000000001E+01    0.2500000000000000E+01    0.1499999999999999E+01
    0.2500000000000000E+01    0.2500000000000000E+01    0.1499999999999999E+01
    0.2999999999999999E+01    0.2500000000000000E+01    0.1499999999999999E+01
    0.3500000000000000E+01    0.2500000000000000E+01    0.1499999999999999E+01
    0.4000000000000001E+01    0.2500000000000000E+01    0.1499999999999999E+01
    0.4500000000000001E+01    0.2500000000000000E+01    0.1499999999999999E+01
    0.5000000000000000E+01    0.2500000000000000E+01    0.1499999999999999E+01
    0.0000000000000000E+00    0.2500000000000000E+01    0.2000000000000002E+01
    0.4999999999999992E+00    0.2500000000000000E+01    0.2000000000000001E+01
    0.1000000000000000E+01    0.2500000000000000E+01    0.2000000000000001E+01
    0.1500000000000000E+01    0.2500000000000000E+01    0.2000000000000001E+01
    0.2000000000000001E+01    0.2500000000000000E+01    0.2000000000000001E+01
    0.2500000000000000E+01    0.2500000000000000E+01    0.2000000000000001E+01
    0.2999999999999999E+01    0.2500000000000000E+01    0.2000000000000000E+01
    0.3500000000000000E+01    0.2500000000000000E+01    0.2000000000000000E+01
    0.4000000000000000E+01    0.2500000000000000E+01    0.2000000000000000E+01
    0.4500000000000000E+01    0.2500000000000000E+01    0.2000000000000000E+01
    0.5000000000000000E+01    0.2500000000000000E+01    0.2000000000000000E+01
    0.0000000000000000E+00    0.2500000000000000E+01    0.2500000000000000E+01
    0.4999999999999991E+00    0.2500000000000000E+01    0.2500000000000000E+01
    0.1000000000000000E+01    0.2500000000000000E+01    0.2500000000000000E+01
    0.1500000000000000E+01    0.2500000000000000E+01    0.2500000000000000E+01
    0.2000000000000001E+01    0.2500000000000000E+01    0.2500000000000000E+01
    0.2500000000000000E+01    0.2500000000000000E+01    0.2500000000000000E+01
    0.2999999999999999E+01    0.2500000000000000E+01    0.2500000000000000E+01
    0.3500000000000001E+01    0.2500000000000000E+01    0.2500000000000000E+01
    0.4000000000000000E+01    0.2500000000000000E+01    0.2500000000000000E+01
    0.4500000000000001E+01    0.2500000000000000E+01    0.2500000000000000E+01
    0.5000000000000000E+01    0.2500000000000000E+01    0.2500000000000000E+01
    0.0000000000000000E+00    0.2500000000000000E+01    0.2999999999999998E+01
    0.4999999999999989E+00    0.2500000000000000E+01    0.2999999999999998E+01
    0.1000000000000000E+01    0.2500000000000000E+01    0.2999999999999999E+01
    0.1499999999999999E+01    0.2500000000000000E+01    0.2999999999999999E+01
    0.2000000000000001E+01    0.2500000000000000E+01    0.2999999999999999E+01
    0.2500000000000000E+01    0.2500000000000000E+01    0.2999999999999999E+01
    0.2999999999999999E+01    0.2500000000000000E+01    0.2999999999999999E+01
    0.3500000000000001E+01    0.2500000000000000E+01    0.3000000000000000E+01
    0.4000000000000000E+01    0.2500000000000000E+01    0.3000000000000000E+01
    0.4500000000000001E+01    0.2500000000000000E+01    0.3000000000000000E+01
    0.5000000000000000E+01    0.2500000000000000E+01    0.3000000000000000E+01
    0.0000000000000000E+00    0.2500000000000000E+01    0.3500000000000001E+01
    0.4999999999999988E+00    0.2500000000000000E+01    0.3500000000000001E+01
    0.1000000000000001E+01    0.2500000000000000E+01    0.3500000000000001E+01
    0.1499999999999999E+01    0.2500000000000000E+01    0.3500000000000001E+01
    0.2000000000000001E+01    0.2500000000000000E+01    0.3500000000000001E+01
    0.2500000000000000E+01    0.2500000000000000E+01    0.3500000000000001E+01
    0.2999999999999999E+01    0.2500000000000000E+01    0.3500000000000001E+01
    0.3500000000000001E+01    0.2500000000000000E+01    0.3500000000000001E+01
    0.4000000000000001E+01    0.2500000000000000E+01    0.3500000000000001E+01
    0.4500000000000001E+01    0.2500000000000000E+01    0.3500000000000001E+01
    0.5000000000000000E+01    0.2500000000000000E+01    0.3500000000000001E+01
    0.0000000000000000E+00    0.2500000000000000E+01    0.3999999999999999E+01
    0.4999999999999986E+00    0.2500000000000000E+01    0.4000000000000000E+01
    0.1000000000000001E+01    0.2500000000000000E+01    0.3999999999999999E+01
    0.1499999999999999E+01    0.2500000000000000E+01    0.3999999999999999E+01
    0.2000000000000001E+01    0.2500000000000000E+01    0.3999999999999999E+01
    0.2500000000000000E+01    0.2500000000000000E+01    0.3999999999999999E+01
    0.2999999999999998E+01    0.2500000000000000E+01    0.3999999999999999E+01
    0.3500000000000001E+01    0.2500000000000000E+01    0.3999999999999999E+01
    0.3999999999999999E+01    0.2500000000000000E+01    0.3999999999999999E+01
    0.4500000000000003E+01    0.2500000000000000E+01    0.3999999999999999E+01
    0.5000000000000000E+01    0.2500000000000000E+01    0.3999999999999999E+01
    0.0000000000000000E+00    0.2500000000000000E+01    0.4500000000000002E+01
    0.4999999999999984E+00    0.2500000000000000E+01    0.4500000000000002E+01
    0.1000000000000001E+01    0.2500000000000000E+01    0.4500000000000001E+01
    0.1499999999999999E+01    0.2500000000000000E+01    0.4500000000000003E+01
    0.2000000000000002E+01    0.2500000000000000E+01    0.4500000000000001E+01
    0.2500000000000000E+01    0.2500000000000000E+01    0.4500000000000001E+01
    0.2999999999999998E+01    0.2500000000000000E+01    0.4500000000000001E+01
    0.3500000000000001E+01    0.2500000000000000E+01    0.4499999999999999E+01
    0.3999999999999999E+01    0.2500000000000000E+01    0.4499999999999999E+01
    0.4500000000000002E+01    0.2500000000000000E+01    0.4500000000000000E+01
    0.5000000000000000E+01    0.2500000000000000E+01    0.4500000000000000E+01
    0.0000000000000000E+00    0.2500000000000000E+01    0.5000000000000000E+01
    0.4999999999999982E+00    0.2500000000000000E+01    0.5000000000000000E+01
    0.1000000000000001E+01    0.2500000000000000E+01    0.5000000000000000E+01
    0.1499999999999999E+01    0.2500000000000000E+01    0.5000000000000000E+01
    0.2000000000000002E+01    0.2500000000000000E+01    0.5000000000000000E+01
    0.2500000000000000E+01    0.2500000000000000E+01    0.5000000000000000E+01
    0.2999999999999998E+01    0.2500000000000000E+01    0.5000000000000000E+01
    0.3500000000000001E+01    0.2500000000000000E+01    0.5000000000000000E+01
    0.3999999999999999E+01    0.2500000000000000E+01    0.5000000000000000E+01
    0.4500000000000002E+01    0.2500000000000000E+01    0.5000000000000000E+01
    0.5000000000000000E+01    0.2500000000000000E+01    0.5000000000000000E+01
    0.0000000000000000E+00    0.2000000000000000E+01    0.0000000000000000E+00
    0.5000000000000000E+00    0.2000000000000000E+01    0.0000000000000000E+00
    0.1000000000000000E+01    0.2000000000000000E+01    0.0000000000000000E+00
    0.1500000000000000E+01    0.2000000000000000E+01    0.0000000000000000E+00
[...]
POINT_DATA 1331
SCALARS rho double 1
LOOKUP_TABLE default
   0.1822842251746742E+01
   0.8026083458209350E+00
   0.8627106073774187E+00
   0.1000979073620186E+01
   0.1006741571834573E+01
   0.9914493159349398E+00
   0.9931316662552967E+00
   0.9995209849101760E+00
   0.9929936861074868E+00
   0.9054775868094577E+00
   0.5956907566314172E+00
   0.1117308629349292E+01
   0.9418176419831286E+00
   0.9964382985730006E+00
   0.1001305220281896E+01
   0.1003968939798497E+01
   0.1001230056068713E+01
   0.1001148392817800E+01
   0.9985271312128462E+00
   0.9961027596323614E+00
   0.9881732506142932E+00
   0.9977434988405086E+00
   0.1052200363691354E+01
   0.9794778538272537E+00
   0.9764865719247652E+00
   0.9872476401568644E+00
   0.9931416786294007E+00
   0.9919505601834127E+00
   0.9921140556086175E+00
   0.9930156622807692E+00
   0.9901669057822604E+00
   0.9930108434956360E+00
   0.9770234784126860E+00
   0.1026241811715911E+01
   0.1000534104248282E+01
   0.9967213972441036E+00
   0.9938551049709371E+00
   0.9946332856916902E+00
   0.9941494114595947E+00
   0.9942877297865121E+00
   0.9947636243301429E+00
   0.9954443595840451E+00
   0.1000067157489513E+01
   0.1002019689489801E+01
   0.1009871383956834E+01
   0.1002184200282389E+01
   0.9979434683451841E+00
   0.9968534309948744E+00
   0.9971745580375763E+00
   0.9969089424151618E+00
   0.9969738470064977E+00
   0.9976321808236048E+00
   0.9977379338316602E+00
   0.1000277230389385E+01
   0.1001439940165357E+01
   0.1004083276761010E+01
   0.1002179127117171E+01
   0.9998984350489346E+00
   0.9983550531701206E+00
   0.9978989705414740E+00
   0.9976589651682487E+00
   0.9977152517810168E+00
   0.9983092318179192E+00
   0.9988732067825704E+00
   0.1000448127138170E+01
   0.1001710811888409E+01
   0.1001520467300127E+01
   0.1001081515091848E+01
   0.9997887229872654E+00
   0.9989902584281893E+00
   0.9985780434755056E+00
   0.9983828934876781E+00
   0.9983727024482373E+00
   0.9987497646076016E+00
   0.9991150906216356E+00
   0.9999743985362283E+00
   0.1000807089265056E+01
   0.1000684848968039E+01
   0.1000638450931955E+01
   0.9999251783774692E+00
   0.9993474436936304E+00
   0.9989605409849540E+00
   0.9987940819510186E+00
   0.9987859024265278E+00
   0.9990524697723764E+00
   0.9993817751222944E+00
   0.9998992697383592E+00
   0.1000436374639882E+01
   0.1000261779589834E+01
   0.1000272011679507E+01
   0.9998808065731440E+00
   0.9995376792707843E+00
   0.9992438703541801E+00
   0.9990922512587735E+00
   0.9990538984141306E+00
   0.9992066733068528E+00
   0.9994420079603215E+00
   0.9997891103067134E+00
   0.1000183433097630E+01
   0.1000107815584074E+01
   0.1000132412795935E+01
   0.9999065949233278E+00
   0.9996622641655042E+00
   0.9994222291244609E+00
   0.9992754543980213E+00
   0.9992182353337669E+00
   0.9993011896183609E+00
   0.9994771299557575E+00
   0.9997403508928885E+00
   0.1000058272929843E+01
   0.1000044052148237E+01
   0.1000094611501103E+01
   0.9999631358898105E+00
   0.9997644219455490E+00
   0.9995385106421782E+00
   0.9993664864905840E+00
   0.9992675486674556E+00
   0.9992883484795273E+00
   0.9994186821869343E+00
   0.9996558466632602E+00
   0.9999716095602319E+00
   0.1820837715529021E+01
   0.8020774903447249E+00
   0.8628363158648443E+00
   0.1001001694272212E+01
   0.1006768215869597E+01
   0.9914606791372110E+00
   0.9931304964859246E+00
   0.9994918524108997E+00
   0.9929565766913294E+00
   0.9054553033002603E+00
   0.5956045689581609E+00
   0.1114406910975896E+01
   0.9411037905711855E+00
   0.9974230039645889E+00
   0.1001396484683440E+01
   0.1004158198164931E+01
   0.1001352972281115E+01
   0.1001317517343886E+01
   0.9985866947284704E+00
   0.9960288712275424E+00
   0.9879432930098891E+00
   0.9980283518694879E+00
   0.1051860771276983E+01
   0.9794190988008992E+00
   0.9767226407384137E+00
   0.9872376867273829E+00
   0.9931593734277758E+00
   0.9919552660739231E+00
   0.9921154479446043E+00
   0.9930028047414299E+00
   0.9901536475219450E+00
   0.9930936304087924E+00
   0.9772995159127741E+00
   0.1026030222961581E+01
   0.1000420643929074E+01
   0.9968291788143556E+00
   0.9939035304353954E+00
   0.9946888915595068E+00
   0.9941927769360537E+00
   0.9943328812411860E+00
   0.9947912080638065E+00
   0.9954513109108755E+00
   0.1000036099285791E+01
   0.1002007932600771E+01
   0.1009802876007540E+01
   0.1002085641922015E+01
   0.9979255635083735E+00
   0.9968457832519617E+00
   0.9971811500564071E+00
   0.9969153635040536E+00
   0.9969820526221397E+00
   0.9976391462574967E+00
   0.9977436499029784E+00
   0.1000269721341973E+01
   0.1001438055535994E+01
   0.1004062619266810E+01
   0.1002134756387242E+01
   0.9998741017383784E+00
   0.9983372538716333E+00
   0.9978910461031135E+00
   0.9976561306642431E+00
   0.9977147195239475E+00
   0.9983053072774076E+00
   0.9988681444687622E+00
   0.1000438854227043E+01
   0.1001703173130217E+01
   0.1001512092943811E+01
   0.1001060566515998E+01
   0.9997705617082252E+00
   0.9989753174236320E+00
   0.9985665812777922E+00
   0.9983738511691217E+00
   0.9983682678392831E+00
   0.9987474284170083E+00
   0.9991108292900615E+00
   0.9999664964808754E+00
   0.1000798899404968E+01
   0.1000680860004211E+01
   0.1000628742183472E+01
   0.9999136305043395E+00
   0.9993364634930568E+00
   0.9989518126035378E+00
   0.9987858017819888E+00
   0.9987776500240025E+00
   0.9990464496017145E+00
   0.9993790298886187E+00
   0.9998957348087180E+00
   0.1000431628751642E+01
   0.1000259257719036E+01
   0.1000267081975028E+01
   0.9998738849822596E+00
   0.9995294870646741E+00
   0.9992361661914126E+00
   0.9990859346113325E+00
   0.9990474781138963E+00
   0.9991987519513071E+00
   0.9994353482403560E+00
   0.9997868486165027E+00
   0.1000184738541702E+01
   0.1000106315728650E+01
   0.1000129620428162E+01
   0.9999023576086743E+00
   0.9996566936785044E+00
   0.9994158678418716E+00
   0.9992693501667065E+00
   0.9992127240929177E+00
   0.9992952656799318E+00
   0.9994709678707439E+00
   0.9997358631533910E+00
   0.1000055862144218E+01
   0.1000043349764359E+01
   0.1000092697891150E+01
   0.9999600018726648E+00
   0.9997604072958560E+00
   0.9995331862568935E+00
   0.9993594294033421E+00
   0.9992607041828976E+00
   0.9992837842324744E+00
   0.9994144079292769E+00
   0.9996505724882944E+00
   0.9999682267826293E+00
   0.1820485149069542E+01
   0.8021991696693002E+00
   0.8629219887699704E+00
   0.1000934062063363E+01
   0.1006718997898275E+01
   0.9914315316194496E+00
   0.9931115614142396E+00
   0.9994811295929150E+00
   0.9929633769923654E+00
   0.9054617706007330E+00
   0.5955668710825041E+00
   0.1114399666598314E+01
   0.9414709151878656E+00
   0.9974613460953448E+00
   0.1001341141559606E+01
   0.1004145824555241E+01
   0.1001342465275741E+01
   0.1001314054254532E+01
   0.9986014285261233E+00
   0.9960783638503988E+00
   0.9880526112157426E+00
   0.9981282762697083E+00
   0.1051928276319474E+01
   0.9795430544673680E+00
   0.9767351128442219E+00
   0.9872145967169935E+00
   0.9931512650436288E+00
   0.9919488789643989E+00
   0.9921170081404788E+00
   0.9930105515006077E+00
   0.9901697660337083E+00
   0.9931201823078323E+00
   0.9773104615631151E+00
   0.1026047739299031E+01
   0.1000500909977245E+01
   0.9968492062729198E+00
   0.9938907066809709E+00
   0.9946754987150279E+00
   0.9941764798368968E+00
   0.9943189432084408E+00
   0.9947844787365010E+00
   0.9954549150825642E+00
   0.1000056385510174E+01
   0.1002032766151367E+01
   0.1009814353185870E+01
   0.1002130451984725E+01
   0.9979529032975882E+00
   0.9968539415759619E+00
   0.9971832350480961E+00
   0.9969141218189375E+00
   0.9969804261543447E+00
   0.9976371686867682E+00
   0.9977431013739378E+00
   0.1000276220047805E+01
   0.1001446487920336E+01
   0.1004069163439982E+01
   0.1002157389872030E+01
   0.9998930195777954E+00
   0.9983476007753609E+00
   0.9978960506572431E+00
   0.9976561890367538E+00
   0.9977142314756947E+00
   0.9983075010082215E+00
   0.9988713545421802E+00
   0.1000442709234902E+01
   0.1001707254212233E+01
   0.1001516752226626E+01
   0.1001072892974276E+01
   0.9997838004847732E+00
   0.9989850060713152E+00
   0.9985743947346996E+00
   0.9983794173878279E+00
   0.9983701830420048E+00
   0.9987474067699832E+00
   0.9991133376383760E+00
   0.9999717532660926E+00
   0.1000804142303739E+01
   0.1000683605763438E+01
   0.1000635306014890E+01
   0.9999223638255490E+00
   0.9993441139713870E+00
   0.9989576335212742E+00
   0.9987911808817260E+00
   0.9987833618297076E+00
   0.9990499660228817E+00
   0.9993796197583930E+00
   0.9998973369333383E+00
   0.1000434792264448E+01
   0.1000261191037375E+01
   0.1000270712384053E+01
   0.9998793357450129E+00
   0.9995357905145172E+00
   0.9992419135137092E+00
   0.9990901451566538E+00
   0.9990518604471146E+00
   0.9992046298606475E+00
   0.9994401047523007E+00
   0.9997875810327160E+00
   0.1000182428771774E+01
   0.1000107524868590E+01
   0.1000131815731999E+01
   0.9999057778804130E+00
   0.9996611235819453E+00
   0.9994208957149678E+00
   0.9992739099382001E+00
   0.9992166016517740E+00
   0.9992995019566460E+00
   0.9994754976558532E+00
   0.9997390481357800E+00
   0.1000057511399671E+01
   0.1000043921908489E+01
   0.1000094255365444E+01
   0.9999625754917536E+00
   0.9997635894348201E+00
   0.9995374538421947E+00
   0.9993652029027783E+00
   0.9992660984755756E+00
   0.9992867963050662E+00
   0.9994171439240728E+00
   0.9996545972405104E+00
   0.9999708860539055E+00
   0.1820553663788685E+01
   0.8023300347616951E+00
   0.8630710258386191E+00
   0.1000944239506084E+01
   0.1006704792002477E+01
   0.9914246204033335E+00
   0.9931082269882374E+00
   0.9994742618779922E+00
   0.9929614006635086E+00
   0.9054845694581396E+00
   0.5956185680235337E+00
   0.1114184036498685E+01
   0.9413778607674719E+00
   0.9976110175257261E+00
   0.1001354771255595E+01
   0.1004159963764231E+01
   0.1001333011771645E+01
   0.1001305556246612E+01
   0.9985692227986498E+00
   0.9960205797860112E+00
   0.9879696692991214E+00
   0.9980850883394239E+00
   0.1051862808494588E+01
   0.9795401301121960E+00
   0.9767970458319567E+00
   0.9872290901385963E+00
   0.9931661895311051E+00
   0.9919534245870099E+00
   0.9921200700972700E+00
   0.9930082695167066E+00
   0.9901688311543928E+00
   0.9931205183765011E+00
   0.9773203408510379E+00
   0.1026000067108191E+01
   0.1000467204009701E+01
   0.9968776569101833E+00
   0.9939036511705409E+00
   0.9946904013716453E+00
   0.9941836392715819E+00
   0.9943247672572649E+00
   0.9947812637991639E+00
   0.9954435973911057E+00
   0.1000035228925538E+01
   0.1002015902030438E+01
   0.1009794437780422E+01
   0.1002104360585904E+01
   0.9979528516100746E+00
   0.9968546907684835E+00
   0.9971886123160099E+00
   0.9969160204311925E+00
   0.9969817816690256E+00
   0.9976375058036544E+00
   0.9977425172240907E+00
   0.1000270110320757E+01
   0.1001439393237546E+01
   0.1004060400054632E+01
   0.1002142278651567E+01
   0.9998889774708596E+00
   0.9983446435861991E+00
   0.9978971595126738E+00
   0.9976581747166979E+00
   0.9977154963641137E+00
   0.9983046999999114E+00
   0.9988674067858750E+00
   0.1000438703979680E+01
   0.1001704539605221E+01
   0.1001512294977653E+01
   0.1001063706691447E+01
   0.9997784549741234E+00
   0.9989813432615021E+00
   0.9985721220964608E+00
   0.9983772887665124E+00
   0.9983706897770817E+00
   0.9987487650183750E+00
   0.9991116273928535E+00
   0.9999668799718802E+00
   0.1000799415143903E+01
   0.1000681431875889E+01
   0.1000630218581024E+01
   0.9999175755006157E+00
   0.9993402504512168E+00
   0.9989557405519103E+00
   0.9987889100477427E+00
   0.9987802369316252E+00
   0.9990484112059209E+00
   0.9993806131771720E+00
   0.9998967736600808E+00
   0.1000432281528613E+01
   0.1000259706758063E+01
   0.1000267871030925E+01
   0.9998759435440639E+00
   0.9995318732647227E+00
   0.9992388875200652E+00
   0.9990884807017558E+00
   0.9990498538861613E+00
   0.9992008059864085E+00
   0.9994371350662061E+00
   0.9997881186996986E+00
   0.1000185405259843E+01
   0.1000106581852072E+01
   0.1000130068036160E+01
   0.9999034693566282E+00
   0.9996581908353436E+00
   0.9994177527584494E+00
   0.9992713651713698E+00
   0.9992148061202576E+00
   0.9992972557846959E+00
   0.9994727895811932E+00
   0.9997372100623508E+00
   0.1000056521845325E+01
   0.1000043480743189E+01
   0.1000092976202021E+01
   0.9999607347168672E+00
   0.9997615372489196E+00
   0.9995347067120657E+00
   0.9993611856483372E+00
   0.9992626158481611E+00
   0.9992857269727712E+00
   0.9994162716345393E+00
   0.9996520118398671E+00
   0.9999689714690987E+00
   0.1820584338628999E+01
   0.8023575985184542E+00
   0.8631029883228427E+00
   0.1000944045464412E+01
   0.1006700960361364E+01
   0.9914238341211492E+00
   0.9931095478865453E+00
   0.9994753571315564E+00
   0.9929648160613546E+00
   0.9054963130627388E+00
   0.5956408112627182E+00
   0.1114160690889880E+01
   0.9413595138675410E+00
   0.9976162244128541E+00
   0.1001347704431202E+01
   0.1004163989464129E+01
   0.1001331768775183E+01
   0.1001304262377433E+01
   0.9985684772689447E+00
   0.9960235604425036E+00
   0.9879671409343044E+00
   0.9980842676692481E+00
   0.1051855486513974E+01
   0.9795441515076350E+00
   0.9768032767137136E+00
   0.9872244033052873E+00
   0.9931642122821267E+00
   0.9919511786709222E+00
   0.9921217640088169E+00
   0.9930103512201888E+00
   0.9901707592067573E+00
   0.9931225022865633E+00
   0.9773249615072631E+00
   0.1025995936616014E+01
   0.1000470604431059E+01
   0.9968836013565616E+00
   0.9939029983011306E+00
   0.9946919351582099E+00
   0.9941823447268603E+00
   0.9943239395963245E+00
   0.9947821515489936E+00
   0.9954471509435395E+00
   0.1000037400241652E+01
   0.1002015996053999E+01
   0.1009794499094213E+01
   0.1002108187835013E+01
   0.9979559991243382E+00
   0.9968526293881863E+00
   0.9971873031267794E+00
   0.9969155840153200E+00
   0.9969826637174536E+00
   0.9976372116401639E+00
   0.9977423075034262E+00
   0.1000271277708779E+01
   0.1001441240154009E+01
   0.1004061448641177E+01
   0.1002145576136256E+01
   0.9998924010826759E+00
   0.9983452759975106E+00
   0.9978965029655607E+00
   0.9976553883990893E+00
   0.9977139495445997E+00
   0.9983058725177433E+00
   0.9988690640350220E+00
   0.1000438357598201E+01
   0.1001703389143340E+01
   0.1001513635156624E+01
   0.1001066515222680E+01
   0.9997811422503416E+00
   0.9989822178467428E+00
   0.9985733841912754E+00
   0.9983782935374829E+00
   0.9983695867478338E+00
   0.9987464326886000E+00
   0.9991122808248933E+00
   0.9999698968165472E+00
   0.1000802135925926E+01
   0.1000682255069795E+01
   0.1000632287837809E+01
   0.9999202703742789E+00
   0.9993416570915975E+00
   0.9989558771241183E+00
   0.9987894703998080E+00
   0.9987820571794294E+00
   0.9990486558089920E+00
   0.9993784591201463E+00
   0.9998961118031573E+00
   0.1000433814025194E+01
   0.1000260493109682E+01
   0.1000269198183596E+01
   0.9998778993598736E+00
   0.9995340229209694E+00
   0.9992402884609478E+00
   0.9990884647952166E+00
   0.9990503464651510E+00
   0.9992031639371409E+00
   0.9994388171567935E+00
   0.9997865293914926E+00
   0.1000181806144480E+01
   0.1000107167605319E+01
   0.1000131040555122E+01
   0.9999048318997278E+00
   0.9996598498589206E+00
   0.9994195161487449E+00
   0.9992723900612072E+00
   0.9992150832005789E+00
   0.9992979949537810E+00
   0.9994741356082675E+00
   0.9997380320602473E+00
   0.1000057038417774E+01
   0.1000043761727766E+01
   0.1000093765411834E+01
   0.9999618615829299E+00
   0.9997625756576024E+00
   0.9995362440746084E+00
   0.9993638057036159E+00
   0.9992646118425490E+00
   0.9992852710970568E+00
   0.9994156993233986E+00
   0.9996535001312448E+00
   0.9999703594654408E+00
   0.1820584605827102E+01
   0.8023589673263346E+00
   0.8631136306296298E+00
   0.1000947163440563E+01
   0.1006700939172917E+01
   0.9914224973393105E+00
   0.9931081708731510E+00
   0.9994737517529523E+00
   0.9929636991600026E+00
   0.9054965429347348E+00
   0.5956421944704818E+00
   0.1114152148333586E+01
   0.9413479607511440E+00
   0.9976314330473457E+00
   0.1001349940582911E+01
   0.1004164314573143E+01
   0.1001328866091487E+01
   0.1001302413841366E+01
   0.9985628505639657E+00
   0.9960130072221907E+00
   0.9879536656189050E+00
   0.9980765100153995E+00
   0.1051848999420769E+01
   0.9795410222179604E+00
   0.9768104201926582E+00
   0.9872264359378695E+00
   0.9931660967125436E+00
   0.9919500749621998E+00
   0.9921189159712891E+00
   0.9930069807256696E+00
   0.9901691084511033E+00
   0.9931207484692623E+00
   0.9773238683581336E+00
   0.1025990702674900E+01
   0.1000465375954273E+01
   0.9968888388093035E+00
   0.9939056487246469E+00
   0.9946939390935738E+00
   0.9941829637644596E+00
   0.9943241569481077E+00
   0.9947793607108535E+00
   0.9954419571480779E+00
   0.1000031985343512E+01
   0.1002013737515528E+01
   0.1009791540547456E+01
   0.1002104109917526E+01
   0.9979574479253367E+00
   0.9968546473336608E+00
   0.9971894654126834E+00
   0.9969152315362462E+00
   0.9969814332556475E+00
   0.9976367780231946E+00
   0.9977422786875773E+00
   0.1000269555572085E+01
   0.1001439163651660E+01
   0.1004059528780051E+01
   0.1002142652198498E+01
   0.9998925072642834E+00
   0.9983455237323224E+00
   0.9978978116059392E+00
   0.9976572786634972E+00
   0.9977144719153069E+00
   0.9983033488367877E+00
   0.9988663236351771E+00
   0.1000437607891251E+01
   0.1001704043128724E+01
   0.1001512236518706E+01
   0.1001064103631394E+01
   0.9997805760597520E+00
   0.9989825772430236E+00
   0.9985732732836572E+00
   0.9983775707681519E+00
   0.9983706456256035E+00
   0.9987483063094720E+00
   0.9991111979856948E+00
   0.9999664571982365E+00
   0.1000799216280875E+01
   0.1000681583914114E+01
   0.1000630592112728E+01
   0.9999188871435105E+00
   0.9993412669500178E+00
   0.9989567182694765E+00
   0.9987894408405850E+00
   0.9987805679537269E+00
   0.9990484501416176E+00
   0.9993805386406102E+00
   0.9998966669850948E+00
   0.1000432253886139E+01
   0.1000259859044426E+01
   0.1000268144756510E+01
   0.9998767511343314E+00
   0.9995327147365652E+00
   0.9992397926019521E+00
   0.9990891851367165E+00
   0.9990504138643381E+00
   0.9992011853416449E+00
   0.9994373986970666E+00
   0.9997882333102307E+00
   0.1000185387205448E+01
   0.1000106685903511E+01
   0.1000130253071887E+01
   0.9999039597039207E+00
   0.9996588087175321E+00
   0.9994184991847997E+00
   0.9992720919570496E+00
   0.9992154844572071E+00
   0.9992978224830835E+00
   0.9994732494925428E+00
   0.9997374920140468E+00
   0.1000056595731556E+01
   0.1000043532602743E+01
   0.1000093096185665E+01
   0.9999610823167413E+00
   0.9997620538836964E+00
   0.9995353635644530E+00
   0.9993618840662132E+00
   0.9992633238392572E+00
   0.9992863886236931E+00
   0.9994168357921214E+00
   0.9996523723560761E+00
   0.9999691129258995E+00
   0.1820583507954911E+01
   0.8023576022070183E+00
   0.8631030072037797E+00
   0.1000944046537402E+01
   0.1006701007996065E+01
   0.9914239078384066E+00
   0.9931095967648953E+00
   0.9994753448835115E+00
   0.9929647218349212E+00
   0.9054961142714776E+00
   0.5956404789277466E+00
   0.1114160495702948E+01
   0.9413595288094525E+00
   0.9976161647132695E+00
   0.1001347650364164E+01
   0.1004163926386474E+01
   0.1001331706539111E+01
   0.1001304197575557E+01
   0.9985684083863944E+00
   0.9960234896959048E+00
   0.9879670592970123E+00
   0.9980842007142361E+00
   0.1051855461029609E+01
   0.9795441761681455E+00
   0.9768032914433692E+00
   0.9872244146992110E+00
   0.9931642152063334E+00
   0.9919511821646072E+00
   0.9921217651493655E+00
   0.9930103505349180E+00
   0.9901707544933247E+00
   0.9931224950757529E+00
   0.9773249435047203E+00
   0.1025995903809785E+01
   0.1000470606663374E+01
   0.9968836026711095E+00
   0.9939030043468458E+00
   0.9946919388191136E+00
   0.9941823484876782E+00
   0.9943239416497448E+00
   0.9947821522076423E+00