title="tecplot geometry and solution file"
variables = x y z rho u v w p mach temperature
zone t="boundary 1 bc-1", solutiontime= 0.2000000E+02, strandid=1001, i=32, j=46, f=feblock
 -0.547474059297E-02  0.000000000000E+00 -0.567611628095E-02  0.000000000000E+00  0.000000000000E+00  0.000000000000E+00 -0.525163924515E-02
 -0.425780134733E-02  0.000000000000E+00  0.000000000000E+00  0.000000000000E+00  0.000000000000E+00  0.000000000000E+00  0.000000000000E+00
  0.000000000000E+00  0.000000000000E+00 -0.338397968191E-02  0.000000000000E+00  0.000000000000E+00  0.000000000000E+00  0.000000000000E+00
  0.000000000000E+00  0.000000000000E+00  0.000000000000E+00  0.000000000000E+00  0.000000000000E+00  0.000000000000E+00  0.000000000000E+00
  0.000000000000E+00  0.000000000000E+00  0.000000000000E+00  0.000000000000E+00
  0.250494200247E+01  0.250494200247E+01  0.127822172846E+01  0.146289271009E+01  0.157686156160E+01  0.308372018325E+00  0.261950000670E-01
 -0.122573468787E+01 -0.600232012419E+00  0.250494200247E+01  0.477386199275E+00  0.742988685424E+00 -0.739814786992E+00  0.177790177481E+01
  0.155830813274E+01  0.250494200247E+01 -0.249658901876E+01 -0.154800130438E+01 -0.487811078581E+00  0.250494200247E+01  0.627766083140E+00
 -0.345533899378E+00 -0.178862290564E+01 -0.158811787973E+01  0.125000000000E+01 -0.249658901876E+01 -0.144524380962E+01  0.000000000000E+00
 -0.125000000000E+01 -0.249658901876E+01 -0.249658901876E+01 -0.249658901876E+01
  0.803807976037E-04  0.125000000000E+01  0.822456050891E-04  0.103724302461E+01  0.219251206392E+01  0.922061490191E+00  0.103872566560E-03
  0.341545701033E-04  0.715990576545E+00  0.250000000000E+01  0.202479342020E+01  0.324151231464E+01  0.175434191980E+01  0.310152362409E+01
  0.404200324774E+01  0.375000000000E+01  0.810729352129E-04  0.930412228790E+00  0.299062775774E+01  0.500000000000E+01  0.429310310915E+01
  0.409252726285E+01  0.187029682677E+01  0.284428995242E+01  0.500000000000E+01  0.125000000000E+01  0.394624082883E+01  0.500000000000E+01
  0.500000000000E+01  0.250000000000E+01  0.375000000000E+01  0.500000000000E+01
  0.134609285343E+01  0.106373434203E+01  0.142657929748E+01  0.108602628909E+01  0.103227761740E+01  0.120168350169E+01  0.164670727499E+01
  0.149538620489E+01  0.123512831657E+01  0.102385508272E+01  0.102820488957E+01  0.101304189827E+01  0.103253132059E+01  0.101466223997E+01
  0.100661758593E+01  0.100825155744E+01  0.144845557672E+01  0.116395537588E+01  0.101462626770E+01  0.100424794657E+01  0.100678761643E+01
  0.100723555474E+01  0.104654792160E+01  0.101932620600E+01  0.100423355038E+01  0.106448319052E+01  0.100788976376E+01  0.100286713759E+01
  0.100333237606E+01  0.102843388605E+01  0.100959071672E+01  0.100399216025E+01
  0.000000000000E+00  0.444914353909E+00  0.000000000000E+00  0.468165848782E+00  0.462223140691E+00  0.443259313338E+00  0.000000000000E+00
  0.000000000000E+00  0.379443888075E+00  0.471824148674E+00  0.466386197476E+00  0.479408857302E+00  0.490372279337E+00  0.484583187663E+00
  0.488581996906E+00  0.489905629069E+00  0.000000000000E+00  0.451060001177E+00  0.474795898892E+00  0.495855326872E+00  0.490935104669E+00
  0.486828749364E+00  0.448812366653E+00  0.465812044948E+00  0.496553191211E+00  0.444910154365E+00  0.487672323026E+00  0.497548983841E+00
  0.496389431667E+00  0.470021976683E+00  0.489190703266E+00  0.495532368920E+00
  0.000000000000E+00  0.000000000000E+00  0.000000000000E+00  0.182125971860E-01 -0.276755690576E-02  0.330060800493E-01  0.000000000000E+00
  0.000000000000E+00 -0.635955708454E-02  0.000000000000E+00  0.362640635174E-02 -0.562434167400E-02 -0.433124083641E-02  0.405462900927E-04
 -0.103631818279E-02  0.000000000000E+00  0.000000000000E+00 -0.779195528435E-02  0.382210013505E-03  0.000000000000E+00 -0.203673752290E-02
 -0.138622709432E-02  0.151816105921E-02 -0.162866609794E-02 -0.690653670314E-04  0.000000000000E+00 -0.290457486410E-04 -0.201966194959E-03
  0.816664520719E-03  0.000000000000E+00  0.000000000000E+00  0.000000000000E+00
  0.000000000000E+00  0.453410125622E-01  0.000000000000E+00  0.123640990862E+00  0.245733088347E-01  0.166121337555E+00  0.000000000000E+00
  0.000000000000E+00  0.155935663895E+00  0.352574405613E-02  0.259092598548E-01 -0.648164562987E-02  0.752756785739E-01  0.370962343832E-02
 -0.139798636007E-03  0.462321720669E-03  0.000000000000E+00  0.141080831501E+00 -0.807321397997E-02  0.233549321248E-02 -0.293174839334E-03
 -0.438402120443E-02  0.256665353678E-01 -0.190358156725E-02  0.305222932646E-02  0.838518433485E-01 -0.120857770429E-02  0.269068778715E-02
  0.265786163440E-02  0.282174868710E-02 -0.851005376482E-03  0.345426907220E-02
  0.961494895310E+00  0.782474526401E+00  0.101898521249E+01  0.808622888702E+00  0.746096087185E+00  0.879945096289E+00  0.117621948213E+01
  0.106813300349E+01  0.916482584689E+00  0.737359058436E+00  0.743635890615E+00  0.725780376253E+00  0.757468350278E+00  0.729132408483E+00
  0.720762011249E+00  0.722733478649E+00  0.103461112623E+01  0.858087892585E+00  0.728059656293E+00  0.718594196346E+00  0.720998301859E+00
  0.721139001450E+00  0.759920098244E+00  0.732604990097E+00  0.718511970664E+00  0.790942936430E+00  0.722101806216E+00  0.717180384125E+00
  0.717628473615E+00  0.741763286711E+00  0.724057097788E+00  0.718400533153E+00
  0.000000000000E+00  0.440694316338E+00  0.000000000000E+00  0.474602895998E+00  0.460160322481E+00  0.468654964471E+00  0.000000000000E+00
  0.000000000000E+00  0.402546343001E+00  0.469902772586E+00  0.464219671356E+00  0.478765334991E+00  0.489559423547E+00  0.483141785092E+00
  0.487989805716E+00  0.489039534670E+00  0.000000000000E+00  0.465263447496E+00  0.473778580241E+00  0.495420993654E+00  0.490304293594E+00
  0.486281335198E+00  0.445869611938E+00  0.464381206961E+00  0.496146951694E+00  0.443899345442E+00  0.486936945186E+00  0.497262502114E+00
  0.496064220781E+00  0.467753983417E+00  0.488203738699E+00  0.495108520064E+00
  0.100000000000E+01  0.102982887144E+01  0.100000000000E+01  0.104239837981E+01  0.101187365148E+01  0.102516439069E+01  0.100000000000E+01
  0.100000000000E+01  0.103881969294E+01  0.100825077615E+01  0.101253189654E+01  0.100301135470E+01  0.102704457409E+01  0.100603465041E+01
  0.100243312838E+01  0.100354605222E+01  0.100000000000E+01  0.103210404326E+01  0.100459011486E+01  0.100177638234E+01  0.100259240989E+01
  0.100234210089E+01  0.101656896506E+01  0.100620093950E+01  0.100167611264E+01  0.104024198866E+01  0.100302886789E+01  0.100118201120E+01
  0.100134301158E+01  0.100975727802E+01  0.100405037419E+01  0.100176155376E+01
        12        19        11        11
        11         5        12        12
        10        14         5         5
        19        13        11        11
        19        24        13        13
        30        23        24        24
        19        12        22        22
        28        22        21        21
        11        13         6         6
         7         6         9         9
        15        12        14        14
        18        13        23        23
        15        25        21        21
        27        19        22        22
        18         8         9         9
        27        31        24        24
         4        11         6         6
         5        14        12        12
         4         2         5         5
        21        12        15        15
        14        16        15        15
        24        19        27        27
        22        29        27        27
        23        26        18        18
        17         8        18        18
         5        11         4         4
         6         3         4         4
        26        23        30        30
         5         2        10        10
        16        14        10        10
         3         6         7         7
        21        25        28        28
        29        22        28        28
         6        13         9         9
         2         4         1         1
        31        27        32        32
        25        15        20        20
        24        23        13        13
         8         7         9         9
        13        18         9         9
        31        30        24        24
        12        21        22        22
        29        32        27        27
         3         1         4         4
        26        17        18        18
        16        20        15        15
zone t="boundary 2 bc-2", solutiontime= 0.2000000E+02, strandid=1002, i=33, j=48, f=feblock
  0.500195254422E+01  0.375034811298E+01  0.249861145437E+01  0.288036673892E+01  0.124717525199E+01  0.190856697748E+01  0.326577189562E+01
  0.201394855830E+01 -0.338397968191E-02  0.962374244475E+00  0.500000000000E+01  0.403430189262E+01  0.423029563056E+01  0.500000000000E+01
  0.385439188349E+01  0.500000000000E+01  0.398133432927E+01  0.315200081100E+01  0.266958028570E+01  0.154798029932E+01  0.218327860448E+01
  0.893688443031E+00  0.000000000000E+00  0.699009764480E+00  0.964460900710E+00  0.310303671524E+01  0.000000000000E+00  0.000000000000E+00
  0.125000000000E+01  0.500000000000E+01  0.375000000000E+01  0.250000000000E+01  0.000000000000E+00
 -0.249658901876E+01 -0.249658901876E+01 -0.249658901876E+01 -0.249658901876E+01 -0.249658901876E+01 -0.249658901876E+01 -0.249658901876E+01
 -0.249658901876E+01 -0.249658901876E+01 -0.249658901876E+01 -0.249658901876E+01 -0.249658901876E+01 -0.249658901876E+01 -0.249658901876E+01
 -0.249658901876E+01 -0.249658901876E+01 -0.249658901876E+01 -0.249658901876E+01 -0.249658901876E+01 -0.249658901876E+01 -0.249658901876E+01
 -0.249658901876E+01 -0.249658901876E+01 -0.249658901876E+01 -0.249658901876E+01 -0.249658901876E+01 -0.249658901876E+01 -0.249658901876E+01
 -0.249658901876E+01 -0.249658901876E+01 -0.249658901876E+01 -0.249658901876E+01 -0.249658901876E+01
  0.108226442242E-03  0.145876062250E-03  0.100893845221E-03  0.901663358040E+00  0.110859296350E-03  0.714928307677E+00  0.188140645382E+01
  0.175892163510E+01  0.810729352129E-04  0.957504280280E+00  0.125000000000E+01  0.100596695735E+01  0.191313517562E+01  0.250000000000E+01
  0.292898095402E+01  0.375000000000E+01  0.406883368972E+01  0.363389288780E+01  0.284756859278E+01  0.292582306775E+01  0.395754054025E+01
  0.205027255783E+01  0.125000000000E+01  0.306703271994E+01  0.397155766146E+01  0.433068621574E+01  0.250000000000E+01  0.375000000000E+01
  0.500000000000E+01  0.500000000000E+01  0.500000000000E+01  0.500000000000E+01  0.500000000000E+01
  0.831029863077E+00  0.935347269726E+00  0.934372988459E+00  0.968057547936E+00  0.961570720335E+00  0.964860906955E+00  0.984169042445E+00
  0.991410869599E+00  0.144845557672E+01  0.102899126988E+01  0.956054494518E+00  0.960789408759E+00  0.981479543710E+00  0.100649100566E+01
  0.997923992458E+00  0.100983271991E+01  0.100199536533E+01  0.998060332169E+00  0.991078447748E+00  0.100130942195E+01  0.100092822150E+01
  0.101222699390E+01  0.106448319052E+01  0.101078515543E+01  0.100684590740E+01  0.100117590038E+01  0.102843388605E+01  0.100959071672E+01
  0.100510180042E+01  0.100172983705E+01  0.100263715017E+01  0.100321257640E+01  0.100399216025E+01
  0.000000000000E+00  0.000000000000E+00  0.000000000000E+00  0.378523942852E+00  0.000000000000E+00  0.340254158456E+00  0.582101562332E+00
  0.575307117804E+00  0.000000000000E+00  0.489375366517E+00  0.495102965761E+00  0.430472690910E+00  0.569120433052E+00  0.536357294817E+00
  0.569118448222E+00  0.516319515089E+00  0.508672694513E+00  0.527588651237E+00  0.566869785738E+00  0.532047409889E+00  0.506203121325E+00
  0.520951369355E+00  0.444910154365E+00  0.491393222182E+00  0.492742641277E+00  0.501557243620E+00  0.470021976683E+00  0.489190703266E+00
  0.490409732626E+00  0.491359150030E+00  0.485992067578E+00  0.490194921202E+00  0.495532368920E+00
  0.000000000000E+00  0.000000000000E+00  0.000000000000E+00  0.000000000000E+00  0.000000000000E+00  0.000000000000E+00  0.000000000000E+00
  0.000000000000E+00  0.000000000000E+00  0.000000000000E+00  0.000000000000E+00  0.000000000000E+00  0.000000000000E+00  0.000000000000E+00
  0.000000000000E+00  0.000000000000E+00  0.000000000000E+00  0.000000000000E+00  0.000000000000E+00  0.000000000000E+00  0.000000000000E+00
  0.000000000000E+00  0.000000000000E+00  0.000000000000E+00  0.000000000000E+00  0.000000000000E+00  0.000000000000E+00  0.000000000000E+00
  0.000000000000E+00  0.000000000000E+00  0.000000000000E+00  0.000000000000E+00  0.000000000000E+00
  0.000000000000E+00  0.000000000000E+00  0.000000000000E+00 -0.230410067734E-02  0.000000000000E+00  0.182453882839E-01  0.121534720907E-01
  0.454325392995E-01  0.000000000000E+00  0.867510191829E-01 -0.992789921235E-01 -0.210332039887E-01 -0.304934950345E-01 -0.413084818782E-01
 -0.133133265389E-02  0.271141642691E-02  0.620608166403E-03  0.535389695385E-03  0.151597514338E-01  0.284453188263E-01  0.565850799782E-02
  0.554035712860E-01  0.838518433485E-01  0.110700368401E-01  0.680892159324E-02 -0.766090247125E-03  0.282174868710E-02 -0.851005376482E-03
  0.399058811152E-02  0.610272691233E-02 -0.135245252623E-03  0.119995127888E-02  0.345426907220E-02
  0.593592759341E+00  0.668105192661E+00  0.667409277470E+00  0.684275216663E+00  0.686836228811E+00  0.679257317278E+00  0.695843317739E+00
  0.702285164432E+00  0.103461112623E+01  0.723396892102E+00  0.672748860680E+00  0.675841424602E+00  0.694100321047E+00  0.721026131531E+00
  0.712697819440E+00  0.724825333958E+00  0.716588855985E+00  0.713297801981E+00  0.706417302544E+00  0.717730287485E+00  0.715367006968E+00
  0.730900644881E+00  0.790942936430E+00  0.724353266723E+00  0.721004628724E+00  0.715448559355E+00  0.741763286711E+00  0.724057097788E+00
  0.719313229021E+00  0.715842754483E+00  0.716590645753E+00  0.717374087456E+00  0.718400533153E+00
  0.000000000000E+00  0.000000000000E+00  0.000000000000E+00  0.380515686866E+00  0.000000000000E+00  0.343224362546E+00  0.585205641228E+00
  0.579503193921E+00  0.000000000000E+00  0.500972956251E+00  0.508752620658E+00  0.434301250498E+00  0.572785692986E+00  0.537160217426E+00
  0.569161940283E+00  0.515072718650E+00  0.508361394273E+00  0.527441873526E+00  0.567672542308E+00  0.531875071071E+00  0.506086726525E+00
  0.521056964997E+00  0.443899345442E+00  0.490715228051E+00  0.492164253819E+00  0.501444627373E+00  0.467753983417E+00  0.488203738699E+00
  0.489954151965E+00  0.491286705842E+00  0.485849218490E+00  0.489925147404E+00  0.495108520064E+00
  0.100000000000E+01  0.100000000000E+01  0.100000000000E+01  0.989595407184E+00  0.100000000000E+01  0.985593091537E+00  0.989850932939E+00
  0.991717218717E+00  0.100000000000E+01  0.984221808858E+00  0.985140920682E+00  0.984792282073E+00  0.990077129669E+00  0.100292658202E+01
  0.999852648855E+00  0.100487481494E+01  0.100122658556E+01  0.100055767230E+01  0.997886923895E+00  0.100350838657E+01  0.100058504521E+01
  0.101090062704E+01  0.104024198866E+01  0.100327410624E+01  0.100254316255E+01  0.100045155174E+01  0.100975727802E+01  0.100405037419E+01
  0.100192688960E+01  0.100044924211E+01  0.100058820270E+01  0.100110758783E+01  0.100176155376E+01
        15         7        19        19
         8        20        19        19
        18        19        21        21
         7         4         8         8
         3         6         4         4
        19         7         8         8
        19        18        15        15
        14        13        15        15
         8        22        20        20
        27        24        22        22
        19        20        21        21
        32        26        21        21
        17        18        26        26
        17        16        15        15
        25        29        21        21
        12         7        13        13
        10         8         6         6
        25        20        24        24
         4         6         8         8
        12         2         4         4
        10        23        22        22
        26        31        17        17
        30        16        17        17
         4         7        12        12
        13        11        12        12
        21        20        25        25
        24        28        25        25
        22         8        10        10
         6         5        10        10
        31        26        32        32
         4         2         3         3
         5         6         3         3
        11        13        14        14
        22        23        27        27
        28        24        27        27
        15        13         7         7
         2        12         1         1
        29        25        33        33
        23        10         9         9
        21        26        18        18
        16        14        15        15
        18        17        15        15
        29        32        21        21
        22        24        20        20
        28        33        25        25
        11         1        12        12
        31        30        17        17
         5         9        10        10
zone t="boundary 3 bc-3", solutiontime= 0.2000000E+02, strandid=1003, i=33, j=48, f=feblock
  0.375059098391E+01  0.249769607367E+01  0.500322137759E+01  0.403612219697E+01  0.287976771604E+01  0.124541906059E+01  0.190552233801E+01
  0.500000000000E+01  0.326671104357E+01  0.423253756077E+01  0.201271135077E+01 -0.547474059297E-02  0.958895606427E+00  0.500000000000E+01
  0.266968146972E+01  0.385584487520E+01  0.890374194722E+00  0.154654012793E+01  0.000000000000E+00  0.500000000000E+01  0.315261136749E+01
  0.218304199327E+01  0.398195307996E+01  0.000000000000E+00  0.697379944216E+00  0.963757274671E+00  0.125000000000E+01  0.000000000000E+00
  0.500000000000E+01  0.310330738530E+01  0.250000000000E+01  0.375000000000E+01  0.000000000000E+00
  0.250494200247E+01  0.250494200247E+01  0.250494200247E+01  0.250494200247E+01  0.250494200247E+01  0.250494200247E+01  0.250494200247E+01
  0.250494200247E+01  0.250494200247E+01  0.250494200247E+01  0.250494200247E+01  0.250494200247E+01  0.250494200247E+01  0.250494200247E+01
  0.250494200247E+01  0.250494200247E+01  0.250494200247E+01  0.250494200247E+01  0.250494200247E+01  0.250494200247E+01  0.250494200247E+01
  0.250494200247E+01  0.250494200247E+01  0.250494200247E+01  0.250494200247E+01  0.250494200247E+01  0.250494200247E+01  0.250494200247E+01
  0.250494200247E+01  0.250494200247E+01  0.250494200247E+01  0.250494200247E+01  0.250494200247E+01
  0.135649923429E-03  0.110129435376E-03  0.966881767661E-04  0.101756755330E+01  0.908094609318E+00  0.103942164347E-03  0.722629117559E+00
  0.125000000000E+01  0.188965663760E+01  0.191862698621E+01  0.176708241781E+01  0.803807976037E-04  0.969652600966E+00  0.250000000000E+01
  0.285339435106E+01  0.293325059955E+01  0.205656226272E+01  0.293157018907E+01  0.125000000000E+01  0.375000000000E+01  0.363766839846E+01
  0.396069445894E+01  0.407056385917E+01  0.250000000000E+01  0.307031996477E+01  0.397359820987E+01  0.500000000000E+01  0.375000000000E+01
  0.500000000000E+01  0.433260781819E+01  0.500000000000E+01  0.500000000000E+01  0.500000000000E+01
  0.942177313056E+00  0.946079144526E+00  0.843590361717E+00  0.964661113500E+00  0.979070642090E+00  0.957185907387E+00  0.983414964523E+00
  0.963754822727E+00  0.982792253637E+00  0.984389644363E+00  0.990464569322E+00  0.134609285343E+01  0.101937377788E+01  0.100837204805E+01
  0.993507969759E+00  0.998023791768E+00  0.100801462948E+01  0.100072399930E+01  0.106373434203E+01  0.100674721265E+01  0.100059064030E+01
  0.100234026505E+01  0.100176935902E+01  0.102385508272E+01  0.100867632499E+01  0.100524390993E+01  0.100520151733E+01  0.100825155744E+01
  0.100185238544E+01  0.100160393063E+01  0.100408146082E+01  0.100312292203E+01  0.100424794657E+01
  0.000000000000E+00  0.000000000000E+00  0.000000000000E+00  0.440165899017E+00  0.400333871382E+00  0.000000000000E+00  0.375199458655E+00
  0.494520497447E+00  0.572914710439E+00  0.569331381944E+00  0.559964860250E+00  0.000000000000E+00  0.484447058033E+00  0.533617950689E+00
  0.556269114178E+00  0.564510923565E+00  0.522407218198E+00  0.522321978467E+00  0.444914353909E+00  0.518326822912E+00  0.524678429189E+00
  0.503878688605E+00  0.509872710320E+00  0.471824148674E+00  0.496288797394E+00  0.494982219774E+00  0.489196900576E+00  0.489905629069E+00
  0.493008118271E+00  0.499176820567E+00  0.486780698259E+00  0.484551040667E+00  0.495855326872E+00
  0.000000000000E+00  0.000000000000E+00  0.000000000000E+00  0.000000000000E+00  0.000000000000E+00  0.000000000000E+00  0.000000000000E+00
  0.000000000000E+00  0.000000000000E+00  0.000000000000E+00  0.000000000000E+00  0.000000000000E+00  0.000000000000E+00  0.000000000000E+00
  0.000000000000E+00  0.000000000000E+00  0.000000000000E+00  0.000000000000E+00  0.000000000000E+00  0.000000000000E+00  0.000000000000E+00
  0.000000000000E+00  0.000000000000E+00  0.000000000000E+00  0.000000000000E+00  0.000000000000E+00  0.000000000000E+00  0.000000000000E+00
  0.000000000000E+00  0.000000000000E+00  0.000000000000E+00  0.000000000000E+00  0.000000000000E+00
  0.000000000000E+00  0.000000000000E+00  0.000000000000E+00 -0.226907215457E-01  0.112091105724E-01  0.000000000000E+00  0.182031681597E-01
 -0.100735138153E+00  0.385024131116E-02 -0.389629723763E-01  0.339683240368E-01  0.000000000000E+00  0.656277109844E-01 -0.424656234290E-01
  0.839698413258E-02 -0.653206434153E-02  0.487119435216E-01  0.134419992734E-01  0.453410125622E-01  0.778476703926E-03 -0.732911622334E-03
  0.238351124215E-02  0.895603812025E-03  0.352574405613E-02  0.102982067296E-01  0.426596962289E-02  0.333657734687E-02  0.462321720669E-03
  0.581751144712E-02  0.304464072058E-03  0.163286535026E-02  0.682617717159E-03  0.233549321248E-02
  0.672983795040E+00  0.675770817518E+00  0.602564544084E+00  0.676157728513E+00  0.691376967366E+00  0.683704219562E+00  0.689988968950E+00
  0.677416769747E+00  0.695259853093E+00  0.696325714518E+00  0.703502265630E+00  0.961494895310E+00  0.719920317892E+00  0.722895770206E+00
  0.709485913262E+00  0.713702994436E+00  0.725982431321E+00  0.716598326744E+00  0.782474526401E+00  0.722280307832E+00  0.716118681751E+00
  0.716530462079E+00  0.716531688418E+00  0.737359058436E+00  0.722620765179E+00  0.719397666253E+00  0.719540317669E+00  0.722733478649E+00
  0.715953349010E+00  0.715824373768E+00  0.718123391591E+00  0.717024566380E+00  0.718594196346E+00
  0.000000000000E+00  0.000000000000E+00  0.000000000000E+00  0.444930363290E+00  0.402789414461E+00  0.000000000000E+00  0.379014686067E+00
  0.508749665862E+00  0.575695784018E+00  0.573446688985E+00  0.562575837023E+00  0.000000000000E+00  0.491649684840E+00  0.534330349176E+00
  0.556396248404E+00  0.564220800226E+00  0.522510923349E+00  0.521839937259E+00  0.440694316338E+00  0.517186864826E+00  0.524161757367E+00
  0.503682765142E+00  0.509523936593E+00  0.469902772586E+00  0.495660862849E+00  0.494530318882E+00  0.488684744037E+00  0.489039534670E+00
  0.492923805190E+00  0.499039868044E+00  0.486470727372E+00  0.484379777317E+00  0.495420993654E+00
  0.100000000000E+01  0.100000000000E+01  0.100000000000E+01  0.981298827817E+00  0.988618913387E+00  0.100000000000E+01  0.982275632747E+00
  0.984050564814E+00  0.990406457445E+00  0.990315172358E+00  0.994385061705E+00  0.100000000000E+01  0.988732952444E+00  0.100365146004E+01
  0.999770820970E+00  0.100116269818E+01  0.100829429864E+01  0.100251183957E+01  0.102982887144E+01  0.100441542650E+01  0.100197434802E+01
  0.100080050846E+01  0.100137257618E+01  0.100825077615E+01  0.100296700357E+01  0.100190284448E+01  0.100214377652E+01  0.100354605222E+01
  0.100048141141E+01  0.100054931159E+01  0.100128603850E+01  0.100070925595E+01  0.100177638234E+01
        15         9        16        16
        15        18        11        11
        22        15        21        21
        11         5         9         9
         5         7         2         2
        11         9        15        15
        16        21        15        15
        16        10        14        14
        18        17        11        11
        17        25        24        24
        22        18        15        15
        22        30        31        31
        30        21        23        23
        16        20        23        23
        22        27        26        26
        10         9         4         4
         7        11        13        13
        25        18        26        26
        11         7         5         5
         5         1         4         4
        17        19        13        13
        23        32        30        30
        23        20        29        29
         4         9         5         5
         4         8        10        10
        26        18        22        22
        26        28        25        25
        13        11        17        17
        13         6         7         7
        31        30        32        32
         2         1         5         5
         2         7         6         6
        14        10         8         8
        24        19        17        17
        24        25        28        28
         9        10        16        16
         3         4         1         1
        33        26        27        27
        12        13        19        19
        21        30        22        22
        16        14        20        20
        16        23        21        21
        22        31        27        27
        18        25        17        17
        26        33        28        28
         4         3         8         8
        23        29        32        32
        13        12         6         6
zone t="boundary 4 bc-4", solutiontime= 0.2000000E+02, strandid=1004, i=32, j=46, f=feblock
  0.125000000000E+01  0.219251206392E+01  0.103724302461E+01  0.500000000000E+01  0.250000000000E+01  0.375000000000E+01  0.404200324774E+01
  0.500000000000E+01  0.000000000000E+00  0.310152362409E+01  0.202479342020E+01  0.324151231464E+01  0.922061490191E+00  0.000000000000E+00
  0.299062775774E+01  0.394624082883E+01  0.500000000000E+01  0.409252726285E+01  0.500000000000E+01  0.429310310915E+01  0.175434191980E+01
  0.284428995242E+01  0.000000000000E+00  0.000000000000E+00  0.715990576545E+00  0.930412228790E+00  0.125000000000E+01  0.187029682677E+01
  0.500000000000E+01  0.375000000000E+01  0.250000000000E+01  0.000000000000E+00
  0.250494200247E+01  0.157686156160E+01  0.146289271009E+01  0.250494200247E+01  0.250494200247E+01  0.250494200247E+01  0.155830813274E+01
  0.125000000000E+01  0.250494200247E+01  0.177790177481E+01  0.477386199275E+00  0.742988685424E+00  0.308372018325E+00  0.125000000000E+01
 -0.487811078581E+00 -0.144524380962E+01 -0.125000000000E+01 -0.345533899378E+00  0.000000000000E+00  0.627766083140E+00 -0.739814786992E+00
 -0.158811787973E+01  0.000000000000E+00 -0.125000000000E+01 -0.600232012419E+00 -0.154800130438E+01 -0.249658901876E+01 -0.178862290564E+01
 -0.249658901876E+01 -0.249658901876E+01 -0.249658901876E+01 -0.249658901876E+01
  0.500000000000E+01  0.500000000000E+01  0.500000000000E+01  0.500000000000E+01  0.500000000000E+01  0.500000000000E+01  0.500000000000E+01
  0.500000000000E+01  0.500000000000E+01  0.500000000000E+01  0.500000000000E+01  0.500000000000E+01  0.500000000000E+01  0.500000000000E+01
  0.500000000000E+01  0.500000000000E+01  0.500000000000E+01  0.500000000000E+01  0.500000000000E+01  0.500000000000E+01  0.500000000000E+01
  0.500000000000E+01  0.500000000000E+01  0.500000000000E+01  0.500000000000E+01  0.500000000000E+01  0.500000000000E+01  0.500000000000E+01
  0.500000000000E+01  0.500000000000E+01  0.500000000000E+01  0.500000000000E+01
  0.100520151733E+01  0.100429310259E+01  0.100428218647E+01  0.100185238544E+01  0.100408146082E+01  0.100312292203E+01  0.100250282539E+01
  0.100192413620E+01  0.100424794657E+01  0.100365578236E+01  0.100444388083E+01  0.100343920643E+01  0.100364254014E+01  0.100423355038E+01
  0.100359777218E+01  0.100160920366E+01  0.100222829078E+01  0.100221752187E+01  0.100205696548E+01  0.100246829416E+01  0.100442344748E+01
  0.100337075735E+01  0.100286713759E+01  0.100333237606E+01  0.100322128001E+01  0.100405785549E+01  0.100510180042E+01  0.100431909021E+01
  0.100172983705E+01  0.100263715017E+01  0.100321257640E+01  0.100399216025E+01
  0.489196900576E+00  0.489268149368E+00  0.491058342585E+00  0.493008118271E+00  0.486780698259E+00  0.484551040667E+00  0.485191336855E+00
  0.494181511253E+00  0.495855326872E+00  0.486704452328E+00  0.488145492809E+00  0.487141574173E+00  0.494455617230E+00  0.496553191211E+00
  0.487744937245E+00  0.483038268960E+00  0.492498984244E+00  0.487104278479E+00  0.494805364514E+00  0.487837908721E+00  0.490068880469E+00
  0.488106696835E+00  0.497548983841E+00  0.496389431667E+00  0.495265837400E+00  0.493203254431E+00  0.490409732626E+00  0.490338530769E+00
  0.491359150030E+00  0.485992067578E+00  0.490194921202E+00  0.495532368920E+00
  0.000000000000E+00 -0.710294992512E-04 -0.128680871700E-02  0.000000000000E+00  0.000000000000E+00  0.000000000000E+00  0.516206685787E-03
  0.902573982501E-03  0.000000000000E+00  0.307618698862E-03 -0.894535226657E-03 -0.763797871786E-03 -0.172995267006E-02 -0.690653670314E-04
 -0.105770930658E-02 -0.101283228572E-02 -0.130276223207E-02 -0.209879980286E-02 -0.123761342497E-02 -0.983742759114E-03 -0.566126675536E-03
 -0.729256600854E-03 -0.201966194959E-03  0.816664520719E-03  0.743401131752E-04  0.164709055425E-02  0.000000000000E+00  0.817650289459E-03
  0.000000000000E+00  0.000000000000E+00  0.000000000000E+00  0.000000000000E+00