# vtk DataFile Version 2.0
FUN3D:global_image_vtk
ASCII
DATASET UNSTRUCTURED_GRID
POINTS 213 double
   -0.5474740594603400E-02    0.2504942002468015E+01    0.8038066513252272E-04
    0.1245419060588731E+01    0.2504942002468015E+01    0.1039420355260783E-03
    0.2497696073669951E+01    0.2504942002468015E+01    0.1101293108839110E-03
    0.3750590983903951E+01    0.2504942002468015E+01    0.1356498038709543E-03
    0.5003221377586132E+01    0.2504942002468015E+01    0.9668806236327213E-04
    0.5004676742906220E+01    0.1281291392998363E+01    0.1638058477025189E-03
    0.5004772721058899E+01    0.2775095788685309E-01    0.1903487481390939E-03
    0.5003581212092667E+01   -0.1225853379649928E+01    0.1607772012989146E-03
    0.5001952544222647E+01   -0.2496589018760901E+01    0.1082264471413162E-03
    0.3750348112983221E+01   -0.2496589018760901E+01    0.1458760651342287E-03
    0.2498611454364745E+01   -0.2496589018760901E+01    0.1008938464083815E-03
    0.1247175251993104E+01   -0.2496589018760901E+01    0.1108592957380666E-03
   -0.3383979682904054E-02   -0.2496589018760901E+01    0.8107293234943646E-04
   -0.4257801348440015E-02   -0.1225734687856262E+01    0.3415453547316489E-04
   -0.5251639246460537E-02    0.2619500007965796E-01    0.1038724994472571E-03
   -0.5676116282442046E-02    0.1278221728471008E+01    0.8224550526933761E-04
    0.9003209061970099E+00    0.1608979292482069E+01    0.8704095673643493E-04
    0.3983172219358475E+01   -0.1561211781392465E+01    0.1757125336071070E-03
    0.4035602063492015E+01    0.1486760245757029E+01    0.1713318841063830E-03
    0.1036613695255868E+01   -0.1455626302577311E+01    0.1047193358004648E-03
    0.1094353436962879E+01   -0.2964620547863018E+00    0.1260594408104395E-03
    0.7298399732447645E+00    0.6874686355485913E+00    0.1044597967345512E-03
    0.1617018608574693E+01    0.8553209825042055E+00    0.1529816073135104E-03
    0.2143199643574004E+01   -0.1627128385141893E+01    0.1606178561636721E-03
    0.4088840468516652E+01   -0.4351046315069663E+00    0.2719950835641195E-03
    0.2977916498708485E+01   -0.8334990110939406E+00    0.2245609625880905E-03
    0.3044093234685481E+01   -0.1814361102461422E+01    0.1617007901549839E-03
    0.3427866614749028E+01    0.3813906737475889E+00    0.2936972898164074E-03
    0.4313225393964806E+01    0.5489135241650748E+00    0.2313021604579462E-03
    0.1823032697010121E+01    0.1771265398461595E+01    0.1836207261372927E-03
    0.2806311133387878E+01    0.1358629588153144E+01    0.1943500587744297E-03
    0.1891860842801184E+01   -0.8481308964520636E+00    0.1670653536951348E-03
    0.2268769161311812E+01    0.7723708732352033E-01    0.2072318374105487E-03
    0.5000000000000000E+01    0.2504942002468015E+01    0.1250000000000000E+01
    0.5000000000000000E+01    0.2504942002468015E+01    0.2500000000000000E+01
    0.5000000000000000E+01    0.2504942002468015E+01    0.3750000000000000E+01
    0.5000000000000000E+01    0.2504942002468015E+01    0.5000000000000000E+01
    0.3750000000000000E+01    0.2504942002468015E+01    0.5000000000000000E+01
    0.2500000000000000E+01    0.2504942002468015E+01    0.5000000000000000E+01
    0.1250000000000000E+01    0.2504942002468015E+01    0.5000000000000000E+01
    0.0000000000000000E+00    0.2504942002468015E+01    0.5000000000000000E+01
    0.0000000000000000E+00    0.2504942002468015E+01    0.3750000000000000E+01
    0.0000000000000000E+00    0.2504942002468015E+01    0.2500000000000000E+01
    0.0000000000000000E+00    0.2504942002468015E+01    0.1250000000000000E+01
    0.9588956064218440E+00    0.2504942002468015E+01    0.9696526008694588E+00
    0.3981953079952927E+01    0.2504942002468015E+01    0.4070563859161240E+01
    0.4036122196966513E+01    0.2504942002468015E+01    0.1017567553205737E+01
    0.9637572746747131E+00    0.2504942002468015E+01    0.3973598209858040E+01
    0.1546540127929946E+01    0.2504942002468015E+01    0.2931570189025508E+01
    0.6973799442222217E+00    0.2504942002468015E+01    0.3070319964744883E+01
    0.8903741947279170E+00    0.2504942002468015E+01    0.2056562262665313E+01
    0.2183041993268190E+01    0.2504942002468015E+01    0.3960694458912844E+01
    0.3855844875188856E+01    0.2504942002468015E+01    0.2933250599517384E+01
    0.3152611367489020E+01    0.2504942002468015E+01    0.3637668398431756E+01
    0.3103307385298766E+01    0.2504942002468015E+01    0.4332607818174344E+01
    0.3266711043563175E+01    0.2504942002468015E+01    0.1889656637524571E+01
    0.4232537560766444E+01    0.2504942002468015E+01    0.1918626986171086E+01
    0.1905522338007585E+01    0.2504942002468015E+01    0.7226291174446439E+00
    0.2879767716040244E+01    0.2504942002468015E+01    0.9080946092062935E+00
    0.2012711350767002E+01    0.2504942002468015E+01    0.1767082417726311E+01
    0.2669681469718241E+01    0.2504942002468015E+01    0.2853394351007644E+01
    0.5000000000000000E+01    0.1250000000000000E+01    0.5000000000000000E+01
    0.5000000000000000E+01    0.0000000000000000E+00    0.5000000000000000E+01
    0.5000000000000000E+01   -0.1250000000000000E+01    0.5000000000000000E+01
    0.5000000000000000E+01   -0.2496589018760901E+01    0.5000000000000000E+01
    0.5000000000000000E+01   -0.2496589018760901E+01    0.3750000000000000E+01
    0.5000000000000000E+01   -0.2496589018760901E+01    0.2500000000000000E+01
    0.5000000000000000E+01   -0.2496589018760901E+01    0.1250000000000000E+01
    0.5000000000000000E+01    0.1578994732800803E+01    0.9058375365086910E+00
    0.5000000000000000E+01   -0.1583989954232354E+01    0.3982050490726493E+01
    0.5000000000000000E+01    0.1453322699199022E+01    0.4033849428301197E+01
    0.5000000000000000E+01   -0.1479596339503735E+01    0.1040505887381675E+01
    0.5000000000000000E+01   -0.3227322616384110E+00    0.1099454400140349E+01
    0.5000000000000000E+01    0.6593508822075582E+00    0.7354504170366591E+00
    0.5000000000000000E+01    0.8256214013940779E+00    0.1622302608453282E+01
    0.5000000000000000E+01   -0.1650070333782557E+01    0.2145871574390382E+01
    0.5000000000000000E+01   -0.4612828702537229E+00    0.4086422318222992E+01
    0.5000000000000000E+01   -0.8579242121530853E+00    0.2979540174134984E+01
    0.5000000000000000E+01   -0.1836846154397680E+01    0.3045064261640043E+01
    0.5000000000000000E+01    0.3508002863614053E+00    0.3428197553792836E+01
    0.5000000000000000E+01    0.5185680230613409E+00    0.4309693860063405E+01
    0.5000000000000000E+01    0.1738996113203182E+01    0.1827272193562204E+01
    0.5000000000000000E+01    0.1325493893339706E+01    0.2808563282768077E+01
    0.5000000000000000E+01   -0.8731419609589618E+00    0.1895995683864404E+01
    0.5000000000000000E+01    0.4906150219227333E-01    0.2273179336307740E+01
    0.0000000000000000E+00    0.1250000000000000E+01    0.5000000000000000E+01
    0.0000000000000000E+00    0.0000000000000000E+00    0.5000000000000000E+01
    0.0000000000000000E+00   -0.1250000000000000E+01    0.5000000000000000E+01
    0.0000000000000000E+00   -0.2496589018760901E+01    0.5000000000000000E+01
    0.1250000000000000E+01   -0.2496589018760901E+01    0.5000000000000000E+01
    0.2500000000000000E+01   -0.2496589018760901E+01    0.5000000000000000E+01
    0.3750000000000000E+01   -0.2496589018760901E+01    0.5000000000000000E+01
    0.4042003247744892E+01    0.1558308132739014E+01    0.5000000000000000E+01
    0.9304122287900499E+00   -0.1548001304379777E+01    0.5000000000000000E+01
    0.1037243024609388E+01    0.1462892710085612E+01    0.5000000000000000E+01
    0.3946240828834967E+01   -0.1445243809615570E+01    0.5000000000000000E+01
    0.4092527262848217E+01   -0.3455338993778935E+00    0.5000000000000000E+01
    0.4293103109154542E+01    0.6277660831404320E+00    0.5000000000000000E+01
    0.3241512314643519E+01    0.7429886854239611E+00    0.5000000000000000E+01
    0.2844289952419609E+01   -0.1588117879734118E+01    0.5000000000000000E+01
    0.7159905765450471E+00   -0.6002320124191652E+00    0.5000000000000000E+01
    0.1754341919796891E+01   -0.7398147869923652E+00    0.5000000000000000E+01
    0.1870296826774691E+01   -0.1788622905643739E+01    0.5000000000000000E+01
    0.9220614901912976E+00    0.3083720183248586E+00    0.5000000000000000E+01
    0.3101523624086016E+01    0.1777901774806180E+01    0.5000000000000000E+01
    0.2192512063922564E+01    0.1576861561598471E+01    0.5000000000000000E+01
    0.2024793420196460E+01    0.4773861992750707E+00    0.5000000000000000E+01
    0.2990627757741975E+01   -0.4878110785814084E+00    0.5000000000000000E+01
    0.0000000000000000E+00   -0.2496589018760901E+01    0.1250000000000000E+01
    0.0000000000000000E+00   -0.2496589018760901E+01    0.2500000000000000E+01
    0.0000000000000000E+00   -0.2496589018760901E+01    0.3750000000000000E+01
    0.0000000000000000E+00    0.1558308132739014E+01    0.4042003247744892E+01
    0.0000000000000000E+00   -0.1548001304379777E+01    0.9304122287900499E+00
    0.0000000000000000E+00    0.1462892710085612E+01    0.1037243024609388E+01
    0.0000000000000000E+00   -0.1445243809615570E+01    0.3946240828834967E+01
    0.0000000000000000E+00   -0.3455338993778935E+00    0.4092527262848217E+01
    0.0000000000000000E+00    0.6277660831404320E+00    0.4293103109154542E+01
    0.0000000000000000E+00    0.7429886854239611E+00    0.3241512314643519E+01
    0.0000000000000000E+00   -0.1588117879734118E+01    0.2844289952419609E+01
    0.0000000000000000E+00   -0.6002320124191652E+00    0.7159905765450471E+00
    0.0000000000000000E+00   -0.7398147869923652E+00    0.1754341919796891E+01
    0.0000000000000000E+00   -0.1788622905643739E+01    0.1870296826774691E+01
    0.0000000000000000E+00    0.3083720183248586E+00    0.9220614901912976E+00
    0.0000000000000000E+00    0.1777901774806180E+01    0.3101523624086016E+01
    0.0000000000000000E+00    0.1576861561598471E+01    0.2192512063922564E+01
[...]
POINT_DATA 213
SCALARS rho double 1
LOOKUP_TABLE default
   0.1346097002717723E+01
   0.9571994890684629E+00
   0.9460925263136213E+00
   0.9421713076572951E+00
   0.8435935442565076E+00
   0.7741865190959496E+00
   0.7627490144793827E+00
   0.7661376010323515E+00
   0.8310374389321493E+00
   0.9353532040434271E+00
   0.9343976631425173E+00
   0.9615835737984811E+00
   0.1448454634268578E+01
   0.1495394541103251E+01
   0.1646716569429561E+01
   0.1426577887982135E+01
   0.1009796832751035E+01
   0.9511377811214615E+00
   0.9438170794353883E+00
   0.9574429171164212E+00
   0.9414772717513062E+00
   0.1037107147400844E+01
   0.9258078148663005E+00
   0.9322440338383826E+00
   0.9538047648511198E+00
   0.9520361765909500E+00
   0.9350902083329445E+00
   0.9565433488189478E+00
   0.9378588926634407E+00
   0.9303242953118658E+00
   0.9446416460337469E+00
   0.8862304486854932E+00
   0.9423969621880890E+00
   0.9637182005869257E+00
   0.1008362563013422E+01
   0.1006713482251465E+01
   0.1001958833746274E+01
   0.1003217686472278E+01
   0.1004119832217098E+01
   0.1005207378946202E+01
   0.1004249317624227E+01
   0.1008267099232484E+01
   0.1023865869467717E+01
   0.1063750819231000E+01
   0.1019382679036499E+01
   0.1001778551907676E+01
   0.9645925871976911E+00
   0.1005262393879128E+01
   0.1000745043333918E+01
   0.1008694170720522E+01
   0.1008031885964826E+01
   0.1002353976569024E+01
   0.9980224130652143E+00
   0.1000594057511158E+01
   0.1001620903412466E+01
   0.9828094909315481E+00
   0.9843997841878989E+00
   0.9834242146984594E+00
   0.9790374702413389E+00
   0.9904789002868510E+00
   0.9935221890700699E+00
   0.1002008744102203E+01
   0.1002131975008916E+01
   0.1002272709088438E+01
   0.1001792815383135E+01
   0.1009814937321624E+01
   0.1006499289848360E+01
   0.9560826917923296E+00
   0.9252938271602199E+00
   0.1007053692410225E+01
   0.1004491502378613E+01
   0.9144854566955886E+00
   0.9091439058738325E+00
   0.8752432937888379E+00
   0.9768022164955334E+00
   0.1000530115477410E+01
   0.1005826620249681E+01
   0.1012895783776465E+01
   0.1011677277366730E+01
   0.1010416527860722E+01
   0.1005456511632677E+01
   0.9909247191329644E+00
   0.1005152840633266E+01
   0.9860799640991927E+00
   0.1005593071683524E+01
   0.1004239464974961E+01
   0.1002885826999527E+01
   0.1003350346881400E+01
   0.1003998452169307E+01
   0.1005116094466082E+01
   0.1003223534367198E+01
   0.1002668628241170E+01
   0.1002589607050691E+01
   0.1004069497993235E+01
   0.1004304400913365E+01
   0.1001642389647138E+01
   0.1002278746155674E+01
   0.1002546659685409E+01
   0.1003471913302486E+01
   0.1003380290064578E+01
   0.1003233302883350E+01
   0.1004430203184783E+01
   0.1004324627967027E+01
   0.1003652911830266E+01
   0.1003718541389647E+01
   0.1004318864780426E+01
   0.1004462408023968E+01
   0.1003629299681130E+01
   0.1064489711783084E+01
   0.1028444241781873E+01
   0.1009606837112052E+01
   0.1006626073641073E+01
   0.1163974930852849E+01
   0.1086025348857708E+01
   0.1007907651839601E+01
   0.1007251940054267E+01
   0.1006796091036303E+01
   0.1013052215120295E+01
   0.1019341253359331E+01
   0.1235134881697143E+01
   0.1032535507878577E+01
   0.1046565553980546E+01
   0.1201695800887632E+01
   0.1014670081758555E+01
   0.1032293477847716E+01
   0.1028219928563276E+01
   0.1014640071759373E+01
   0.1028999239083324E+01
   0.1002002403757167E+01
   0.9607798457483896E+00
   0.1006858995118712E+01
   0.1001326399090899E+01
   0.1010799962617512E+01
   0.1012236578224572E+01
   0.1000939793769604E+01
   0.9979315695013677E+00
   0.9980679351283677E+00
   0.1001191382219027E+01
   0.9841977152435075E+00
   0.9815061845681650E+00
   0.9648620671843947E+00
   0.9680679225026870E+00
   0.9914140155554135E+00
   0.9910913032084711E+00
   0.9925597577565382E+00
   0.1001728079146573E+01
   0.9993249300064525E+00
   0.9941443890092141E+00
   0.1006981396750955E+01
   0.1022611158068717E+01
   0.1001120777277163E+01
   0.1008783412301098E+01
   0.1004774305498210E+01
   0.1009028544321064E+01
   0.9967193914928832E+00
   0.1005562614218097E+01
   0.1003325018861125E+01
   0.9949862562907168E+00
   0.9833516927368358E+00
   0.9944520864178770E+00
   0.9973481067447458E+00
   0.9932519210543480E+00
   0.1001312037311054E+01
   0.1003000802960116E+01
   0.1002188622932723E+01
   0.9947121111537839E+00
   0.9937838199608381E+00
   0.1004861304690309E+01
   0.1020102527995651E+01
   0.1005340616955496E+01
   0.9817058993605556E+00
   0.1004974829234851E+01
   0.1012375707504536E+01
   0.9873705192184840E+00
   0.9551253473030410E+00
   0.9865273999998000E+00
   0.9865946516528270E+00
   0.9920042014197679E+00
   0.9934462886234744E+00
   0.9960612757067177E+00
   0.1037404888395001E+01
   0.1033163231401016E+01
   0.1001443049568205E+01
   0.1001928974371334E+01
   0.9912286357482273E+00
   0.9911119327707753E+00
   0.9649284230596752E+00
   0.9933727646345060E+00
   0.1006089045126982E+01
   0.1001962053730123E+01
   0.9908625084094513E+00
   0.9742250527883661E+00
   0.9420725331844572E+00
   0.9821579075856784E+00
   0.9794772730040332E+00
   0.9704319631065952E+00
   0.9720820388053379E+00
   0.9557851898652282E+00
   0.9497953597268681E+00
   0.9529801795019857E+00
   0.1002636554160930E+01
   0.1002475647441010E+01
   0.1000512858459629E+01
   0.1001675820189551E+01
   0.9610053081011538E+00
   0.9492410622617378E+00
   0.9586390070454336E+00
   0.1001120873661669E+01
   0.1000500117835669E+01
   0.1001160957370964E+01
   0.9807424710917144E+00
   0.9805587581199043E+00
   0.9629172835907271E+00
SCALARS u double 1
LOOKUP_TABLE default
   0.0000000000000000E+00
   0.0000000000000000E+00
   0.0000000000000000E+00
   0.0000000000000000E+00
   0.0000000000000000E+00
   0.0000000000000000E+00
   0.0000000000000000E+00
   0.0000000000000000E+00
   0.0000000000000000E+00
   0.0000000000000000E+00
   0.0000000000000000E+00
   0.0000000000000000E+00
   0.0000000000000000E+00
   0.0000000000000000E+00
   0.0000000000000000E+00
   0.0000000000000000E+00
   0.0000000000000000E+00
   0.0000000000000000E+00
   0.0000000000000000E+00
   0.0000000000000000E+00
   0.0000000000000000E+00
   0.0000000000000000E+00
   0.0000000000000000E+00
   0.0000000000000000E+00
   0.0000000000000000E+00
   0.0000000000000000E+00
   0.0000000000000000E+00
   0.0000000000000000E+00
   0.0000000000000000E+00
   0.0000000000000000E+00
   0.0000000000000000E+00
   0.0000000000000000E+00
   0.0000000000000000E+00
   0.4946113751025680E+00
   0.5336287292040726E+00
   0.5182728387474721E+00
   0.4930697054042141E+00
   0.4847725485028994E+00
   0.4868117872594530E+00
   0.4891438082656592E+00
   0.4958019687031823E+00
   0.4899024171043229E+00
   0.4718112865248806E+00
   0.4448940803818274E+00
   0.4844408305881503E+00
   0.5097672236995353E+00
   0.4402188693206983E+00
   0.4949591586645706E+00
   0.5222984363626504E+00
   0.4962768641889345E+00
   0.5223881854936805E+00
   0.5038139619288375E+00
   0.5644348420291695E+00
   0.5245862905762645E+00
   0.4990952207134204E+00
   0.5729387316940430E+00
   0.5693727935823458E+00
   0.3752120942591765E+00
   0.4003945016442131E+00
   0.5599616078348904E+00
   0.5562275310889570E+00
   0.4942630647216517E+00
   0.4948653094308429E+00
   0.4925633572675781E+00
   0.4913991907865997E+00
   0.5162604435034058E+00
   0.5363581789543059E+00
   0.4951233611939726E+00
   0.4520580564832533E+00
   0.5129018209920372E+00
   0.5117684025267145E+00
   0.4786283604551261E+00
   0.4931191831816809E+00
   0.4600370655302833E+00
   0.5242644774509205E+00
   0.5299863823430585E+00
   0.5129704564067811E+00
   0.5328926688763621E+00
   0.5309762146099511E+00
   0.5309758467662461E+00
   0.5063645727789735E+00
   0.5279611056266592E+00
   0.5409243203323637E+00
   0.5363680755253446E+00
   0.5374185617387646E+00
   0.4965363891009295E+00
   0.4975366019213004E+00
   0.4963812221308527E+00
   0.4955149795889751E+00
   0.4904160759043995E+00
   0.4902500838427148E+00
   0.4861633313406131E+00
   0.4854043907649409E+00
   0.4931948728874831E+00
   0.4910337304250219E+00
   0.4831704255407935E+00
   0.4872474742603923E+00
   0.4880015332867724E+00
   0.4872302682424105E+00
   0.4882169450600017E+00
   0.4952573776386569E+00
   0.4900715652660318E+00
   0.4903590911741610E+00
   0.4944353952898071E+00
   0.4868172167454139E+00
   0.4892730137988596E+00
   0.4881465480796939E+00
   0.4878254274004883E+00
   0.4449033416822620E+00
   0.4700113971431907E+00
   0.4891764056547758E+00
   0.4885988783076372E+00
   0.4510314971592932E+00
   0.4681809782475718E+00
   0.4876657025749745E+00
   0.4868261962586044E+00
   0.4909274257268267E+00
   0.4793959422537788E+00
   0.4657898792662464E+00
   0.3794350123336324E+00
   0.4903701228975825E+00
   0.4487947049406249E+00
   0.4432422628323285E+00
   0.4845739866716495E+00
   0.4621901172513380E+00
   0.4663617951572477E+00
   0.4747788230853501E+00
   0.4893601406212026E+00
   0.5085681270829964E+00
   0.4304929256541833E+00
   0.4927287951529579E+00
   0.5320316161220262E+00
   0.4913834087921036E+00
   0.5209407200996532E+00
   0.5061324432255594E+00
   0.5690632523667037E+00
   0.5275039643790035E+00
   0.5015052366764313E+00
   0.5821378399089582E+00
   0.5691510933426747E+00
   0.3402456447253597E+00
   0.3785446621855031E+00
   0.5753087179138087E+00
   0.5668544267806298E+00
   0.5703054187187654E+00
   0.5291880556315057E+00
   0.5449834684582363E+00
   0.5719092629898018E+00
   0.5385699051186034E+00
   0.5475901229748074E+00
   0.5821561984673503E+00
   0.4925319463461332E+00
   0.5041562598542595E+00
   0.4961307159440455E+00
   0.5562798842540895E+00
   0.4757784824028128E+00
   0.4950182072245358E+00
   0.5496174372676460E+00
   0.5889523092780768E+00
   0.5839566671534698E+00
   0.5468162058173013E+00
   0.5803875349607680E+00
   0.5106059517420739E+00
   0.5029537998640302E+00
   0.5033089056099105E+00
   0.5676227055701470E+00
   0.5564628397484277E+00
   0.4947142187355309E+00
   0.5506797379162663E+00
   0.5513542296903734E+00
   0.5658254153133521E+00
   0.4919961146643578E+00
   0.4927858662485918E+00
   0.3865450161104929E+00
   0.3687917699789352E+00
   0.5574386376493493E+00
   0.5761776433536325E+00
   0.4194381254617373E+00
   0.5823000252197481E+00
   0.4268225173844500E+00
   0.5397390810852435E+00
   0.5016173293245186E+00
   0.5119227321279208E+00
   0.5048439098903534E+00
   0.5752766212612810E+00
   0.5878365518392894E+00
   0.5382373232154315E+00
   0.5679642818904492E+00
   0.5352011417313374E+00
   0.5338458631995697E+00
   0.5582290620442598E+00
   0.5511577183573777E+00
   0.4256814359855265E+00
   0.5272992037838089E+00
   0.5796799228467193E+00
   0.3318330799169112E+00
   0.4761453123851351E+00
   0.5446511355196850E+00
   0.4800695690328250E+00
   0.3006222867940027E+00
   0.5031629826149806E+00
   0.5017186809002663E+00
   0.5129134278867813E+00
   0.5414111530806964E+00
   0.3435238898140888E+00
   0.3398118071162987E+00
   0.3190216712362481E+00
   0.5066191392091348E+00
   0.5123865734965950E+00
   0.5329065621425322E+00
   0.5881305139585639E+00
   0.4644885571516236E+00
   0.3529644981872383E+00
SCALARS v double 1
LOOKUP_TABLE default
   0.0000000000000000E+00
   0.0000000000000000E+00
   0.0000000000000000E+00
   0.0000000000000000E+00
   0.0000000000000000E+00
   0.0000000000000000E+00
   0.0000000000000000E+00
   0.0000000000000000E+00
   0.0000000000000000E+00
   0.0000000000000000E+00
   0.0000000000000000E+00
   0.0000000000000000E+00
   0.0000000000000000E+00
   0.0000000000000000E+00
   0.0000000000000000E+00
   0.0000000000000000E+00
   0.0000000000000000E+00
   0.0000000000000000E+00
   0.0000000000000000E+00
   0.0000000000000000E+00
   0.0000000000000000E+00
   0.0000000000000000E+00
   0.0000000000000000E+00
   0.0000000000000000E+00
   0.0000000000000000E+00
   0.0000000000000000E+00
   0.0000000000000000E+00
   0.0000000000000000E+00
   0.0000000000000000E+00
   0.0000000000000000E+00
   0.0000000000000000E+00
   0.0000000000000000E+00
   0.0000000000000000E+00
   0.0000000000000000E+00
   0.0000000000000000E+00
   0.0000000000000000E+00
   0.0000000000000000E+00
   0.0000000000000000E+00
   0.0000000000000000E+00
   0.0000000000000000E+00
   0.0000000000000000E+00
   0.0000000000000000E+00
   0.0000000000000000E+00
   0.0000000000000000E+00
   0.0000000000000000E+00
   0.0000000000000000E+00
   0.0000000000000000E+00
   0.0000000000000000E+00
   0.0000000000000000E+00
   0.0000000000000000E+00
   0.0000000000000000E+00
   0.0000000000000000E+00
   0.0000000000000000E+00
   0.0000000000000000E+00
   0.0000000000000000E+00
   0.0000000000000000E+00
   0.0000000000000000E+00
   0.0000000000000000E+00
   0.0000000000000000E+00
   0.0000000000000000E+00
   0.0000000000000000E+00
   0.8513787337132172E-03
  -0.1262642347866320E-02
  -0.1293740749164111E-02
   0.0000000000000000E+00
   0.0000000000000000E+00
   0.0000000000000000E+00
   0.0000000000000000E+00
  -0.1933742008504519E-01
   0.5035489370324301E-03
   0.2213179785077877E-02
   0.1419352382971615E-01
  -0.6752934797199599E-02
  -0.8170240699738745E-02
  -0.1325723641589377E-01
   0.4993982548958663E-02
   0.7358928408761086E-03
   0.3478412316773737E-02
   0.1946676037849427E-02
   0.3168206778339092E-02
   0.1755588753157927E-02
  -0.7295171317285498E-02
  -0.6887279862518200E-04
   0.4552566326003007E-02
  -0.4161916551628729E-03
  -0.6647673545399480E-04
  -0.2024573521060637E-03
   0.8051606606891758E-03
   0.0000000000000000E+00
   0.0000000000000000E+00
   0.0000000000000000E+00
   0.0000000000000000E+00
   0.4746736559242301E-03
   0.1623985950684887E-02
  -0.1273087613909560E-02
  -0.9977312727174935E-03
  -0.2076398940379063E-02
  -0.9960778976284806E-03
  -0.7502720445229792E-03
  -0.7419056317592610E-03
   0.6053724108221879E-04
  -0.5965991163140368E-03
   0.8040962952811963E-03
  -0.1729966843685258E-02
   0.3146024697249831E-03
  -0.5711035197238096E-04
  -0.8890333865545399E-03
  -0.1052023404388064E-02
   0.0000000000000000E+00
   0.0000000000000000E+00
   0.0000000000000000E+00
  -0.1035619441305608E-02
  -0.7789758058209069E-02
   0.1821212402586663E-01
  -0.2897361127232379E-04
  -0.1377034145936719E-02
  -0.2028387481820661E-02
  -0.5613613444390922E-02
  -0.1620404574415171E-02
  -0.6356671605294105E-02
  -0.4326823953571964E-02
   0.1517899745245920E-02
   0.3300522063436692E-01
   0.4389733921879163E-04
  -0.2766875782701505E-02
   0.3629086845320799E-02
   0.3911408589582609E-03
   0.0000000000000000E+00
   0.0000000000000000E+00
   0.0000000000000000E+00
   0.0000000000000000E+00
   0.0000000000000000E+00
   0.0000000000000000E+00
   0.0000000000000000E+00
   0.0000000000000000E+00
   0.0000000000000000E+00
   0.0000000000000000E+00
   0.0000000000000000E+00
   0.0000000000000000E+00
   0.0000000000000000E+00
   0.0000000000000000E+00
   0.0000000000000000E+00
   0.0000000000000000E+00
   0.0000000000000000E+00
   0.5001788230801899E-02
   0.3214025958343994E-02
   0.8125856932001369E-02
   0.6096308122085402E-02
   0.1117368606547408E-01
   0.1403790762937878E-01
  -0.3213857983361888E-03
   0.5161777221954550E-02
   0.2930014069375238E-02
   0.3377893835762723E-02
   0.3728473681568993E-02
  -0.1469487667887483E-01
  -0.6136573605999626E-03
   0.6639692526003506E-02
   0.1457579020814722E-02
   0.1959411376221650E-02
   0.4263949615127018E-02
  -0.2812152675914780E-02
   0.1267574465327396E-02
   0.2851883583331488E-02
   0.1534808342215093E-02
   0.2563470894911568E-02
   0.2013581971973588E-02
   0.2154279000011947E-02
   0.8583999344619246E-02
  -0.3829958134051906E-02
   0.6155658351579520E-02
   0.4726993299188430E-04
  -0.4230612368540639E-03
  -0.1674061362019904E-01
  -0.4996319263216831E-02
  -0.4827025882008611E-02
   0.3399472468959035E-02
  -0.6077006595690309E-02
   0.3218628258786477E-04
  -0.3284811397004741E-01
  -0.3181859035103524E-02
   0.4581409171569469E-02
   0.9682094240407110E-03
   0.2133430235112837E-02
   0.4530795631436144E-02
   0.2692754231310203E-02
   0.3243192913656246E-02
   0.5223626540463908E-02
   0.1957642200190052E-02
   0.7485608884947840E-03
  -0.5694636784461048E-04
  -0.5322500275545821E-02
  -0.6972363171892797E-02
  -0.9632148773913203E-03
   0.1062785277289309E-02
  -0.2105762229358591E-02
  -0.3219383623461582E-02
  -0.2544365761221613E-02
  -0.4130954397653161E-02
  -0.7565906285430589E-02
  -0.2012280400273170E-02
   0.6515186234759131E-03
  -0.1916215156599283E-03
   0.1227842433913373E-02
  -0.3502378105288405E-02
   0.4847376292546737E-02
  -0.8642815899089456E-02
   0.3344009901145675E-04
  -0.3327712111525198E-03
   0.2558601945141873E-02
   0.1615701143074005E-02
   0.2038902926823641E-02
  -0.5641068327251919E-02
SCALARS w double 1
LOOKUP_TABLE default
   0.0000000000000000E+00
   0.0000000000000000E+00
   0.0000000000000000E+00
   0.0000000000000000E+00
   0.0000000000000000E+00
   0.0000000000000000E+00
   0.0000000000000000E+00
   0.0000000000000000E+00
   0.0000000000000000E+00
   0.0000000000000000E+00
   0.0000000000000000E+00
   0.0000000000000000E+00
   0.0000000000000000E+00
   0.0000000000000000E+00
   0.0000000000000000E+00
   0.0000000000000000E+00
   0.0000000000000000E+00
   0.0000000000000000E+00
   0.0000000000000000E+00
   0.0000000000000000E+00
   0.0000000000000000E+00
   0.0000000000000000E+00
   0.0000000000000000E+00
   0.0000000000000000E+00
   0.0000000000000000E+00
   0.0000000000000000E+00
   0.0000000000000000E+00
   0.0000000000000000E+00
   0.0000000000000000E+00
   0.0000000000000000E+00
   0.0000000000000000E+00
   0.0000000000000000E+00
   0.0000000000000000E+00
  -0.1007278425377654E+00
  -0.4245737287734157E-01
   0.7150816756349675E-03
   0.5704771839966156E-02
   0.5681057790236688E-03
   0.1606294984444161E-02
   0.3371999233959552E-02
   0.2364016203177584E-02
   0.4720186628561516E-03
   0.3528384055756314E-02
   0.4533198812971203E-01
   0.6563145599568510E-01
   0.8378099013123731E-03
  -0.2266273950320808E-01
   0.4270583083713727E-02
   0.1341904172185009E-01
   0.1029701790902327E-01
   0.4870730313841078E-01
   0.2380906940997328E-02
  -0.6536073456939930E-02
  -0.7379846948739814E-03
   0.3050426430916924E-03
   0.3845968011622143E-02
  -0.3893825541704720E-01
   0.1820230681240821E-01
   0.1120471336669736E-01
   0.3395681883119205E-01
   0.8379368670736029E-02
   0.4924455498206782E-02
   0.4973604867743259E-02
   0.4900296872723483E-02
   0.6056529923890209E-02
   0.2694617365589762E-02
  -0.4127919556130362E-01
  -0.9927350768712079E-01
  -0.1120401837133354E+00
   0.5143955535172082E-02
   0.4215791841291215E-02
  -0.1002624120175563E+00
  -0.9892910717953236E-01
  -0.9835842473070450E-01
  -0.9444289229242117E-01
  -0.6791170332967086E-01
   0.5196455276979234E-02
  -0.1927437444708378E-01
  -0.1563616899678827E-01
  -0.5965345703483765E-02
   0.6822370409027465E-02
  -0.8000247986424072E-01
  -0.2776595550221191E-01
  -0.8086762081738995E-01
  -0.5863556041279967E-01
   0.3073703352304229E-02
   0.2684926200313448E-02
   0.2644441692379582E-02
   0.3457117878902127E-02
   0.3997977158596510E-02
   0.1199288115446857E-02
  -0.1359811486721158E-03
   0.2028738895680311E-02
   0.4893805546658842E-02
   0.3863982276073861E-02
   0.1126178798392855E-02
   0.1188087194005744E-02
   0.1460077794205232E-02
  -0.2239593847629218E-04
   0.9067920740468284E-04
   0.4386661755525046E-02
   0.2711982050856923E-02
   0.2316664559191552E-02
   0.5006431836758027E-02
   0.1069422273958169E-02
   0.2706481999445262E-02
   0.2010122915590746E-02
   0.3343993070112286E-04
   0.8385999204501940E-01
   0.2832386877983972E-02
  -0.8469747336185723E-03
  -0.1275692264358795E-03
   0.1410861921389323E+00
   0.1236585755749921E+00
  -0.1228980910672134E-02
  -0.4383150291725233E-02
  -0.2805635001097106E-03
  -0.6477952028085616E-02
  -0.1895757826127114E-02
   0.1559343262041734E+00
   0.7528367344730043E-01
   0.2567484925474405E-01
   0.1661254957359271E+00