# vtk DataFile Version 2.0
FUN3D:global_image_vtk
ASCII
DATASET UNSTRUCTURED_GRID
POINTS 213 double
   -0.5474740594603397E-02    0.2504942002468015E+01    0.8038066513754321E-04
    0.1245419060588728E+01    0.2504942002468015E+01    0.1039420355313183E-03
    0.2497696073669950E+01    0.2504942002468015E+01    0.1101293108886602E-03
    0.3750590983903951E+01    0.2504942002468015E+01    0.1356498038756466E-03
    0.5003221377586132E+01    0.2504942002468015E+01    0.9668806236756700E-04
    0.5004676742906220E+01    0.1281291392998363E+01    0.1638058477060317E-03
    0.5004772721058898E+01    0.2775095788685312E-01    0.1903487481413332E-03
    0.5003581212092667E+01   -0.1225853379649929E+01    0.1607772012999749E-03
    0.5001952544222647E+01   -0.2496589018760901E+01    0.1082264471417022E-03
    0.3750348112983221E+01   -0.2496589018760901E+01    0.1458760651341638E-03
    0.2498611454364745E+01   -0.2496589018760901E+01    0.1008938464083238E-03
    0.1247175251993108E+01   -0.2496589018760901E+01    0.1108592957383437E-03
   -0.3383979682904934E-02   -0.2496589018760901E+01    0.8107293234926805E-04
   -0.4257801348440435E-02   -0.1225734687856262E+01    0.3415453547455905E-04
   -0.5251639246460989E-02    0.2619500007965710E-01    0.1038724994495967E-03
   -0.5676116282443463E-02    0.1278221728471008E+01    0.8224550527296822E-04
    0.9003209061970090E+00    0.1608979292482069E+01    0.8704095673999823E-04
    0.3983172219358475E+01   -0.1561211781392467E+01    0.1757125336074807E-03
    0.4035602063492015E+01    0.1486760245757024E+01    0.1713318841093910E-03
    0.1036613695255868E+01   -0.1455626302577312E+01    0.1047193358013075E-03
    0.1094353436962879E+01   -0.2964620547863022E+00    0.1260594408125614E-03
    0.7298399732447656E+00    0.6874686355485903E+00    0.1044597967373420E-03
    0.1617018608574693E+01    0.8553209825042054E+00    0.1529816073164136E-03
    0.2143199643574004E+01   -0.1627128385141894E+01    0.1606178561641699E-03
    0.4088840468516652E+01   -0.4351046315069668E+00    0.2719950835656248E-03
    0.2977916498708485E+01   -0.8334990110939411E+00    0.2245609625897162E-03
    0.3044093234685481E+01   -0.1814361102461418E+01    0.1617007901552604E-03
    0.3427866614749028E+01    0.3813906737475888E+00    0.2936972898187071E-03
    0.4313225393964806E+01    0.5489135241650743E+00    0.2313021604603550E-03
    0.1823032697010119E+01    0.1771265398461596E+01    0.1836207261411970E-03
    0.2806311133387878E+01    0.1358629588153143E+01    0.1943500587783230E-03
    0.1891860842801184E+01   -0.8481308964520642E+00    0.1670653536964824E-03
    0.2268769161311812E+01    0.7723708732351994E-01    0.2072318374126113E-03
    0.5000000000000000E+01    0.2504942002468015E+01    0.1250000000000000E+01
    0.5000000000000000E+01    0.2504942002468015E+01    0.2500000000000000E+01
    0.5000000000000000E+01    0.2504942002468015E+01    0.3750000000000000E+01
    0.5000000000000000E+01    0.2504942002468015E+01    0.5000000000000000E+01
    0.3750000000000000E+01    0.2504942002468015E+01    0.5000000000000000E+01
    0.2500000000000000E+01    0.2504942002468015E+01    0.5000000000000000E+01
    0.1250000000000000E+01    0.2504942002468015E+01    0.5000000000000000E+01
    0.0000000000000000E+00    0.2504942002468015E+01    0.5000000000000000E+01
    0.0000000000000000E+00    0.2504942002468015E+01    0.3750000000000000E+01
    0.0000000000000000E+00    0.2504942002468015E+01    0.2500000000000000E+01
    0.0000000000000000E+00    0.2504942002468015E+01    0.1250000000000000E+01
    0.9588956064218433E+00    0.2504942002468015E+01    0.9696526008694626E+00
    0.3981953079952927E+01    0.2504942002468015E+01    0.4070563859161240E+01
    0.4036122196966513E+01    0.2504942002468015E+01    0.1017567553205740E+01
    0.9637572746747128E+00    0.2504942002468015E+01    0.3973598209858041E+01
    0.1546540127929946E+01    0.2504942002468015E+01    0.2931570189025510E+01
    0.6973799442222213E+00    0.2504942002468015E+01    0.3070319964744884E+01
    0.8903741947279163E+00    0.2504942002468015E+01    0.2056562262665315E+01
    0.2183041993268189E+01    0.2504942002468015E+01    0.3960694458912845E+01
    0.3855844875188856E+01    0.2504942002468015E+01    0.2933250599517385E+01
    0.3152611367489020E+01    0.2504942002468015E+01    0.3637668398431757E+01
    0.3103307385298766E+01    0.2504942002468015E+01    0.4332607818174344E+01
    0.3266711043563174E+01    0.2504942002468015E+01    0.1889656637524574E+01
    0.4232537560766444E+01    0.2504942002468015E+01    0.1918626986171087E+01
    0.1905522338007584E+01    0.2504942002468015E+01    0.7226291174446483E+00
    0.2879767716040243E+01    0.2504942002468015E+01    0.9080946092062977E+00
    0.2012711350767001E+01    0.2504942002468015E+01    0.1767082417726314E+01
    0.2669681469718240E+01    0.2504942002468015E+01    0.2853394351007645E+01
    0.5000000000000000E+01    0.1250000000000000E+01    0.5000000000000000E+01
    0.5000000000000000E+01    0.0000000000000000E+00    0.5000000000000000E+01
    0.5000000000000000E+01   -0.1250000000000000E+01    0.5000000000000000E+01
    0.5000000000000000E+01   -0.2496589018760901E+01    0.5000000000000000E+01
    0.5000000000000000E+01   -0.2496589018760901E+01    0.3750000000000000E+01
    0.5000000000000000E+01   -0.2496589018760901E+01    0.2500000000000000E+01
    0.5000000000000000E+01   -0.2496589018760901E+01    0.1250000000000000E+01
    0.5000000000000000E+01    0.1578994732800803E+01    0.9058375365086910E+00
    0.5000000000000000E+01   -0.1583989954232354E+01    0.3982050490726493E+01
    0.5000000000000000E+01    0.1453322699199022E+01    0.4033849428301197E+01
    0.5000000000000000E+01   -0.1479596339503735E+01    0.1040505887381675E+01
    0.5000000000000000E+01   -0.3227322616384110E+00    0.1099454400140349E+01
    0.5000000000000000E+01    0.6593508822075582E+00    0.7354504170366591E+00
    0.5000000000000000E+01    0.8256214013940779E+00    0.1622302608453282E+01
    0.5000000000000000E+01   -0.1650070333782557E+01    0.2145871574390382E+01
    0.5000000000000000E+01   -0.4612828702537229E+00    0.4086422318222992E+01
    0.5000000000000000E+01   -0.8579242121530853E+00    0.2979540174134984E+01
    0.5000000000000000E+01   -0.1836846154397680E+01    0.3045064261640043E+01
    0.5000000000000000E+01    0.3508002863614053E+00    0.3428197553792836E+01
    0.5000000000000000E+01    0.5185680230613409E+00    0.4309693860063405E+01
    0.5000000000000000E+01    0.1738996113203182E+01    0.1827272193562204E+01
    0.5000000000000000E+01    0.1325493893339706E+01    0.2808563282768077E+01
    0.5000000000000000E+01   -0.8731419609589618E+00    0.1895995683864404E+01
    0.5000000000000000E+01    0.4906150219227333E-01    0.2273179336307740E+01
    0.0000000000000000E+00    0.1250000000000000E+01    0.5000000000000000E+01
    0.0000000000000000E+00    0.0000000000000000E+00    0.5000000000000000E+01
    0.0000000000000000E+00   -0.1250000000000000E+01    0.5000000000000000E+01
    0.0000000000000000E+00   -0.2496589018760901E+01    0.5000000000000000E+01
    0.1250000000000000E+01   -0.2496589018760901E+01    0.5000000000000000E+01
    0.2500000000000000E+01   -0.2496589018760901E+01    0.5000000000000000E+01
    0.3750000000000000E+01   -0.2496589018760901E+01    0.5000000000000000E+01
    0.4042003247744892E+01    0.1558308132739014E+01    0.5000000000000000E+01
    0.9304122287900499E+00   -0.1548001304379777E+01    0.5000000000000000E+01
    0.1037243024609388E+01    0.1462892710085612E+01    0.5000000000000000E+01
    0.3946240828834967E+01   -0.1445243809615570E+01    0.5000000000000000E+01
    0.4092527262848217E+01   -0.3455338993778935E+00    0.5000000000000000E+01
    0.4293103109154542E+01    0.6277660831404320E+00    0.5000000000000000E+01
    0.3241512314643519E+01    0.7429886854239611E+00    0.5000000000000000E+01
    0.2844289952419609E+01   -0.1588117879734118E+01    0.5000000000000000E+01
    0.7159905765450471E+00   -0.6002320124191652E+00    0.5000000000000000E+01
    0.1754341919796891E+01   -0.7398147869923652E+00    0.5000000000000000E+01
    0.1870296826774691E+01   -0.1788622905643739E+01    0.5000000000000000E+01
    0.9220614901912976E+00    0.3083720183248586E+00    0.5000000000000000E+01
    0.3101523624086016E+01    0.1777901774806180E+01    0.5000000000000000E+01
    0.2192512063922564E+01    0.1576861561598471E+01    0.5000000000000000E+01
    0.2024793420196460E+01    0.4773861992750707E+00    0.5000000000000000E+01
    0.2990627757741975E+01   -0.4878110785814084E+00    0.5000000000000000E+01
    0.0000000000000000E+00   -0.2496589018760901E+01    0.1250000000000000E+01
    0.0000000000000000E+00   -0.2496589018760901E+01    0.2500000000000000E+01
    0.0000000000000000E+00   -0.2496589018760901E+01    0.3750000000000000E+01
    0.0000000000000000E+00    0.1558308132739014E+01    0.4042003247744892E+01
    0.0000000000000000E+00   -0.1548001304379777E+01    0.9304122287900499E+00
    0.0000000000000000E+00    0.1462892710085612E+01    0.1037243024609388E+01
    0.0000000000000000E+00   -0.1445243809615570E+01    0.3946240828834967E+01
    0.0000000000000000E+00   -0.3455338993778935E+00    0.4092527262848217E+01
    0.0000000000000000E+00    0.6277660831404320E+00    0.4293103109154542E+01
    0.0000000000000000E+00    0.7429886854239611E+00    0.3241512314643519E+01
    0.0000000000000000E+00   -0.1588117879734118E+01    0.2844289952419609E+01
    0.0000000000000000E+00   -0.6002320124191652E+00    0.7159905765450471E+00
    0.0000000000000000E+00   -0.7398147869923652E+00    0.1754341919796891E+01
    0.0000000000000000E+00   -0.1788622905643739E+01    0.1870296826774691E+01
    0.0000000000000000E+00    0.3083720183248586E+00    0.9220614901912976E+00
    0.0000000000000000E+00    0.1777901774806180E+01    0.3101523624086016E+01
    0.0000000000000000E+00    0.1576861561598471E+01    0.2192512063922564E+01
[...]
POINT_DATA 213
SCALARS rho double 1
LOOKUP_TABLE default
   0.1346097002478981E+01
   0.9571994889250002E+00
   0.9460925261908392E+00
   0.9421713070370494E+00
   0.8435935423132901E+00
   0.7741865188972158E+00
   0.7627490142919719E+00
   0.7661376009687249E+00
   0.8310374387061472E+00
   0.9353532038709690E+00
   0.9343976630980465E+00
   0.9615835736293189E+00
   0.1448454633985788E+01
   0.1495394541028703E+01
   0.1646716569273017E+01
   0.1426577887838257E+01
   0.1009796832605528E+01
   0.9511377810215276E+00
   0.9438170787472476E+00
   0.9574429169055950E+00
   0.9414772716443600E+00
   0.1037107147282905E+01
   0.9258078146681489E+00
   0.9322440337444495E+00
   0.9538047647642668E+00
   0.9520361764663025E+00
   0.9350902082838934E+00
   0.9565433485551806E+00
   0.9378588928043006E+00
   0.9303242951164880E+00
   0.9446416457467366E+00
   0.8862304485919340E+00
   0.9423969620446069E+00
   0.9637181914157130E+00
   0.1008362563341666E+01
   0.1006713483006322E+01
   0.1001958831509910E+01
   0.1003217685901727E+01
   0.1004119832561079E+01
   0.1005207378865284E+01
   0.1004249317700481E+01
   0.1008267099146385E+01
   0.1023865869353788E+01
   0.1063750819197477E+01
   0.1019382678848812E+01
   0.1001778552199741E+01
   0.9645925746488974E+00
   0.1005262393833799E+01
   0.1000745043183068E+01
   0.1008694170620352E+01
   0.1008031885816621E+01
   0.1002353976396118E+01
   0.9980224130526584E+00
   0.1000594057057759E+01
   0.1001620903418016E+01
   0.9828094915625100E+00
   0.9843997828143842E+00
   0.9834242148376400E+00
   0.9790374676871684E+00
   0.9904789004734530E+00
   0.9935221889894306E+00
   0.1002008741380614E+01
   0.1002131973313777E+01
   0.1002272709106567E+01
   0.1001792815451364E+01
   0.1009814936365293E+01
   0.1006499289705118E+01
   0.9560826910404024E+00
   0.9252938246473084E+00
   0.1007053691827200E+01
   0.1004491502336875E+01
   0.9144854568227204E+00
   0.9091439054697138E+00
   0.8752432949058800E+00
   0.9768022173731987E+00
   0.1000530115526256E+01
   0.1005826619906741E+01
   0.1012895784006785E+01
   0.1011677277284429E+01
   0.1010416527967028E+01
   0.1005456511039576E+01
   0.9909247201137016E+00
   0.1005152840644646E+01
   0.9860799641344825E+00
   0.1005593071565789E+01
   0.1004239464915897E+01
   0.1002885827065692E+01
   0.1003350347028932E+01
   0.1003998452160215E+01
   0.1005116094477120E+01
   0.1003223534335913E+01
   0.1002668629149889E+01
   0.1002589605212964E+01
   0.1004069497855320E+01
   0.1004304401151533E+01
   0.1001642390363171E+01
   0.1002278745436711E+01
   0.1002546658385261E+01
   0.1003471913336614E+01
   0.1003380290368324E+01
   0.1003233302781990E+01
   0.1004430203499638E+01
   0.1004324628075586E+01
   0.1003652911926298E+01
   0.1003718541507464E+01
   0.1004318864829032E+01
   0.1004462407985391E+01
   0.1003629299971540E+01
   0.1064489711369518E+01
   0.1028444241800150E+01
   0.1009606837071984E+01
   0.1006626073603370E+01
   0.1163974931030487E+01
   0.1086025349019723E+01
   0.1007907651905785E+01
   0.1007251940099090E+01
   0.1006796091054590E+01
   0.1013052214974191E+01
   0.1019341253350135E+01
   0.1235134881614908E+01
   0.1032535507693275E+01
   0.1046565553996591E+01
   0.1201695800732531E+01
   0.1014670081668091E+01
   0.1032293477717188E+01
   0.1028219928374815E+01
   0.1014640071672578E+01
   0.1028999238986774E+01
   0.1002002403292627E+01
   0.9607798450313370E+00
   0.1006858995115815E+01
   0.1001326399019894E+01
   0.1010799962622418E+01
   0.1012236578134538E+01
   0.1000939793814833E+01
   0.9979315694128316E+00
   0.9980679353392865E+00
   0.1001191382429238E+01
   0.9841977150735634E+00
   0.9815061841907184E+00
   0.9648620667657736E+00
   0.9680679221353080E+00
   0.9914140154492385E+00
   0.9910913031306281E+00
   0.9925597577091748E+00
   0.1001728079097638E+01
   0.9993249299610308E+00
   0.9941443889248367E+00
   0.1006981396693696E+01
   0.1022611157980629E+01
   0.1001120777096419E+01
   0.1008783412248480E+01
   0.1004774305389636E+01
   0.1009028544222943E+01
   0.9967193913374190E+00
   0.1005562614036635E+01
   0.1003325018836579E+01
   0.9949862562382796E+00
   0.9833516922806790E+00
   0.9944520860188295E+00
   0.9973481064842850E+00
   0.9932519211098686E+00
   0.1001312037132307E+01
   0.1003000802855292E+01
   0.1002188622867638E+01
   0.9947121111064932E+00
   0.9937838198820584E+00
   0.1004861304629975E+01
   0.1020102527913352E+01
   0.1005340616877275E+01
   0.9817058992634234E+00
   0.1004974829247252E+01
   0.1012375707520395E+01
   0.9873705188396485E+00
   0.9551253471757167E+00
   0.9865273999950523E+00
   0.9865946514474637E+00
   0.9920042015574854E+00
   0.9934462884318995E+00
   0.9960612755669883E+00
   0.1037404888358564E+01
   0.1033163231357261E+01
   0.1001443049119036E+01
   0.1001928974150906E+01
   0.9912286358246781E+00
   0.9911119327432647E+00
   0.9649284231415054E+00
   0.9933727646829122E+00
   0.1006089045016329E+01
   0.1001962053438993E+01
   0.9908625083776825E+00
   0.9742250538246900E+00
   0.9420725327482542E+00
   0.9821579074367208E+00
   0.9794772730641322E+00
   0.9704319631657462E+00
   0.9720820387489173E+00
   0.9557851894294428E+00
   0.9497953596190871E+00
   0.9529801794545596E+00
   0.1002636554249317E+01
   0.1002475647470212E+01
   0.1000512858391394E+01
   0.1001675819943105E+01
   0.9610053084211487E+00
   0.9492410620684988E+00
   0.9586390072205800E+00
   0.1001120873573931E+01
   0.1000500117942706E+01
   0.1001160957076402E+01
   0.9807424710254785E+00
   0.9805587580811254E+00
   0.9629172832913152E+00
SCALARS u double 1
LOOKUP_TABLE default
   0.0000000000000000E+00
   0.0000000000000000E+00
   0.0000000000000000E+00
   0.0000000000000000E+00
   0.0000000000000000E+00
   0.0000000000000000E+00
   0.0000000000000000E+00
   0.0000000000000000E+00
   0.0000000000000000E+00
   0.0000000000000000E+00
   0.0000000000000000E+00
   0.0000000000000000E+00
   0.0000000000000000E+00
   0.0000000000000000E+00
   0.0000000000000000E+00
   0.0000000000000000E+00
   0.0000000000000000E+00
   0.0000000000000000E+00
   0.0000000000000000E+00
   0.0000000000000000E+00
   0.0000000000000000E+00
   0.0000000000000000E+00
   0.0000000000000000E+00
   0.0000000000000000E+00
   0.0000000000000000E+00
   0.0000000000000000E+00
   0.0000000000000000E+00
   0.0000000000000000E+00
   0.0000000000000000E+00
   0.0000000000000000E+00
   0.0000000000000000E+00
   0.0000000000000000E+00
   0.0000000000000000E+00
   0.4946113853307239E+00
   0.5336287281400602E+00
   0.5182728400043721E+00
   0.4930697038261946E+00
   0.4847725450538352E+00
   0.4868117867252236E+00
   0.4891438077304608E+00
   0.4958019692052626E+00
   0.4899024170042161E+00
   0.4718112866584702E+00
   0.4448940803892486E+00
   0.4844408306708803E+00
   0.5097672283130160E+00
   0.4402188702522234E+00
   0.4949591588553561E+00
   0.5222984365275665E+00
   0.4962768642563443E+00
   0.5223881856505465E+00
   0.5038139623129667E+00
   0.5644348415761316E+00
   0.5245862914627275E+00
   0.4990952225721079E+00
   0.5729387319574807E+00
   0.5693727942286477E+00
   0.3752120943203188E+00
   0.4003945014001609E+00
   0.5599616078758664E+00
   0.5562275313683116E+00
   0.4942630615418593E+00
   0.4948653066765727E+00
   0.4925633566471692E+00
   0.4913991911488689E+00
   0.5162604435577685E+00
   0.5363581789165018E+00
   0.4951233619078655E+00
   0.4520580588986124E+00
   0.5129018213742724E+00
   0.5117684050617849E+00
   0.4786283602992976E+00
   0.4931191834131899E+00
   0.4600370644832419E+00
   0.5242644767112581E+00
   0.5299863823034507E+00
   0.5129704576834265E+00
   0.5328926688738775E+00
   0.5309762144345201E+00
   0.5309758478172902E+00
   0.5063645740883331E+00
   0.5279611042915334E+00
   0.5409243200408019E+00
   0.5363680755570345E+00
   0.5374185616336628E+00
   0.4965363892188928E+00
   0.4975366020431092E+00
   0.4963812222063851E+00
   0.4955149796507424E+00
   0.4904160760721046E+00
   0.4902500837383328E+00
   0.4861633321464066E+00
   0.4854043845601757E+00
   0.4931948727426144E+00
   0.4910337298409485E+00
   0.4831704246280164E+00
   0.4872474696755164E+00
   0.4880015266095087E+00
   0.4872302651899530E+00
   0.4882169452856382E+00
   0.4952573774794005E+00
   0.4900715651489782E+00
   0.4903590910893396E+00
   0.4944353947437485E+00
   0.4868172155357264E+00
   0.4892730124450296E+00
   0.4881465468315515E+00
   0.4878254257214958E+00
   0.4449033425790661E+00
   0.4700113970901396E+00
   0.4891764057084642E+00
   0.4885988784443314E+00
   0.4510314966937594E+00
   0.4681809780908427E+00
   0.4876657028407875E+00
   0.4868261964181357E+00
   0.4909274260452151E+00
   0.4793959423423110E+00
   0.4657898790988739E+00
   0.3794350124280145E+00
   0.4903701231431681E+00
   0.4487947049388183E+00
   0.4432422630716382E+00
   0.4845739867678353E+00
   0.4621901174540030E+00
   0.4663617952256446E+00
   0.4747788230951367E+00
   0.4893601407448925E+00
   0.5085681254135533E+00
   0.4304929255382015E+00
   0.4927287952200355E+00
   0.5320316159555223E+00
   0.4913834087267326E+00
   0.5209407202603220E+00
   0.5061324427338799E+00
   0.5690632522094377E+00
   0.5275039635944837E+00
   0.5015052358701225E+00
   0.5821378400891583E+00
   0.5691510934551307E+00
   0.3402456447973383E+00
   0.3785446623990119E+00
   0.5753087182029373E+00
   0.5668544266418221E+00
   0.5703054187487109E+00
   0.5291880558276185E+00
   0.5449834685483865E+00
   0.5719092630438276E+00
   0.5385699051986323E+00
   0.5475901231289498E+00
   0.5821561986152143E+00
   0.4925319464667032E+00
   0.5041562602429414E+00
   0.4961307160731683E+00
   0.5562798843246135E+00
   0.4757784825010267E+00
   0.4950182070728737E+00
   0.5496174375420456E+00
   0.5889523094559926E+00
   0.5839566670153847E+00
   0.5468162066055438E+00
   0.5803875347578482E+00
   0.5106059524789691E+00
   0.5029538002846777E+00
   0.5033089070344540E+00
   0.5676227057496316E+00
   0.5564628401834301E+00
   0.4947142189573225E+00
   0.5506797379814151E+00
   0.5513542297912434E+00
   0.5658254153872140E+00
   0.4919961147619056E+00
   0.4927858663252605E+00
   0.3865450165335890E+00
   0.3687917700794960E+00
   0.5574386377338429E+00
   0.5761776434749551E+00
   0.4194381255917354E+00
   0.5823000254084352E+00
   0.4268225175384335E+00
   0.5397390810841515E+00
   0.5016173293085315E+00
   0.5119227344307746E+00
   0.5048439104181275E+00
   0.5752766217019192E+00
   0.5878365518831224E+00
   0.5382373233257467E+00
   0.5679642820141267E+00
   0.5352011415241665E+00
   0.5338458640053937E+00
   0.5582290622072890E+00
   0.5511577187432930E+00
   0.4256814374282361E+00
   0.5272992040074752E+00
   0.5796799230112758E+00
   0.3318330798427933E+00
   0.4761453124405570E+00
   0.5446511356525254E+00
   0.4800695691855507E+00
   0.3006222867254324E+00
   0.5031629825168402E+00
   0.5017186811607774E+00
   0.5129134283369269E+00
   0.5414111545022952E+00
   0.3435238908921451E+00
   0.3398118070628545E+00
   0.3190216712596460E+00
   0.5066191388471065E+00
   0.5123865725533174E+00
   0.5329065627700726E+00
   0.5881305140708737E+00
   0.4644885571750815E+00
   0.3529644983297213E+00
SCALARS v double 1
LOOKUP_TABLE default
   0.0000000000000000E+00
   0.0000000000000000E+00
   0.0000000000000000E+00
   0.0000000000000000E+00
   0.0000000000000000E+00
   0.0000000000000000E+00
   0.0000000000000000E+00
   0.0000000000000000E+00
   0.0000000000000000E+00
   0.0000000000000000E+00
   0.0000000000000000E+00
   0.0000000000000000E+00
   0.0000000000000000E+00
   0.0000000000000000E+00
   0.0000000000000000E+00
   0.0000000000000000E+00
   0.0000000000000000E+00
   0.0000000000000000E+00
   0.0000000000000000E+00
   0.0000000000000000E+00
   0.0000000000000000E+00
   0.0000000000000000E+00
   0.0000000000000000E+00
   0.0000000000000000E+00
   0.0000000000000000E+00
   0.0000000000000000E+00
   0.0000000000000000E+00
   0.0000000000000000E+00
   0.0000000000000000E+00
   0.0000000000000000E+00
   0.0000000000000000E+00
   0.0000000000000000E+00
   0.0000000000000000E+00
   0.0000000000000000E+00
   0.0000000000000000E+00
   0.0000000000000000E+00
   0.0000000000000000E+00
   0.0000000000000000E+00
   0.0000000000000000E+00
   0.0000000000000000E+00
   0.0000000000000000E+00
   0.0000000000000000E+00
   0.0000000000000000E+00
   0.0000000000000000E+00
   0.0000000000000000E+00
   0.0000000000000000E+00
   0.0000000000000000E+00
   0.0000000000000000E+00
   0.0000000000000000E+00
   0.0000000000000000E+00
   0.0000000000000000E+00
   0.0000000000000000E+00
   0.0000000000000000E+00
   0.0000000000000000E+00
   0.0000000000000000E+00
   0.0000000000000000E+00
   0.0000000000000000E+00
   0.0000000000000000E+00
   0.0000000000000000E+00
   0.0000000000000000E+00
   0.0000000000000000E+00
   0.8513786225061589E-03
  -0.1262645373401643E-02
  -0.1293743040836265E-02
   0.0000000000000000E+00
   0.0000000000000000E+00
   0.0000000000000000E+00
   0.0000000000000000E+00
  -0.1933741668270607E-01
   0.5035491668958464E-03
   0.2213180170647117E-02
   0.1419352364215215E-01
  -0.6752934878947721E-02
  -0.8170239134921242E-02
  -0.1325723542942419E-01
   0.4993982753631852E-02
   0.7358941663370395E-03
   0.3478413353121276E-02
   0.1946676460000813E-02
   0.3168208073211002E-02
   0.1755589533264465E-02
  -0.7295169479449253E-02
  -0.6887233760384634E-04
   0.4552566573072656E-02
  -0.4161913255130781E-03
  -0.6647668766871966E-04
  -0.2024572747695462E-03
   0.8051606992143519E-03
   0.0000000000000000E+00
   0.0000000000000000E+00
   0.0000000000000000E+00
   0.0000000000000000E+00
   0.4746736627581817E-03
   0.1623985839230322E-02
  -0.1273087719395305E-02
  -0.9977331907872055E-03
  -0.2076402798225915E-02
  -0.9960804119381870E-03
  -0.7502737842219128E-03
  -0.7419073865476754E-03
   0.6053717745988092E-04
  -0.5965998363362173E-03
   0.8040959540415045E-03
  -0.1729966872040345E-02
   0.3146019142736011E-03
  -0.5711048434637407E-04
  -0.8890335709518589E-03
  -0.1052025292273162E-02
   0.0000000000000000E+00
   0.0000000000000000E+00
   0.0000000000000000E+00
  -0.1035619366259009E-02
  -0.7789758176615163E-02
   0.1821212393833909E-01
  -0.2897361689945491E-04
  -0.1377034101713058E-02
  -0.2028387399311493E-02
  -0.5613613489554557E-02
  -0.1620404457741693E-02
  -0.6356671556521471E-02
  -0.4326823907810059E-02
   0.1517899757140257E-02
   0.3300522065764813E-01
   0.4389732043053552E-04
  -0.2766875793107283E-02
   0.3629086789011993E-02
   0.3911408604801338E-03
   0.0000000000000000E+00
   0.0000000000000000E+00
   0.0000000000000000E+00
   0.0000000000000000E+00
   0.0000000000000000E+00
   0.0000000000000000E+00
   0.0000000000000000E+00
   0.0000000000000000E+00
   0.0000000000000000E+00
   0.0000000000000000E+00
   0.0000000000000000E+00
   0.0000000000000000E+00
   0.0000000000000000E+00
   0.0000000000000000E+00
   0.0000000000000000E+00
   0.0000000000000000E+00
   0.0000000000000000E+00
   0.5001788274758508E-02
   0.3214026039858619E-02
   0.8125856975317002E-02
   0.6096308113022853E-02
   0.1117368605997303E-01
   0.1403790763835551E-01
  -0.3213857443444385E-03
   0.5161777272281768E-02
   0.2930014141836255E-02
   0.3377893877597790E-02
   0.3728473679476416E-02
  -0.1469487665264226E-01
  -0.6136572585419705E-03
   0.6639692668283442E-02
   0.1457578761330315E-02
   0.1959411290598133E-02
   0.4263950128670638E-02
  -0.2812152888956729E-02
   0.1267575155979578E-02
   0.2851883794319990E-02
   0.1534808664765079E-02
   0.2563471476527744E-02
   0.2013582396029926E-02
   0.2154279036456903E-02
   0.8583999368513943E-02
  -0.3829958107486927E-02
   0.6155658344739147E-02
   0.4727000821001590E-04
  -0.4230611737047816E-03
  -0.1674061355769703E-01
  -0.4996319177060723E-02
  -0.4827025838932328E-02
   0.3399472496802850E-02
  -0.6077006640546405E-02
   0.3218630787316591E-04
  -0.3284811391468280E-01
  -0.3181859007380347E-02
   0.4581409174288657E-02
   0.9682103752929022E-03
   0.2133430473192775E-02
   0.4530796074202494E-02
   0.2692754556424544E-02
   0.3243192960833598E-02
   0.5223626824909208E-02
   0.1957642586806782E-02
   0.7485618829880769E-03
  -0.5694619642939510E-04
  -0.5322500053171196E-02
  -0.6972361985239777E-02
  -0.9632152590802149E-03
   0.1062785309823050E-02
  -0.2105762111941401E-02
  -0.3219383493269355E-02
  -0.2544366003152495E-02
  -0.4130954458864461E-02
  -0.7565906289583686E-02
  -0.2012280318012966E-02
   0.6515191588641372E-03
  -0.1916206547883023E-03
   0.1227843211366958E-02
  -0.3502377822267247E-02
   0.4847376476157730E-02
  -0.8642815805006905E-02
   0.3344073258885591E-04
  -0.3327707752822170E-03
   0.2558602220722745E-02
   0.1615701252003422E-02
   0.2038902964548778E-02
  -0.5641068120258526E-02
SCALARS w double 1
LOOKUP_TABLE default
   0.0000000000000000E+00
   0.0000000000000000E+00
   0.0000000000000000E+00
   0.0000000000000000E+00
   0.0000000000000000E+00
   0.0000000000000000E+00
   0.0000000000000000E+00
   0.0000000000000000E+00
   0.0000000000000000E+00
   0.0000000000000000E+00
   0.0000000000000000E+00
   0.0000000000000000E+00
   0.0000000000000000E+00
   0.0000000000000000E+00
   0.0000000000000000E+00
   0.0000000000000000E+00
   0.0000000000000000E+00
   0.0000000000000000E+00
   0.0000000000000000E+00
   0.0000000000000000E+00
   0.0000000000000000E+00
   0.0000000000000000E+00
   0.0000000000000000E+00
   0.0000000000000000E+00
   0.0000000000000000E+00
   0.0000000000000000E+00
   0.0000000000000000E+00
   0.0000000000000000E+00
   0.0000000000000000E+00
   0.0000000000000000E+00
   0.0000000000000000E+00
   0.0000000000000000E+00
   0.0000000000000000E+00
  -0.1007278452042118E+00
  -0.4245737482478618E-01
   0.7150822722637660E-03
   0.5704773910247291E-02
   0.5681058595124052E-03
   0.1606293915720810E-02
   0.3371999450184193E-02
   0.2364016283600253E-02
   0.4720187209866984E-03
   0.3528384087639961E-02
   0.4533198813207644E-01
   0.6563145597098403E-01
   0.8378092794918813E-03
  -0.2266273869708297E-01
   0.4270582934748256E-02
   0.1341904176496314E-01
   0.1029701792184056E-01
   0.4870730315734614E-01
   0.2380906995765331E-02
  -0.6536073829787261E-02
  -0.7379843225247301E-03
   0.3050419978326665E-03
   0.3845967925119668E-02
  -0.3893825672791578E-01
   0.1820230683889454E-01
   0.1120471372612982E-01
   0.3395681891230264E-01
   0.8379368774579662E-02
   0.4924456865097441E-02
   0.4973604829019522E-02
   0.4900295690252838E-02
   0.6056528303106922E-02
   0.2694616138941531E-02
  -0.4127919574817462E-01
  -0.9927350779019233E-01
  -0.1120401836378198E+00
   0.5143954760553231E-02
   0.4215793442230152E-02
  -0.1002624119741492E+00
  -0.9892910734779745E-01
  -0.9835842474008225E-01
  -0.9444289285338085E-01
  -0.6791170330710941E-01
   0.5196455766493014E-02
  -0.1927437378194544E-01
  -0.1563616898933410E-01
  -0.5965344784181248E-02
   0.6822371768343338E-02
  -0.8000248193096937E-01
  -0.2776595541901970E-01
  -0.8086762072040780E-01
  -0.5863556033615128E-01
   0.3073703583974287E-02
   0.2684926238329142E-02
   0.2644441476415895E-02
   0.3457117781350115E-02
   0.3997977345138773E-02
   0.1199288827286524E-02
  -0.1359814937878135E-03
   0.2028740195049639E-02
   0.4893805806305149E-02
   0.3863982037184534E-02
   0.1126177550917410E-02
   0.1188087634646755E-02
   0.1460077466087006E-02
  -0.2239667222561136E-04
   0.9067918483730436E-04
   0.4386661917124852E-02
   0.2711981683418287E-02
   0.2316664612481709E-02
   0.5006431813737716E-02
   0.1069421623578666E-02
   0.2706481728201643E-02
   0.2010122945761557E-02
   0.3343977901100889E-04
   0.8385999245493510E-01
   0.2832386968840768E-02
  -0.8469747419477508E-03
  -0.1275692988961308E-03
   0.1410861921297678E+00
   0.1236585755785771E+00
  -0.1228981003604415E-02
  -0.4383150282771519E-02
  -0.2805635401267839E-03
  -0.6477952039753728E-02
  -0.1895757774259071E-02
   0.1559343261974894E+00
   0.7528367346991781E-01
   0.2567484927630790E-01
   0.1661254957121643E+00